
                                 *****************
                                 * O   R   C   A *
                                 *****************

           --- An Ab Initio, DFT and Semiempirical electronic structure package ---

                  #######################################################
                  #                        -***-                        #
                  #  Department of molecular theory and spectroscopy    #
                  #              Directorship: Frank Neese              #
                  # Max Planck Institute for Chemical Energy Conversion #
                  #                  D-45470 Muelheim/Ruhr              #
                  #                       Germany                       #
                  #                                                     #
                  #                  All rights reserved                #
                  #                        -***-                        #
                  #######################################################


                         Program Version 4.0.0.2 - RELEASE -


 With contributions from (in alphabetic order):
   Daniel Aravena         : Magnetic Properties
   Michael Atanasov       : Ab Initio Ligand Field Theory
   Ute Becker             : Parallelization
   Martin Brehm           : Molecular dynamics
   Dmytro Bykov           : SCF Hessian
   Vijay G. Chilkuri      : MRCI spin determinant printing
   Dipayan Datta          : RHF DLPNO-CCSD density
   Achintya Kumar Dutta   : EOM-CC, STEOM-CC
   Dmitry Ganyushin       : Spin-Orbit,Spin-Spin,Magnetic field MRCI
   Yang Guo               : DLPNO-NEVPT2, CIM, IAO-localization
   Andreas Hansen         : Spin unrestricted coupled pair/coupled cluster methods
   Lee Huntington         : MR-EOM, pCC
   Robert Izsak           : Overlap fitted RIJCOSX, COSX-SCS-MP3, EOM
   Christian Kollmar      : KDIIS, OOCD, Brueckner-CCSD(T), CCSD density
   Simone Kossmann        : Meta GGA functionals, TD-DFT gradient, OOMP2, MP2 Hessian
   Martin Krupicka        : AUTO-CI
   Dagmar Lenk            : GEPOL surface
   Dimitrios Liakos       : Extrapolation schemes; parallel MDCI
   Dimitrios Manganas     : ROCIS; embedding schemes
   Dimitrios Pantazis     : SARC Basis sets
   Taras Petrenko         : DFT Hessian,TD-DFT gradient, ASA, ECA, R-Raman, ABS, FL, XAS/XES, NRVS
   Peter Pinski           : DLPNO-MP2
   Christoph Reimann      : Effective Core Potentials
   Marius Retegan         : Local ZFS, SOC
   Christoph Riplinger    : Optimizer, TS searches, QM/MM, DLPNO-CCSD(T), (RO)-DLPNO pert. Triples
   Tobias Risthaus        : Range-separated hybrids, TD-DFT gradient, RPA, STAB
   Michael Roemelt        : Restricted open shell CIS
   Masaaki Saitow         : Open-shell DLPNO
   Barbara Sandhoefer     : DKH picture change effects
   Kantharuban Sivalingam : CASSCF convergence, NEVPT2, FIC-MRCI
   Georgi Stoychev        : AutoAux
   Boris Wezisla          : Elementary symmetry handling
   Frank Wennmohs         : Technical directorship


 We gratefully acknowledge several colleagues who have allowed us to
 interface, adapt or use parts of their codes:
   Stefan Grimme, W. Hujo, H. Kruse,             : VdW corrections, initial TS optimization,
                  C. Bannwarth                     DFT functionals, gCP, sTDA/sTD-DF
   Ed Valeev                                     : LibInt (2-el integral package), F12 methods
   Garnet Chan, S. Sharma, J. Yang, R. Olivares  : DMRG
   Ulf Ekstrom                                   : XCFun DFT Library
   Mihaly Kallay                                 : mrcc  (arbitrary order and MRCC methods)
   Jiri Pittner, Ondrej Demel                    : Mk-CCSD
   Frank Weinhold                                : gennbo (NPA and NBO analysis)
   Christopher J. Cramer and Donald G. Truhlar   : smd solvation model


 Your calculation uses the libint2 library for the computation of 2-el integrals
 For citations please refer to: http://libint.valeyev.net

 This ORCA versions uses:
   CBLAS   interface :  Fast vector & matrix operations
   LAPACKE interface :  Fast linear algebra routines
   SCALAPACK package :  Parallel linear algebra routines


Your calculation utilizes the atom-pairwise dispersion correction
with the zero-damping scheme (D30)
Cite in your paper:
S.Grimme, J.Antony, S.Ehrlich and H.Krieg, J.Chem.Phys., 132, (2010), 154104 
   

XCFun DFT library Copyright 2009-2010 Ulf Ekstrom and contributors.
See http://admol.org/xcfun for more information. This is free soft-
ware; see the source code for copying conditions. There is ABSOLUTELY
NO WARRANTY; not even for MERCHANTABILITY or FITNESS FOR A PARTICULAR
PURPOSE. For details see the documentation. Scientific users of this 
library should cite U. Ekstrom, L. Visscher, R. Bast, A. J. Thorvald-
sen and K. Ruud; J.Chem.Theor.Comp. 2010, DOI: 10.1021/ct100117s
XCFun Version 0.99 
Your calculation utilizes the basis: 6-31G(d)
   H-He, Li-Ne : W. J. Hehre, R. Ditchfield and J.A. Pople, J. Chem. Phys. 56, 2257 (1972).
                 Note: He and Ne are unpublished basis sets taken from the Gaussian program.
                 Note: Li and B from J. D. Dill and J. A. Pople, J. Chem. Phys. 62, 2921 (1975).
   Na - Ar     : M. M. Francl, W. J. Pietro, W. J. Hehre, J. S. Binkley, M. S. Gordon, 
                 D. J. DeFrees and J. A. Pople, J. Chem. Phys. 77, 3654 (1982).
   K - Zn      : V. A. Rassolov, J. A. Pople, M. A. Ratner, and T. L. Windus, J. Chem. Phys. 109, 1223 (1998).

================================================================================
                                        WARNINGS
                       Please study these warnings very carefully!
================================================================================

Warning: TCutStore was < 0. Adjusted to Thresh (uncritical)

INFO   : the flag for use of LIBINT has been found!

================================================================================
                                       INPUT FILE
================================================================================
NAME = initial1.inp
|  1> ! WB97X-D3 6-31G(d) VerySlowConv
|  2> ! KDIIS NOSOSCF
|  3> %base "Scan_1"
|  4> 
|  5> %scf
|  6> maxiter 999
|  7> end
|  8> 
|  9> * xyz 0 1
| 10> C          1.525204278634   -2.849829375783   -0.000000000000
| 11> H          2.373259289908   -2.914752980935   -0.000000000000
| 12> C          0.920052848458   -1.588036450810    0.000000000000
| 13> H          1.400306532511   -0.886061446686    0.000000000000
| 14> C         -0.475267271998   -1.481216661903   -0.000000000000
| 15> H         -0.843068564833   -0.714317223401   -0.000000000000
| 16> C         -1.265435746577   -2.636189112277   -0.000000000000
| 17> H         -2.113490862705   -2.571265241712   -0.000000000000
| 18> C         -0.660285081683   -3.897981514543    0.000000000000
| 19> H         -1.140537781328   -4.599957292975    0.000000000000
| 20> C          0.735034844727   -4.004801982590   -0.000000000000
| 21> H          1.102837514886   -4.771700716385   -0.000000000000
| 22> **                         ****END OF INPUT****
================================================================================

                       ****************************
                       * Single Point Calculation *
                       ****************************

---------------------------------
CARTESIAN COORDINATES (ANGSTROEM)
---------------------------------
  C      1.525204   -2.849829   -0.000000
  H      2.373259   -2.914753   -0.000000
  C      0.920053   -1.588036    0.000000
  H      1.400307   -0.886061    0.000000
  C     -0.475267   -1.481217   -0.000000
  H     -0.843069   -0.714317   -0.000000
  C     -1.265436   -2.636189   -0.000000
  H     -2.113491   -2.571265   -0.000000
  C     -0.660285   -3.897982    0.000000
  H     -1.140538   -4.599957    0.000000
  C      0.735035   -4.004802   -0.000000
  H      1.102838   -4.771701   -0.000000

----------------------------
CARTESIAN COORDINATES (A.U.)
----------------------------
  NO LB      ZA    FRAG     MASS         X           Y           Z
   0 C     6.0000    0    12.011    2.882218   -5.385397   -0.000000
   1 H     1.0000    0     1.008    4.484810   -5.508085   -0.000000
   2 C     6.0000    0    12.011    1.738648   -3.000954    0.000000
   3 H     1.0000    0     1.008    2.646196   -1.674413    0.000000
   4 C     6.0000    0    12.011   -0.898125   -2.799094   -0.000000
   5 H     1.0000    0     1.008   -1.593169   -1.349864   -0.000000
   6 C     6.0000    0    12.011   -2.391327   -4.981675   -0.000000
   7 H     1.0000    0     1.008   -3.993919   -4.858987   -0.000000
   8 C     6.0000    0    12.011   -1.247758   -7.366118    0.000000
   9 H     1.0000    0     1.008   -2.155304   -8.692660    0.000000
  10 C     6.0000    0    12.011    1.389015   -7.567979   -0.000000
  11 H     1.0000    0     1.008    2.084061   -9.017208   -0.000000

--------------------------------
INTERNAL COORDINATES (ANGSTROEM)
--------------------------------
 C      0   0   0     0.000000000000     0.00000000     0.00000000
 H      1   0   0     0.850536522821     0.00000000     0.00000000
 C      1   2   0     1.399403315330   120.00000187     0.00000000
 H      3   1   2     0.850536599719   119.99994560     0.00000000
 C      3   1   2     1.399402981936   119.99999440   180.00000085
 H      5   3   1     0.850536618721   119.99993553   180.00000000
 C      5   3   1     1.399402579439   119.99999954     0.00000000
 H      7   5   3     0.850536647629   119.99997478   180.00000000
 C      7   5   3     1.399402513088   120.00002506     0.00000000
 H      9   7   5     0.850536682937   120.00004878   180.00000000
 C      9   7   5     1.399402840297   120.00000373     0.00000000
 H     11   9   7     0.850536578915   120.00006805   180.00000000

---------------------------
INTERNAL COORDINATES (A.U.)
---------------------------
 C      0   0   0     0.000000000000     0.00000000     0.00000000
 H      1   0   0     1.607281095030     0.00000000     0.00000000
 C      1   2   0     2.644489016875   120.00000187     0.00000000
 H      3   1   2     1.607281240345   119.99994560     0.00000000
 C      3   1   2     2.644488386852   119.99999440   180.00000085
 H      5   3   1     1.607281276255   119.99993553   180.00000000
 C      5   3   1     2.644487626243   119.99999954     0.00000000
 H      7   5   3     1.607281330882   119.99997478   180.00000000
 C      7   5   3     2.644487500858   120.00002506     0.00000000
 H      9   7   5     1.607281397605   120.00004878   180.00000000
 C      9   7   5     2.644488119192   120.00000373     0.00000000
 H     11   9   7     1.607281201032   120.00006805   180.00000000

---------------------
BASIS SET INFORMATION
---------------------
There are 2 groups of distinct atoms

 Group   1 Type C   : 10s4p1d contracted to 3s2p1d pattern {631/31/1}
 Group   2 Type H   : 4s contracted to 2s pattern {31}

Atom   0C    basis set group =>   1
Atom   1H    basis set group =>   2
Atom   2C    basis set group =>   1
Atom   3H    basis set group =>   2
Atom   4C    basis set group =>   1
Atom   5H    basis set group =>   2
Atom   6C    basis set group =>   1
Atom   7H    basis set group =>   2
Atom   8C    basis set group =>   1
Atom   9H    basis set group =>   2
Atom  10C    basis set group =>   1
Atom  11H    basis set group =>   2
------------------------------------------------------------------------------
                           ORCA GTO INTEGRAL CALCULATION
------------------------------------------------------------------------------

                         BASIS SET STATISTICS AND STARTUP INFO

 # of primitive gaussian shells          ...  114
 # of primitive gaussian functions       ...  186
 # of contracted shells                  ...   48
 # of contracted basis functions         ...   96
 Highest angular momentum                ...    2
 Maximum contraction depth               ...    6
 Integral package used                   ... LIBINT
 Integral threshhold            Thresh   ...  1.000e-10
 Primitive cut-off              TCut     ...  1.000e-11


------------------------------ INTEGRAL EVALUATION ----------------------------


 * One electron integrals 
 Pre-screening matrix                    ... done
 Shell pair data                         ... done (   0.001 sec)

-------------------------------------------------------------------------------
                                 ORCA SCF
-------------------------------------------------------------------------------

------------
SCF SETTINGS
------------
Hamiltonian:
 Density Functional     Method          .... DFT(GTOs)
 Exchange Functional    Exchange        .... WB97X-D3
 Correlation Functional Correlation     .... WB97X-D3
 Gradients option       PostSCFGGA      .... off
 Hybrid DFT is turned on
   Fraction HF Exchange ScalHFX         ....  0.195728
   Scaling of DF-GGA-X  ScalDFX         ....  0.000000
   Scaling of DF-GGA-C  ScalDFC         ....  1.000000
   Scaling of DF-LDA-C  ScalLDAC        ....  1.000000
   Perturbative correction              ....  0.000000
 Long-range corrected/Screened/Range-Separated Hybrid DFT is turned on
   Amount of maximum screened exact exchange              ....  0.804272
   Range separation parameter mu (erf(mu*r12)/r12)        ....  0.250000


General Settings:
 Integral files         IntName         .... Scan_1
 Hartree-Fock type      HFTyp           .... RHF
 Total Charge           Charge          ....    0
 Multiplicity           Mult            ....    1
 Number of Electrons    NEL             ....   42
 Basis Dimension        Dim             ....   96
 Nuclear Repulsion      ENuc            ....    210.7643798288 Eh

Convergence Acceleration:
 DIIS                   CNVDIIS         .... on
   Start iteration      DIISMaxIt       ....     0
   Startup error        DIISStart       ....  0.200000
   # of expansion vecs  DIISMaxEq       ....     5
   Bias factor          DIISBfac        ....   1.050
   Max. coefficient     DIISMaxC        ....  10.000
 Newton-Raphson         CNVNR           .... off
 SOSCF                  CNVSOSCF        .... off
 Level Shifting         CNVShift        .... off
 Zerner damping         CNVZerner       .... off
 Static damping         CNVDamp         .... off
 Fernandez-Rico         CNVRico         .... off

SCF Procedure:
 Maximum # iterations   MaxIter         ....   999
 SCF integral mode      SCFMode         .... Direct
   Integral package                     .... LIBINT
 Reset frequeny         DirectResetFreq ....    20
 Integral Threshold     Thresh          ....  1.000e-10 Eh
 Primitive CutOff       TCut            ....  1.000e-11 Eh

Convergence Tolerance:
 Convergence Check Mode ConvCheckMode   .... All-Criteria
 Convergence forced     ConvForced      .... 0
 Energy Change          TolE            ....  1.000e-06 Eh
 Max Density Change     TolMaxP         ....  1.000e-05
 RMS Density Change     TolRMSP         ....  1.000e-06
 DIIS Error             TolErr          ....  1.000e-06


Diagonalization of the overlap matrix:
Smallest eigenvalue                        ... 4.860e-04
Time for diagonalization                   ...    0.002 sec
Threshold for overlap eigenvalues          ... 1.000e-08
Number of eigenvalues below threshold      ... 0
Time for construction of square roots      ...    0.006 sec
Total time needed                          ...    0.008 sec

-------------------
DFT GRID GENERATION
-------------------

General Integration Accuracy     IntAcc      ...  4.340
Radial Grid Type                 RadialGrid  ... Gauss-Chebyshev
Angular Grid (max. acc.)         AngularGrid ... Lebedev-110
Angular grid pruning method      GridPruning ... 3 (G Style)
Weight generation scheme         WeightScheme... Becke
Basis function cutoff            BFCut       ...    1.0000e-10
Integration weight cutoff        WCut        ...    1.0000e-14
Grids for H and He will be reduced by one unit

# of grid points (after initial pruning)     ...  14700 (   0.0 sec)
# of grid points (after weights+screening)   ...  13716 (   0.0 sec)
nearest neighbour list constructed           ...    0.0 sec
Grid point re-assignment to atoms done       ...    0.0 sec
Grid point division into batches done        ...    0.0 sec
Reduced shell lists constructed in    0.2 sec

Total number of grid points                  ...    13716
Total number of batches                      ...      222
Average number of points per batch           ...       61
Average number of grid points per atom       ...     1143
Average number of shells per batch           ...    38.08 (79.33%)
Average number of basis functions per batch  ...    78.57 (81.84%)
Average number of large shells per batch     ...    31.75 (83.38%)
Average number of large basis fcns per batch ...    65.46 (83.32%)
Maximum spatial batch extension              ...  17.68, 20.30, 25.60 au
Average spatial batch extension              ...   3.54,  3.90,  5.06 au

Time for grid setup =    0.241 sec

------------------------------
INITIAL GUESS: MODEL POTENTIAL
------------------------------
Loading Hartree-Fock densities                     ... done
Calculating cut-offs                               ... done
Setting up the integral package                    ... done
Initializing the effective Hamiltonian             ... done
Starting the Coulomb interaction                   ... done (   0.1 sec)
Reading the grid                                   ... done
Mapping shells                                     ... done
Starting the XC term evaluation                    ... done (   0.2 sec)
  promolecular density results
     # of electrons  =     42.010205149
     EX              =    -32.682229704
     EC              =     -1.390360264
     EX+EC           =    -34.072589968
Transforming the Hamiltonian                       ... done (   0.0 sec)
Diagonalizing the Hamiltonian                      ... done (   0.0 sec)
Back transforming the eigenvectors                 ... done (   0.0 sec)
Now organizing SCF variables                       ... done
                      ------------------
                      INITIAL GUESS DONE (   0.7 sec)
                      ------------------
--------------
SCF ITERATIONS
--------------
ITER       Energy         Delta-E        Max-DP      RMS-DP      [F,P]   Gradient Norm
               ***  Starting incremental Fock matrix formation  ***
                             ****Resetting KDIIS****
                             ****Turning on KDIIS(Cayley)****
  0   -231.6666631149   0.000000000000 0.01501654  0.00112919  0.1008290   0.075261137
  1   -231.7031946318  -0.036531516909 0.01724285  0.00141048  0.0877883   0.065104019
  2   -231.7411757485  -0.037981116727 0.02792372  0.00219644  0.0716114   0.052840550
  3   -231.7866425324  -0.045466783894 0.04135772  0.00318761  0.0437817   0.032229564
  4   -231.8131522710  -0.026509738616 0.00138064  0.00014161  0.0009606   0.000692373
  5   -231.8131686586  -0.000016387553 0.00065255  0.00003848  0.0001706   0.000175236
                          ***Energy convergence achieved***
  6   -231.8131688971  -0.000000238541 0.00019965  0.00001881  0.0001506   0.000141774

            ***Energy convergence in two consecutive cycles with***
                    ***'reasonable' density convergence***
                       *** signaling convergence ***

                    *** KDIIS BlockDiag ( 0.001 sec) ***

               *****************************************************
               *                     SUCCESS                       *
               *           SCF CONVERGED AFTER   7 CYCLES          *
               *****************************************************

Setting up the final grid:

General Integration Accuracy     IntAcc      ...  4.670
Radial Grid Type                 RadialGrid  ... Gauss-Chebyshev
Angular Grid (max. acc.)         AngularGrid ... Lebedev-302
Angular grid pruning method      GridPruning ... 3 (G Style)
Weight generation scheme         WeightScheme... Becke
Basis function cutoff            BFCut       ...    1.0000e-10
Integration weight cutoff        WCut        ...    1.0000e-14
Grids for H and He will be reduced by one unit

# of grid points (after initial pruning)     ...  57636 (   0.0 sec)
# of grid points (after weights+screening)   ...  53196 (   0.1 sec)
nearest neighbour list constructed           ...    0.0 sec
Grid point re-assignment to atoms done       ...    0.0 sec
Grid point division into batches done        ...    0.2 sec
Reduced shell lists constructed in    0.8 sec

Total number of grid points                  ...    53196
Total number of batches                      ...      836
Average number of points per batch           ...       63
Average number of grid points per atom       ...     4433
Average number of shells per batch           ...    34.87 (72.65%)
Average number of basis functions per batch  ...    71.97 (74.97%)
Average number of large shells per batch     ...    28.44 (81.56%)
Average number of large basis fcns per batch ...    58.25 (80.95%)
Maximum spatial batch extension              ...  16.73, 17.72, 23.04 au
Average spatial batch extension              ...   2.50,  2.58,  3.00 au

Final grid set up in    0.9 sec
Final integration                            ... done (   0.9 sec)
Change in XC energy                          ...     0.001475582
Integrated number of electrons               ...    41.999888733
Previous integrated no of electrons          ...    42.009379816

----------------
TOTAL SCF ENERGY
----------------

Total Energy       :         -231.81169388 Eh           -6307.91688 eV

Components:
Nuclear Repulsion  :          210.76437983 Eh            5735.19035 eV
Electronic Energy  :         -442.57607371 Eh          -12043.10723 eV
One Electron Energy:         -727.61593138 Eh          -19799.43608 eV
Two Electron Energy:          285.03985767 Eh            7756.32885 eV

Virial components:
Potential Energy   :         -465.14847671 Eh          -12657.33354 eV
Kinetic Energy     :          233.33678283 Eh            6349.41666 eV
Virial Ratio       :            1.99346400


DFT components:
N(Alpha)           :       20.999944366524 electrons
N(Beta)            :       20.999944366524 electrons
N(Total)           :       41.999888733048 electrons
E(XC)              :      -24.222129103943 Eh       

---------------
SCF CONVERGENCE
---------------

  Last Energy change         ...   -5.6601e-07  Tolerance :   1.0000e-06
  Last MAX-Density change    ...    8.3918e-05  Tolerance :   1.0000e-05
  Last RMS-Density change    ...    6.6276e-06  Tolerance :   1.0000e-06
  Last DIIS Error            ...    2.5800e-05  Tolerance :   1.0000e-06

             **** THE GBW FILE WAS UPDATED (Scan_1.gbw) ****
             **** DENSITY FILE WAS UPDATED (Scan_1.scfp.tmp) ****
             **** ENERGY FILE WAS UPDATED (Scan_1.en.tmp) ****
----------------
ORBITAL ENERGIES
----------------

  NO   OCC          E(Eh)            E(eV) 
   0   2.0000     -10.253922      -279.0234 
   1   2.0000     -10.253801      -279.0201 
   2   2.0000     -10.253628      -279.0154 
   3   2.0000     -10.253297      -279.0064 
   4   2.0000     -10.253159      -279.0026 
   5   2.0000     -10.253025      -278.9990 
   6   2.0000      -0.968371       -26.3507 
   7   2.0000      -0.877183       -23.8694 
   8   2.0000      -0.877123       -23.8677 
   9   2.0000      -0.746740       -20.3198 
  10   2.0000      -0.746647       -20.3173 
  11   2.0000      -0.666703       -18.1419 
  12   2.0000      -0.635832       -17.3019 
  13   2.0000      -0.540415       -14.7055 
  14   2.0000      -0.540207       -14.6998 
  15   2.0000      -0.531038       -14.4503 
  16   2.0000      -0.456444       -12.4205 
  17   2.0000      -0.449195       -12.2232 
  18   2.0000      -0.448866       -12.2143 
  19   2.0000      -0.326197        -8.8763 
  20   2.0000      -0.326129        -8.8744 
  21   0.0000       0.083096         2.2611 
  22   0.0000       0.083312         2.2670 
  23   0.0000       0.258405         7.0316 
  24   0.0000       0.259778         7.0689 
  25   0.0000       0.293112         7.9760 
  26   0.0000       0.293708         7.9922 
  27   0.0000       0.311055         8.4642 
  28   0.0000       0.311212         8.4685 
  29   0.0000       0.349090         9.4992 
  30   0.0000       0.412893        11.2354 
  31   0.0000       0.412931        11.2364 
  32   0.0000       0.419113        11.4046 
  33   0.0000       0.419599        11.4179 
  34   0.0000       0.584758        15.9121 
  35   0.0000       0.632209        17.2033 
  36   0.0000       0.634919        17.2770 
  37   0.0000       0.665484        18.1087 
  38   0.0000       0.675865        18.3912 
  39   0.0000       0.699773        19.0418 
  40   0.0000       0.712020        19.3750 
  41   0.0000       0.712549        19.3894 
  42   0.0000       0.724909        19.7258 
  43   0.0000       0.725217        19.7342 
  44   0.0000       0.753568        20.5056 
  45   0.0000       0.753982        20.5169 
  46   0.0000       0.781688        21.2708 
  47   0.0000       0.781847        21.2751 
  48   0.0000       0.863592        23.4995 
  49   0.0000       1.027856        27.9694 
  50   0.0000       1.031273        28.0624 
  51   0.0000       1.031850        28.0781 
  52   0.0000       1.093471        29.7548 
  53   0.0000       1.123987        30.5852 
  54   0.0000       1.124494        30.5990 
  55   0.0000       1.157590        31.4996 
  56   0.0000       1.158213        31.5166 
  57   0.0000       1.164939        31.6996 
  58   0.0000       1.166019        31.7290 
  59   0.0000       1.271527        34.6000 
  60   0.0000       1.286511        35.0078 
  61   0.0000       1.287690        35.0398 
  62   0.0000       1.362528        37.0763 
  63   0.0000       1.399661        38.0867 
  64   0.0000       1.469690        39.9923 
  65   0.0000       1.579279        42.9744 
  66   0.0000       1.579458        42.9792 
  67   0.0000       1.588922        43.2368 
  68   0.0000       1.589299        43.2470 
  69   0.0000       1.716200        46.7002 
  70   0.0000       1.716660        46.7127 
  71   0.0000       1.874559        51.0093 
  72   0.0000       1.881600        51.2009 
  73   0.0000       2.191547        59.6350 
  74   0.0000       2.192112        59.6504 
  75   0.0000       2.216959        60.3265 
  76   0.0000       2.231315        60.7172 
  77   0.0000       2.231673        60.7269 
  78   0.0000       2.247477        61.1569 
  79   0.0000       2.248544        61.1860 
  80   0.0000       2.320129        63.1339 
  81   0.0000       2.392690        65.1084 
  82   0.0000       2.405581        65.4592 
  83   0.0000       2.405902        65.4679 
  84   0.0000       2.454239        66.7832 
  85   0.0000       2.455130        66.8075 
  86   0.0000       2.697869        73.4127 
  87   0.0000       2.697971        73.4155 
  88   0.0000       2.749491        74.8174 
  89   0.0000       2.809896        76.4612 
  90   0.0000       2.811486        76.5044 
  91   0.0000       2.965268        80.6890 
  92   0.0000       3.054555        83.1187 
  93   0.0000       3.055058        83.1323 
  94   0.0000       3.098441        84.3129 
  95   0.0000       3.781485       102.8994 

                    ********************************
                    * MULLIKEN POPULATION ANALYSIS *
                    ********************************

-----------------------
MULLIKEN ATOMIC CHARGES
-----------------------
   0 C :   -0.114095
   1 H :    0.113415
   2 C :   -0.109251
   3 H :    0.111155
   4 C :   -0.111083
   5 H :    0.109860
   6 C :   -0.114095
   7 H :    0.113415
   8 C :   -0.109251
   9 H :    0.111155
  10 C :   -0.111083
  11 H :    0.109860
Sum of atomic charges:   -0.0000000

--------------------------------
MULLIKEN REDUCED ORBITAL CHARGES
--------------------------------
  0 C s       :     3.138965  s :     3.138965
      pz      :     0.993068  p :     2.938102
      px      :     0.973998
      py      :     0.971037
      dz2     :     0.003896  d :     0.037028
      dxz     :     0.001094
      dyz     :     0.006340
      dx2y2   :     0.018093
      dxy     :     0.007605
  1 H s       :     0.886585  s :     0.886585
  2 C s       :     3.136817  s :     3.136817
      pz      :     0.992201  p :     2.935467
      px      :     0.971934
      py      :     0.971332
      dz2     :     0.003854  d :     0.036967
      dxz     :     0.004687
      dyz     :     0.002749
      dx2y2   :     0.008829
      dxy     :     0.016848
  3 H s       :     0.888845  s :     0.888845
  4 C s       :     3.137182  s :     3.137182
      pz      :     0.992430  p :     2.936919
      px      :     0.972167
      py      :     0.972322
      dz2     :     0.003870  d :     0.036982
      dxz     :     0.005388
      dyz     :     0.002043
      dx2y2   :     0.011668
      dxy     :     0.014013
  5 H s       :     0.890140  s :     0.890140
  6 C s       :     3.138965  s :     3.138965
      pz      :     0.993068  p :     2.938103
      px      :     0.973998
      py      :     0.971036
      dz2     :     0.003896  d :     0.037028
      dxz     :     0.001094
      dyz     :     0.006340
      dx2y2   :     0.018093
      dxy     :     0.007605
  7 H s       :     0.886585  s :     0.886585
  8 C s       :     3.136817  s :     3.136817
      pz      :     0.992201  p :     2.935467
      px      :     0.971934
      py      :     0.971332
      dz2     :     0.003854  d :     0.036967
      dxz     :     0.004687
      dyz     :     0.002749
      dx2y2   :     0.008829
      dxy     :     0.016848
  9 H s       :     0.888845  s :     0.888845
 10 C s       :     3.137182  s :     3.137182
      pz      :     0.992430  p :     2.936920
      px      :     0.972167
      py      :     0.972322
      dz2     :     0.003870  d :     0.036982
      dxz     :     0.005388
      dyz     :     0.002043
      dx2y2   :     0.011668
      dxy     :     0.014013
 11 H s       :     0.890140  s :     0.890140


                     *******************************
                     * LOEWDIN POPULATION ANALYSIS *
                     *******************************

----------------------
LOEWDIN ATOMIC CHARGES
----------------------
   0 C :   -0.133919
   1 H :    0.133787
   2 C :   -0.132896
   3 H :    0.133222
   4 C :   -0.133044
   5 H :    0.132849
   6 C :   -0.133919
   7 H :    0.133787
   8 C :   -0.132896
   9 H :    0.133222
  10 C :   -0.133044
  11 H :    0.132848

-------------------------------
LOEWDIN REDUCED ORBITAL CHARGES
-------------------------------
  0 C s       :     2.875348  s :     2.875348
      pz      :     0.984398  p :     3.171275
      px      :     1.114160
      py      :     1.072717
      dz2     :     0.006781  d :     0.087296
      dxz     :     0.002423
      dyz     :     0.013358
      dx2y2   :     0.040477
      dxy     :     0.024257
  1 H s       :     0.866213  s :     0.866213
  2 C s       :     2.875197  s :     2.875197
      pz      :     0.984059  p :     3.170363
      px      :     1.085709
      py      :     1.100595
      dz2     :     0.006762  d :     0.087335
      dxz     :     0.009904
      dyz     :     0.005890
      dx2y2   :     0.026144
      dxy     :     0.038635
  3 H s       :     0.866778  s :     0.866778
  4 C s       :     2.875033  s :     2.875033
      pz      :     0.984180  p :     3.170694
      px      :     1.080640
      py      :     1.105874
      dz2     :     0.006772  d :     0.087317
      dxz     :     0.011362
      dyz     :     0.004425
      dx2y2   :     0.030554
      dxy     :     0.034204
  5 H s       :     0.867151  s :     0.867151
  6 C s       :     2.875347  s :     2.875347
      pz      :     0.984398  p :     3.171275
      px      :     1.114160
      py      :     1.072717
      dz2     :     0.006781  d :     0.087296
      dxz     :     0.002423
      dyz     :     0.013358
      dx2y2   :     0.040477
      dxy     :     0.024257
  7 H s       :     0.866213  s :     0.866213
  8 C s       :     2.875197  s :     2.875197
      pz      :     0.984059  p :     3.170363
      px      :     1.085709
      py      :     1.100595
      dz2     :     0.006762  d :     0.087335
      dxz     :     0.009904
      dyz     :     0.005890
      dx2y2   :     0.026144
      dxy     :     0.038635
  9 H s       :     0.866778  s :     0.866778
 10 C s       :     2.875033  s :     2.875033
      pz      :     0.984180  p :     3.170694
      px      :     1.080640
      py      :     1.105874
      dz2     :     0.006772  d :     0.087317
      dxz     :     0.011362
      dyz     :     0.004425
      dx2y2   :     0.030554
      dxy     :     0.034205
 11 H s       :     0.867152  s :     0.867152


                      *****************************
                      * MAYER POPULATION ANALYSIS *
                      *****************************

  NA   - Mulliken gross atomic population
  ZA   - Total nuclear charge
  QA   - Mulliken gross atomic charge
  VA   - Mayer's total valence
  BVA  - Mayer's bonded valence
  FA   - Mayer's free valence

  ATOM       NA         ZA         QA         VA         BVA        FA
  0 C      6.1141     6.0000    -0.1141     3.9801     3.9801    -0.0000
  1 H      0.8866     1.0000     0.1134     0.9168     0.9168     0.0000
  2 C      6.1093     6.0000    -0.1093     3.9813     3.9813     0.0000
  3 H      0.8888     1.0000     0.1112     0.9172     0.9172    -0.0000
  4 C      6.1111     6.0000    -0.1111     3.9832     3.9832     0.0000
  5 H      0.8901     1.0000     0.1099     0.9176     0.9176     0.0000
  6 C      6.1141     6.0000    -0.1141     3.9801     3.9801     0.0000
  7 H      0.8866     1.0000     0.1134     0.9168     0.9168    -0.0000
  8 C      6.1093     6.0000    -0.1093     3.9813     3.9813    -0.0000
  9 H      0.8888     1.0000     0.1112     0.9172     0.9172     0.0000
 10 C      6.1111     6.0000    -0.1111     3.9832     3.9832    -0.0000
 11 H      0.8901     1.0000     0.1099     0.9176     0.9176    -0.0000

  Mayer bond orders larger than 0.1
B(  0-C ,  1-H ) :   0.9484 B(  0-C ,  2-C ) :   1.4729 B(  0-C , 10-C ) :   1.4741 
B(  2-C ,  3-H ) :   0.9484 B(  2-C ,  4-C ) :   1.4754 B(  4-C ,  5-H ) :   0.9487 
B(  4-C ,  6-C ) :   1.4741 B(  6-C ,  7-H ) :   0.9484 B(  6-C ,  8-C ) :   1.4729 
B(  8-C ,  9-H ) :   0.9484 B(  8-C , 10-C ) :   1.4754 B( 10-C , 11-H ) :   0.9487 


-------
TIMINGS
-------

Total SCF time: 0 days 0 hours 0 min 37 sec 

Total time                  ....      37.193 sec
Sum of individual times     ....      37.058 sec  ( 99.6%)

Fock matrix formation       ....      35.426 sec  ( 95.2%)
  XC integration            ....       2.868 sec  (  8.1% of F)
    Basis function eval.    ....       1.480 sec  ( 51.6% of XC)
    Density eval.           ....       0.243 sec  (  8.5% of XC)
    XC-Functional eval.     ....       0.490 sec  ( 17.1% of XC)
    XC-Potential eval.      ....       0.405 sec  ( 14.1% of XC)
Diagonalization             ....       0.023 sec  (  0.1%)
Density matrix formation    ....       0.001 sec  (  0.0%)
Population analysis         ....       0.012 sec  (  0.0%)
Initial guess               ....       0.437 sec  (  1.2%)
Orbital Transformation      ....       0.000 sec  (  0.0%)
Orbital Orthonormalization  ....       0.000 sec  (  0.0%)
DIIS solution               ....       0.000 sec  (  0.0%)
Grid generation             ....       1.158 sec  (  3.1%)


-------------------------------------------------------------------------------
                          DFT DISPERSION CORRECTION                            
                                                                               
                              DFTD3 V3.1  Rev 1                                
                              USING zero damping                               
-------------------------------------------------------------------------------
The omegaB97X-D3 functional is recognized. Fit by Chai et al.
Active option DFTDOPT                   ...         3   

molecular C6(AA) [au] = 1655.170176 


            DFT-D V3
 parameters
 s6 scaling factor         :     1.0000 
 rs6 scaling factor        :     1.2810 
 s8 scaling factor         :     1.0000 
 rs8 scaling factor        :     1.0940 
 Damping factor alpha6     :    14.0000 
 Damping factor alpha8     :    16.0000 
 ad hoc parameters k1-k3   :    16.0000     1.3333    -4.0000 

 Edisp/kcal,au: -1.387713569910  -0.002211462104 
 E6   /kcal   :  -0.535079241 
 E8   /kcal   :  -0.852634329 
 % E8         :  61.441665424 

-------------------------   ----------------
Dispersion correction           -0.002211462
-------------------------   ----------------


-------------------------   --------------------
FINAL SINGLE POINT ENERGY      -231.813905343197
-------------------------   --------------------


                            ***************************************
                            *     ORCA property calculations      *
                            ***************************************

                                    ---------------------
                                    Active property flags
                                    ---------------------
   (+) Dipole Moment


------------------------------------------------------------------------------
                       ORCA ELECTRIC PROPERTIES CALCULATION
------------------------------------------------------------------------------

Dipole Moment Calculation                       ... on
Quadrupole Moment Calculation                   ... off
Polarizability Calculation                      ... off
GBWName                                         ... Scan_1.gbw
Electron density file                           ... Scan_1.scfp.tmp

-------------
DIPOLE MOMENT
-------------
                                X             Y             Z
Electronic contribution:     -0.00000      -0.00000      -0.00000
Nuclear contribution   :      0.00000       0.00000       0.00000
                        -----------------------------------------
Total Dipole Moment    :     -0.00000       0.00000      -0.00000
                        -----------------------------------------
Magnitude (a.u.)       :      0.00000
Magnitude (Debye)      :      0.00000


Timings for individual modules:

Sum of individual times         ...       37.648 sec (=   0.627 min)
GTO integral calculation        ...        0.429 sec (=   0.007 min)   1.1 %
SCF iterations                  ...       37.219 sec (=   0.620 min)  98.9 %
                             ****ORCA TERMINATED NORMALLY****
TOTAL RUN TIME: 0 days 0 hours 0 minutes 38 seconds 32 msec
