
                                 *****************
                                 * O   R   C   A *
                                 *****************

           --- An Ab Initio, DFT and Semiempirical electronic structure package ---

                  #######################################################
                  #                        -***-                        #
                  #  Department of molecular theory and spectroscopy    #
                  #              Directorship: Frank Neese              #
                  # Max Planck Institute for Chemical Energy Conversion #
                  #                  D-45470 Muelheim/Ruhr              #
                  #                       Germany                       #
                  #                                                     #
                  #                  All rights reserved                #
                  #                        -***-                        #
                  #######################################################


                         Program Version 4.0.0.2 - RELEASE -


 With contributions from (in alphabetic order):
   Daniel Aravena         : Magnetic Properties
   Michael Atanasov       : Ab Initio Ligand Field Theory
   Ute Becker             : Parallelization
   Martin Brehm           : Molecular dynamics
   Dmytro Bykov           : SCF Hessian
   Vijay G. Chilkuri      : MRCI spin determinant printing
   Dipayan Datta          : RHF DLPNO-CCSD density
   Achintya Kumar Dutta   : EOM-CC, STEOM-CC
   Dmitry Ganyushin       : Spin-Orbit,Spin-Spin,Magnetic field MRCI
   Yang Guo               : DLPNO-NEVPT2, CIM, IAO-localization
   Andreas Hansen         : Spin unrestricted coupled pair/coupled cluster methods
   Lee Huntington         : MR-EOM, pCC
   Robert Izsak           : Overlap fitted RIJCOSX, COSX-SCS-MP3, EOM
   Christian Kollmar      : KDIIS, OOCD, Brueckner-CCSD(T), CCSD density
   Simone Kossmann        : Meta GGA functionals, TD-DFT gradient, OOMP2, MP2 Hessian
   Martin Krupicka        : AUTO-CI
   Dagmar Lenk            : GEPOL surface
   Dimitrios Liakos       : Extrapolation schemes; parallel MDCI
   Dimitrios Manganas     : ROCIS; embedding schemes
   Dimitrios Pantazis     : SARC Basis sets
   Taras Petrenko         : DFT Hessian,TD-DFT gradient, ASA, ECA, R-Raman, ABS, FL, XAS/XES, NRVS
   Peter Pinski           : DLPNO-MP2
   Christoph Reimann      : Effective Core Potentials
   Marius Retegan         : Local ZFS, SOC
   Christoph Riplinger    : Optimizer, TS searches, QM/MM, DLPNO-CCSD(T), (RO)-DLPNO pert. Triples
   Tobias Risthaus        : Range-separated hybrids, TD-DFT gradient, RPA, STAB
   Michael Roemelt        : Restricted open shell CIS
   Masaaki Saitow         : Open-shell DLPNO
   Barbara Sandhoefer     : DKH picture change effects
   Kantharuban Sivalingam : CASSCF convergence, NEVPT2, FIC-MRCI
   Georgi Stoychev        : AutoAux
   Boris Wezisla          : Elementary symmetry handling
   Frank Wennmohs         : Technical directorship


 We gratefully acknowledge several colleagues who have allowed us to
 interface, adapt or use parts of their codes:
   Stefan Grimme, W. Hujo, H. Kruse,             : VdW corrections, initial TS optimization,
                  C. Bannwarth                     DFT functionals, gCP, sTDA/sTD-DF
   Ed Valeev                                     : LibInt (2-el integral package), F12 methods
   Garnet Chan, S. Sharma, J. Yang, R. Olivares  : DMRG
   Ulf Ekstrom                                   : XCFun DFT Library
   Mihaly Kallay                                 : mrcc  (arbitrary order and MRCC methods)
   Jiri Pittner, Ondrej Demel                    : Mk-CCSD
   Frank Weinhold                                : gennbo (NPA and NBO analysis)
   Christopher J. Cramer and Donald G. Truhlar   : smd solvation model


 Your calculation uses the libint2 library for the computation of 2-el integrals
 For citations please refer to: http://libint.valeyev.net

 This ORCA versions uses:
   CBLAS   interface :  Fast vector & matrix operations
   LAPACKE interface :  Fast linear algebra routines
   SCALAPACK package :  Parallel linear algebra routines


Your calculation utilizes the atom-pairwise dispersion correction
with the zero-damping scheme (D30)
Cite in your paper:
S.Grimme, J.Antony, S.Ehrlich and H.Krieg, J.Chem.Phys., 132, (2010), 154104 
   

XCFun DFT library Copyright 2009-2010 Ulf Ekstrom and contributors.
See http://admol.org/xcfun for more information. This is free soft-
ware; see the source code for copying conditions. There is ABSOLUTELY
NO WARRANTY; not even for MERCHANTABILITY or FITNESS FOR A PARTICULAR
PURPOSE. For details see the documentation. Scientific users of this 
library should cite U. Ekstrom, L. Visscher, R. Bast, A. J. Thorvald-
sen and K. Ruud; J.Chem.Theor.Comp. 2010, DOI: 10.1021/ct100117s
XCFun Version 0.99 
Your calculation utilizes the basis: 6-31G(d)
   H-He, Li-Ne : W. J. Hehre, R. Ditchfield and J.A. Pople, J. Chem. Phys. 56, 2257 (1972).
                 Note: He and Ne are unpublished basis sets taken from the Gaussian program.
                 Note: Li and B from J. D. Dill and J. A. Pople, J. Chem. Phys. 62, 2921 (1975).
   Na - Ar     : M. M. Francl, W. J. Pietro, W. J. Hehre, J. S. Binkley, M. S. Gordon, 
                 D. J. DeFrees and J. A. Pople, J. Chem. Phys. 77, 3654 (1982).
   K - Zn      : V. A. Rassolov, J. A. Pople, M. A. Ratner, and T. L. Windus, J. Chem. Phys. 109, 1223 (1998).

================================================================================
                                        WARNINGS
                       Please study these warnings very carefully!
================================================================================

Warning: TCutStore was < 0. Adjusted to Thresh (uncritical)

INFO   : the flag for use of LIBINT has been found!

================================================================================
                                       INPUT FILE
================================================================================
NAME = initial11.inp
|  1> ! WB97X-D3 6-31G(d) VerySlowConv
|  2> ! KDIIS NOSOSCF
|  3> %base "Scan_11"
|  4> 
|  5> %scf
|  6> maxiter 999
|  7> end
|  8> 
|  9> * xyz 0 1
| 10> C          1.496485164086   -2.847630682125   -0.000000289113
| 11> H          2.928495852902   -2.957259741461    0.000000368182
| 12> C          0.903789609634   -1.611808779344   -0.000000703184
| 13> H          1.714736388120   -0.426465596941    0.000000808611
| 14> C         -0.462811372268   -1.507187197091   -0.000000196125
| 15> H         -1.083875310779   -0.212215111880   -0.000000176267
| 16> C         -1.236716827308   -2.638387628597   -0.000000392950
| 17> H         -2.668727506397   -2.528758618605    0.000000409084
| 18> C         -0.644021188552   -3.874209612684   -0.000000296772
| 19> H         -1.454968147257   -5.059552661248    0.000000607521
| 20> C          0.722579821613   -3.978831081273    0.000000291815
| 21> H          1.343643516203   -5.273803288751   -0.000000430802
| 22> **                         ****END OF INPUT****
================================================================================

                       ****************************
                       * Single Point Calculation *
                       ****************************

---------------------------------
CARTESIAN COORDINATES (ANGSTROEM)
---------------------------------
  C      1.496485   -2.847631   -0.000000
  H      2.928496   -2.957260    0.000000
  C      0.903790   -1.611809   -0.000001
  H      1.714736   -0.426466    0.000001
  C     -0.462811   -1.507187   -0.000000
  H     -1.083875   -0.212215   -0.000000
  C     -1.236717   -2.638388   -0.000000
  H     -2.668728   -2.528759    0.000000
  C     -0.644021   -3.874210   -0.000000
  H     -1.454968   -5.059553    0.000001
  C      0.722580   -3.978831    0.000000
  H      1.343644   -5.273803   -0.000000

----------------------------
CARTESIAN COORDINATES (A.U.)
----------------------------
  NO LB      ZA    FRAG     MASS         X           Y           Z
   0 C     6.0000    0    12.011    2.827947   -5.381242   -0.000001
   1 H     1.0000    0     1.008    5.534055   -5.588411    0.000001
   2 C     6.0000    0    12.011    1.707915   -3.045877   -0.000001
   3 H     1.0000    0     1.008    3.240382   -0.805903    0.000002
   4 C     6.0000    0    12.011   -0.874587   -2.848171   -0.000000
   5 H     1.0000    0     1.008   -2.048228   -0.401028   -0.000000
   6 C     6.0000    0    12.011   -2.337056   -4.985830   -0.000001
   7 H     1.0000    0     1.008   -5.043164   -4.778661    0.000001
   8 C     6.0000    0    12.011   -1.217024   -7.321195   -0.000001
   9 H     1.0000    0     1.008   -2.749491   -9.561169    0.000001
  10 C     6.0000    0    12.011    1.365478   -7.518901    0.000001
  11 H     1.0000    0     1.008    2.539118   -9.966044   -0.000001

--------------------------------
INTERNAL COORDINATES (ANGSTROEM)
--------------------------------
 C      0   0   0     0.000000000000     0.00000000     0.00000000
 H      1   0   0     1.436200941211     0.00000000     0.00000000
 C      1   2   0     1.370599794127   120.00000016     0.00000000
 H      3   1   2     1.436200939148   120.00000541     0.00000000
 C      3   1   2     1.370599839198   120.00000144   180.00005475
 H      5   3   1     1.436200932041   120.00000785   179.99997909
 C      5   3   1     1.370599894054   119.99999925     0.00000000
 H      7   5   3     1.436200927746   120.00000246   179.99998754
 C      7   5   3     1.370599903894   119.99999761     0.00000000
 H      9   7   5     1.436200930446   119.99999475   179.99994882
 C      1   2   3     1.370599803787   119.99999740   180.00003832
 H     11   1   2     1.436200936805   120.00000691     0.00000000

---------------------------
INTERNAL COORDINATES (A.U.)
---------------------------
 C      0   0   0     0.000000000000     0.00000000     0.00000000
 H      1   0   0     2.714026452168     0.00000000     0.00000000
 C      1   2   0     2.590058250109   120.00000016     0.00000000
 H      3   1   2     2.714026448269   120.00000541     0.00000000
 C      3   1   2     2.590058335280   120.00000144   180.00005475
 H      5   3   1     2.714026434839   120.00000785   179.99997909
 C      5   3   1     2.590058438943   119.99999925     0.00000000
 H      7   5   3     2.714026426723   120.00000246   179.99998754
 C      7   5   3     2.590058457538   119.99999761     0.00000000
 H      9   7   5     2.714026431825   119.99999475   179.99994882
 C      1   2   3     2.590058268364   119.99999740   180.00003832
 H     11   1   2     2.714026443842   120.00000691     0.00000000

---------------------
BASIS SET INFORMATION
---------------------
There are 2 groups of distinct atoms

 Group   1 Type C   : 10s4p1d contracted to 3s2p1d pattern {631/31/1}
 Group   2 Type H   : 4s contracted to 2s pattern {31}

Atom   0C    basis set group =>   1
Atom   1H    basis set group =>   2
Atom   2C    basis set group =>   1
Atom   3H    basis set group =>   2
Atom   4C    basis set group =>   1
Atom   5H    basis set group =>   2
Atom   6C    basis set group =>   1
Atom   7H    basis set group =>   2
Atom   8C    basis set group =>   1
Atom   9H    basis set group =>   2
Atom  10C    basis set group =>   1
Atom  11H    basis set group =>   2
------------------------------------------------------------------------------
                           ORCA GTO INTEGRAL CALCULATION
------------------------------------------------------------------------------

                         BASIS SET STATISTICS AND STARTUP INFO

 # of primitive gaussian shells          ...  114
 # of primitive gaussian functions       ...  186
 # of contracted shells                  ...   48
 # of contracted basis functions         ...   96
 Highest angular momentum                ...    2
 Maximum contraction depth               ...    6
 Integral package used                   ... LIBINT
 Integral threshhold            Thresh   ...  1.000e-10
 Primitive cut-off              TCut     ...  1.000e-11


------------------------------ INTEGRAL EVALUATION ----------------------------


 * One electron integrals 
 Pre-screening matrix                    ... done
 Shell pair data                         ... done (   0.001 sec)

-------------------------------------------------------------------------------
                                 ORCA SCF
-------------------------------------------------------------------------------

------------
SCF SETTINGS
------------
Hamiltonian:
 Density Functional     Method          .... DFT(GTOs)
 Exchange Functional    Exchange        .... WB97X-D3
 Correlation Functional Correlation     .... WB97X-D3
 Gradients option       PostSCFGGA      .... off
 Hybrid DFT is turned on
   Fraction HF Exchange ScalHFX         ....  0.195728
   Scaling of DF-GGA-X  ScalDFX         ....  0.000000
   Scaling of DF-GGA-C  ScalDFC         ....  1.000000
   Scaling of DF-LDA-C  ScalLDAC        ....  1.000000
   Perturbative correction              ....  0.000000
 Long-range corrected/Screened/Range-Separated Hybrid DFT is turned on
   Amount of maximum screened exact exchange              ....  0.804272
   Range separation parameter mu (erf(mu*r12)/r12)        ....  0.250000


General Settings:
 Integral files         IntName         .... Scan_11
 Hartree-Fock type      HFTyp           .... RHF
 Total Charge           Charge          ....    0
 Multiplicity           Mult            ....    1
 Number of Electrons    NEL             ....   42
 Basis Dimension        Dim             ....   96
 Nuclear Repulsion      ENuc            ....    198.2883325178 Eh

Convergence Acceleration:
 DIIS                   CNVDIIS         .... on
   Start iteration      DIISMaxIt       ....     0
   Startup error        DIISStart       ....  0.200000
   # of expansion vecs  DIISMaxEq       ....     5
   Bias factor          DIISBfac        ....   1.050
   Max. coefficient     DIISMaxC        ....  10.000
 Newton-Raphson         CNVNR           .... off
 SOSCF                  CNVSOSCF        .... off
 Level Shifting         CNVShift        .... off
 Zerner damping         CNVZerner       .... off
 Static damping         CNVDamp         .... off
 Fernandez-Rico         CNVRico         .... off

SCF Procedure:
 Maximum # iterations   MaxIter         ....   999
 SCF integral mode      SCFMode         .... Direct
   Integral package                     .... LIBINT
 Reset frequeny         DirectResetFreq ....    20
 Integral Threshold     Thresh          ....  1.000e-10 Eh
 Primitive CutOff       TCut            ....  1.000e-11 Eh

Convergence Tolerance:
 Convergence Check Mode ConvCheckMode   .... All-Criteria
 Convergence forced     ConvForced      .... 0
 Energy Change          TolE            ....  1.000e-06 Eh
 Max Density Change     TolMaxP         ....  1.000e-05
 RMS Density Change     TolRMSP         ....  1.000e-06
 DIIS Error             TolErr          ....  1.000e-06


Diagonalization of the overlap matrix:
Smallest eigenvalue                        ... 5.796e-04
Time for diagonalization                   ...    0.003 sec
Threshold for overlap eigenvalues          ... 1.000e-08
Number of eigenvalues below threshold      ... 0
Time for construction of square roots      ...    0.006 sec
Total time needed                          ...    0.008 sec

-------------------
DFT GRID GENERATION
-------------------

General Integration Accuracy     IntAcc      ...  4.340
Radial Grid Type                 RadialGrid  ... Gauss-Chebyshev
Angular Grid (max. acc.)         AngularGrid ... Lebedev-110
Angular grid pruning method      GridPruning ... 3 (G Style)
Weight generation scheme         WeightScheme... Becke
Basis function cutoff            BFCut       ...    1.0000e-10
Integration weight cutoff        WCut        ...    1.0000e-14
Grids for H and He will be reduced by one unit

# of grid points (after initial pruning)     ...  14700 (   0.0 sec)
# of grid points (after weights+screening)   ...  13846 (   0.0 sec)
nearest neighbour list constructed           ...    0.0 sec
Grid point re-assignment to atoms done       ...    0.0 sec
Grid point division into batches done        ...    0.0 sec
Reduced shell lists constructed in    0.2 sec

Total number of grid points                  ...    13846
Total number of batches                      ...      222
Average number of points per batch           ...       62
Average number of grid points per atom       ...     1154
Average number of shells per batch           ...    36.56 (76.16%)
Average number of basis functions per batch  ...    76.21 (79.38%)
Average number of large shells per batch     ...    30.20 (82.61%)
Average number of large basis fcns per batch ...    63.64 (83.51%)
Maximum spatial batch extension              ...  18.47, 19.92, 25.60 au
Average spatial batch extension              ...   3.73,  4.09,  5.18 au

Time for grid setup =    0.263 sec

------------------------------
INITIAL GUESS: MODEL POTENTIAL
------------------------------
Loading Hartree-Fock densities                     ... done
Calculating cut-offs                               ... done
Setting up the integral package                    ... done
Initializing the effective Hamiltonian             ... done
Starting the Coulomb interaction                   ... done (   0.1 sec)
Reading the grid                                   ... done
Mapping shells                                     ... done
Starting the XC term evaluation                    ... done (   0.2 sec)
  promolecular density results
     # of electrons  =     41.993440768
     EX              =    -32.210524126
     EC              =     -1.335239308
     EX+EC           =    -33.545763434
Transforming the Hamiltonian                       ... done (   0.0 sec)
Diagonalizing the Hamiltonian                      ... done (   0.0 sec)
Back transforming the eigenvectors                 ... done (   0.0 sec)
Now organizing SCF variables                       ... done
                      ------------------
                      INITIAL GUESS DONE (   0.7 sec)
                      ------------------
--------------
SCF ITERATIONS
--------------
ITER       Energy         Delta-E        Max-DP      RMS-DP      [F,P]   Gradient Norm
               ***  Starting incremental Fock matrix formation  ***
                             ****Resetting KDIIS****
                             ****Turning on KDIIS(Cayley)****
  0   -231.7271247735   0.000000000000 0.02093637  0.00115770  0.1116075   0.082105271
  1   -231.7897362055  -0.062611432004 0.01533775  0.00097683  0.0900365   0.065896101
  2   -231.8282643586  -0.038528153104 0.02470262  0.00159212  0.0736319   0.053574592
  3   -231.8742390443  -0.045974685738 0.03785312  0.00244048  0.0475429   0.033260249
  4   -231.9031757301  -0.028936685760 0.00245119  0.00027937  0.0040641   0.002085236
  5   -231.9033201941  -0.000144463968 0.00369079  0.00040326  0.0020597   0.000878942
  6   -231.9033132653   0.000006928741 0.00121715  0.00013271  0.0015047   0.001024945
  7   -231.9033478358  -0.000034570460 0.00078728  0.00007990  0.0005419   0.000374260
                           ***RMSP convergence achieved***
                           ***MAXP convergence achieved***
                 *** KDIIS - Everything but energy is converged ***
                 *** Energy is reasonable - Signaling convergence ***
                    *** KDIIS BlockDiag ( 0.002 sec) ***

               *****************************************************
               *                     SUCCESS                       *
               *           SCF CONVERGED AFTER   8 CYCLES          *
               *****************************************************

Setting up the final grid:

General Integration Accuracy     IntAcc      ...  4.670
Radial Grid Type                 RadialGrid  ... Gauss-Chebyshev
Angular Grid (max. acc.)         AngularGrid ... Lebedev-302
Angular grid pruning method      GridPruning ... 3 (G Style)
Weight generation scheme         WeightScheme... Becke
Basis function cutoff            BFCut       ...    1.0000e-10
Integration weight cutoff        WCut        ...    1.0000e-14
Grids for H and He will be reduced by one unit

# of grid points (after initial pruning)     ...  57636 (   0.0 sec)
# of grid points (after weights+screening)   ...  53704 (   0.1 sec)
nearest neighbour list constructed           ...    0.0 sec
Grid point re-assignment to atoms done       ...    0.0 sec
Grid point division into batches done        ...    0.2 sec
Reduced shell lists constructed in    0.8 sec

Total number of grid points                  ...    53704
Total number of batches                      ...      846
Average number of points per batch           ...       63
Average number of grid points per atom       ...     4475
Average number of shells per batch           ...    33.18 (69.12%)
Average number of basis functions per batch  ...    68.83 (71.70%)
Average number of large shells per batch     ...    26.46 (79.74%)
Average number of large basis fcns per batch ...    55.37 (80.44%)
Maximum spatial batch extension              ...  15.63, 18.86, 17.88 au
Average spatial batch extension              ...   2.52,  2.67,  2.98 au

Final grid set up in    0.9 sec
Final integration                            ... done (   0.9 sec)
Change in XC energy                          ...     0.000063707
Integrated number of electrons               ...    42.000023687
Previous integrated no of electrons          ...    41.994565539

----------------
TOTAL SCF ENERGY
----------------

Total Energy       :         -231.90328957 Eh           -6310.40932 eV

Components:
Nuclear Repulsion  :          198.28833252 Eh            5395.69984 eV
Electronic Energy  :         -430.19162209 Eh          -11706.10916 eV
One Electron Energy:         -703.49353099 Eh          -19143.03219 eV
Two Electron Energy:          273.30190891 Eh            7436.92303 eV

Virial components:
Potential Energy   :         -460.91421523 Eh          -12542.11343 eV
Kinetic Energy     :          229.01092566 Eh            6231.70410 eV
Virial Ratio       :            2.01262981


DFT components:
N(Alpha)           :       21.000011843743 electrons
N(Beta)            :       21.000011843743 electrons
N(Total)           :       42.000023687487 electrons
E(XC)              :      -23.347217575328 Eh       

---------------
SCF CONVERGENCE
---------------

  Last Energy change         ...   -5.4408e-06  Tolerance :   1.0000e-06
  Last MAX-Density change    ...    6.8598e-06  Tolerance :   1.0000e-05
  Last RMS-Density change    ...    5.0767e-07  Tolerance :   1.0000e-06
  Last DIIS Error            ...    5.6339e-06  Tolerance :   1.0000e-06

             **** THE GBW FILE WAS UPDATED (Scan_11.gbw) ****
             **** DENSITY FILE WAS UPDATED (Scan_11.scfp.tmp) ****
             **** ENERGY FILE WAS UPDATED (Scan_11.en.tmp) ****
----------------
ORBITAL ENERGIES
----------------

  NO   OCC          E(Eh)            E(eV) 
   0   2.0000     -10.328436      -281.0510 
   1   2.0000     -10.328236      -281.0456 
   2   2.0000     -10.328123      -281.0425 
   3   2.0000     -10.327653      -281.0297 
   4   2.0000     -10.327532      -281.0264 
   5   2.0000     -10.327335      -281.0211 
   6   2.0000      -0.995510       -27.0892 
   7   2.0000      -0.862045       -23.4574 
   8   2.0000      -0.862029       -23.4570 
   9   2.0000      -0.690057       -18.7774 
  10   2.0000      -0.689872       -18.7724 
  11   2.0000      -0.576312       -15.6823 
  12   2.0000      -0.562851       -15.3160 
  13   2.0000      -0.489689       -13.3251 
  14   2.0000      -0.476419       -12.9640 
  15   2.0000      -0.476193       -12.9579 
  16   2.0000      -0.472168       -12.8483 
  17   2.0000      -0.400195       -10.8899 
  18   2.0000      -0.399958       -10.8834 
  19   2.0000      -0.350941        -9.5496 
  20   2.0000      -0.350807        -9.5459 
  21   0.0000       0.049697         1.3523 
  22   0.0000       0.077212         2.1011 
  23   0.0000       0.077231         2.1016 
  24   0.0000       0.119132         3.2418 
  25   0.0000       0.119343         3.2475 
  26   0.0000       0.167633         4.5615 
  27   0.0000       0.192116         5.2277 
  28   0.0000       0.192202         5.2301 
  29   0.0000       0.267653         7.2832 
  30   0.0000       0.375932        10.2296 
  31   0.0000       0.376084        10.2338 
  32   0.0000       0.434789        11.8312 
  33   0.0000       0.435532        11.8514 
  34   0.0000       0.555156        15.1066 
  35   0.0000       0.606901        16.5146 
  36   0.0000       0.632267        17.2049 
  37   0.0000       0.634498        17.2656 
  38   0.0000       0.683348        18.5949 
  39   0.0000       0.683786        18.6068 
  40   0.0000       0.687827        18.7167 
  41   0.0000       0.703655        19.1474 
  42   0.0000       0.703907        19.1543 
  43   0.0000       0.715912        19.4810 
  44   0.0000       0.716256        19.4903 
  45   0.0000       0.757578        20.6147 
  46   0.0000       0.757760        20.6197 
  47   0.0000       0.767320        20.8798 
  48   0.0000       0.800964        21.7954 
  49   0.0000       0.801251        21.8031 
  50   0.0000       0.826982        22.5033 
  51   0.0000       0.827610        22.5204 
  52   0.0000       0.839216        22.8362 
  53   0.0000       0.869733        23.6666 
  54   0.0000       0.903910        24.5966 
  55   0.0000       1.054736        28.7008 
  56   0.0000       1.055393        28.7187 
  57   0.0000       1.063657        28.9436 
  58   0.0000       1.230542        33.4848 
  59   0.0000       1.231349        33.5067 
  60   0.0000       1.239216        33.7208 
  61   0.0000       1.239543        33.7297 
  62   0.0000       1.278937        34.8017 
  63   0.0000       1.336629        36.3715 
  64   0.0000       1.371212        37.3126 
  65   0.0000       1.371544        37.3216 
  66   0.0000       1.478613        40.2351 
  67   0.0000       1.578497        42.9531 
  68   0.0000       1.580359        43.0038 
  69   0.0000       1.580570        43.0095 
  70   0.0000       1.614057        43.9207 
  71   0.0000       1.614429        43.9309 
  72   0.0000       1.808444        49.2103 
  73   0.0000       1.809441        49.2374 
  74   0.0000       1.842866        50.1469 
  75   0.0000       1.885392        51.3041 
  76   0.0000       1.903121        51.7866 
  77   0.0000       2.180552        59.3358 
  78   0.0000       2.180814        59.3430 
  79   0.0000       2.262238        61.5586 
  80   0.0000       2.262672        61.5704 
  81   0.0000       2.270768        61.7907 
  82   0.0000       2.271894        61.8214 
  83   0.0000       2.415826        65.7380 
  84   0.0000       2.416120        65.7460 
  85   0.0000       2.454090        66.7792 
  86   0.0000       2.537351        69.0448 
  87   0.0000       2.538304        69.0708 
  88   0.0000       2.774829        75.5069 
  89   0.0000       2.775805        75.5335 
  90   0.0000       2.790244        75.9264 
  91   0.0000       2.804802        76.3225 
  92   0.0000       2.860005        77.8247 
  93   0.0000       2.861242        77.8584 
  94   0.0000       3.156240        85.8857 
  95   0.0000       3.429822        93.3302 

                    ********************************
                    * MULLIKEN POPULATION ANALYSIS *
                    ********************************

-----------------------
MULLIKEN ATOMIC CHARGES
-----------------------
   0 C :   -0.123200
   1 H :    0.123434
   2 C :   -0.124553
   3 H :    0.124154
   4 C :   -0.123755
   5 H :    0.123919
   6 C :   -0.123200
   7 H :    0.123434
   8 C :   -0.124553
   9 H :    0.124154
  10 C :   -0.123755
  11 H :    0.123919
Sum of atomic charges:   -0.0000000

--------------------------------
MULLIKEN REDUCED ORBITAL CHARGES
--------------------------------
  0 C s       :     3.183024  s :     3.183024
      pz      :     0.988924  p :     2.903942
      px      :     1.023442
      py      :     0.891576
      dz2     :     0.002789  d :     0.036235
      dxz     :     0.003537
      dyz     :     0.007113
      dx2y2   :     0.010959
      dxy     :     0.011837
  1 H s       :     0.876566  s :     0.876566
  2 C s       :     3.183733  s :     3.183733
      pz      :     0.989726  p :     2.904527
      px      :     0.933167
      py      :     0.981635
      dz2     :     0.002772  d :     0.036293
      dxz     :     0.005995
      dyz     :     0.004685
      dx2y2   :     0.011787
      dxy     :     0.011054
  3 H s       :     0.875846  s :     0.875846
  4 C s       :     3.184962  s :     3.184962
      pz      :     0.989354  p :     2.902560
      px      :     0.915475
      py      :     0.997731
      dz2     :     0.002794  d :     0.036233
      dxz     :     0.006471
      dyz     :     0.004196
      dx2y2   :     0.011461
      dxy     :     0.011311
  5 H s       :     0.876081  s :     0.876081
  6 C s       :     3.183024  s :     3.183024
      pz      :     0.988924  p :     2.903942
      px      :     1.023442
      py      :     0.891576
      dz2     :     0.002789  d :     0.036235
      dxz     :     0.003537
      dyz     :     0.007113
      dx2y2   :     0.010959
      dxy     :     0.011837
  7 H s       :     0.876566  s :     0.876566
  8 C s       :     3.183733  s :     3.183733
      pz      :     0.989726  p :     2.904527
      px      :     0.933167
      py      :     0.981634
      dz2     :     0.002772  d :     0.036293
      dxz     :     0.005995
      dyz     :     0.004685
      dx2y2   :     0.011787
      dxy     :     0.011054
  9 H s       :     0.875846  s :     0.875846
 10 C s       :     3.184962  s :     3.184962
      pz      :     0.989354  p :     2.902560
      px      :     0.915475
      py      :     0.997731
      dz2     :     0.002794  d :     0.036233
      dxz     :     0.006471
      dyz     :     0.004196
      dx2y2   :     0.011461
      dxy     :     0.011311
 11 H s       :     0.876081  s :     0.876081


                     *******************************
                     * LOEWDIN POPULATION ANALYSIS *
                     *******************************

----------------------
LOEWDIN ATOMIC CHARGES
----------------------
   0 C :   -0.108444
   1 H :    0.108532
   2 C :   -0.108972
   3 H :    0.108799
   4 C :   -0.108535
   5 H :    0.108620
   6 C :   -0.108444
   7 H :    0.108532
   8 C :   -0.108972
   9 H :    0.108799
  10 C :   -0.108535
  11 H :    0.108620

-------------------------------
LOEWDIN REDUCED ORBITAL CHARGES
-------------------------------
  0 C s       :     2.941962  s :     2.941962
      pz      :     0.979802  p :     3.081823
      px      :     1.029104
      py      :     1.072916
      dz2     :     0.005612  d :     0.084660
      dxz     :     0.004658
      dyz     :     0.015295
      dx2y2   :     0.028602
      dxy     :     0.030493
  1 H s       :     0.891468  s :     0.891468
  2 C s       :     2.942022  s :     2.942022
      pz      :     0.980293  p :     3.082225
      px      :     1.059037
      py      :     1.042895
      dz2     :     0.005602  d :     0.084725
      dxz     :     0.011940
      dyz     :     0.008037
      dx2y2   :     0.030341
      dxy     :     0.028804
  3 H s       :     0.891201  s :     0.891201
  4 C s       :     2.942056  s :     2.942056
      pz      :     0.980014  p :     3.081825
      px      :     1.065344
      py      :     1.036467
      dz2     :     0.005616  d :     0.084654
      dxz     :     0.013357
      dyz     :     0.006604
      dx2y2   :     0.029741
      dxy     :     0.029337
  5 H s       :     0.891380  s :     0.891380
  6 C s       :     2.941962  s :     2.941962
      pz      :     0.979802  p :     3.081823
      px      :     1.029104
      py      :     1.072916
      dz2     :     0.005612  d :     0.084660
      dxz     :     0.004658
      dyz     :     0.015295
      dx2y2   :     0.028602
      dxy     :     0.030493
  7 H s       :     0.891468  s :     0.891468
  8 C s       :     2.942022  s :     2.942022
      pz      :     0.980293  p :     3.082225
      px      :     1.059037
      py      :     1.042895
      dz2     :     0.005602  d :     0.084725
      dxz     :     0.011940
      dyz     :     0.008037
      dx2y2   :     0.030341
      dxy     :     0.028804
  9 H s       :     0.891201  s :     0.891201
 10 C s       :     2.942056  s :     2.942056
      pz      :     0.980014  p :     3.081825
      px      :     1.065344
      py      :     1.036467
      dz2     :     0.005616  d :     0.084654
      dxz     :     0.013357
      dyz     :     0.006604
      dx2y2   :     0.029741
      dxy     :     0.029337
 11 H s       :     0.891380  s :     0.891380


                      *****************************
                      * MAYER POPULATION ANALYSIS *
                      *****************************

  NA   - Mulliken gross atomic population
  ZA   - Total nuclear charge
  QA   - Mulliken gross atomic charge
  VA   - Mayer's total valence
  BVA  - Mayer's bonded valence
  FA   - Mayer's free valence

  ATOM       NA         ZA         QA         VA         BVA        FA
  0 C      6.1232     6.0000    -0.1232     3.9491     3.9491    -0.0000
  1 H      0.8766     1.0000     0.1234     0.9692     0.9692     0.0000
  2 C      6.1246     6.0000    -0.1246     3.9478     3.9478     0.0000
  3 H      0.8758     1.0000     0.1242     0.9690     0.9690     0.0000
  4 C      6.1238     6.0000    -0.1238     3.9474     3.9474     0.0000
  5 H      0.8761     1.0000     0.1239     0.9690     0.9690    -0.0000
  6 C      6.1232     6.0000    -0.1232     3.9491     3.9491     0.0000
  7 H      0.8766     1.0000     0.1234     0.9692     0.9692     0.0000
  8 C      6.1246     6.0000    -0.1246     3.9478     3.9478    -0.0000
  9 H      0.8758     1.0000     0.1242     0.9690     0.9690     0.0000
 10 C      6.1238     6.0000    -0.1238     3.9474     3.9474    -0.0000
 11 H      0.8761     1.0000     0.1239     0.9690     0.9690    -0.0000

  Mayer bond orders larger than 0.1
B(  0-C ,  1-H ) :   0.9258 B(  0-C ,  2-C ) :   1.4538 B(  0-C , 10-C ) :   1.4534 
B(  2-C ,  3-H ) :   0.9258 B(  2-C ,  4-C ) :   1.4524 B(  4-C ,  5-H ) :   0.9258 
B(  4-C ,  6-C ) :   1.4534 B(  6-C ,  7-H ) :   0.9258 B(  6-C ,  8-C ) :   1.4538 
B(  8-C ,  9-H ) :   0.9258 B(  8-C , 10-C ) :   1.4524 B( 10-C , 11-H ) :   0.9258 


-------
TIMINGS
-------

Total SCF time: 0 days 0 hours 0 min 41 sec 

Total time                  ....      41.510 sec
Sum of individual times     ....      41.363 sec  ( 99.6%)

Fock matrix formation       ....      39.681 sec  ( 95.6%)
  XC integration            ....       3.209 sec  (  8.1% of F)
    Basis function eval.    ....       1.611 sec  ( 50.2% of XC)
    Density eval.           ....       0.276 sec  (  8.6% of XC)
    XC-Functional eval.     ....       0.575 sec  ( 17.9% of XC)
    XC-Potential eval.      ....       0.463 sec  ( 14.4% of XC)
Diagonalization             ....       0.029 sec  (  0.1%)
Density matrix formation    ....       0.001 sec  (  0.0%)
Population analysis         ....       0.013 sec  (  0.0%)
Initial guess               ....       0.442 sec  (  1.1%)
Orbital Transformation      ....       0.000 sec  (  0.0%)
Orbital Orthonormalization  ....       0.000 sec  (  0.0%)
DIIS solution               ....       0.000 sec  (  0.0%)
Grid generation             ....       1.196 sec  (  2.9%)


-------------------------------------------------------------------------------
                          DFT DISPERSION CORRECTION                            
                                                                               
                              DFTD3 V3.1  Rev 1                                
                              USING zero damping                               
-------------------------------------------------------------------------------
The omegaB97X-D3 functional is recognized. Fit by Chai et al.
Active option DFTDOPT                   ...         3   

molecular C6(AA) [au] = 1948.361171 


            DFT-D V3
 parameters
 s6 scaling factor         :     1.0000 
 rs6 scaling factor        :     1.2810 
 s8 scaling factor         :     1.0000 
 rs8 scaling factor        :     1.0940 
 Damping factor alpha6     :    14.0000 
 Damping factor alpha8     :    16.0000 
 ad hoc parameters k1-k3   :    16.0000     1.3333    -4.0000 

 Edisp/kcal,au: -1.749039841801  -0.002787272109 
 E6   /kcal   :  -0.828491358 
 E8   /kcal   :  -0.920548484 
 % E8         :  52.631647496 

-------------------------   ----------------
Dispersion correction           -0.002787272
-------------------------   ----------------


-------------------------   --------------------
FINAL SINGLE POINT ENERGY      -231.906076841732
-------------------------   --------------------


                            ***************************************
                            *     ORCA property calculations      *
                            ***************************************

                                    ---------------------
                                    Active property flags
                                    ---------------------
   (+) Dipole Moment


------------------------------------------------------------------------------
                       ORCA ELECTRIC PROPERTIES CALCULATION
------------------------------------------------------------------------------

Dipole Moment Calculation                       ... on
Quadrupole Moment Calculation                   ... off
Polarizability Calculation                      ... off
GBWName                                         ... Scan_11.gbw
Electron density file                           ... Scan_11.scfp.tmp

-------------
DIPOLE MOMENT
-------------
                                X             Y             Z
Electronic contribution:      0.00000       0.00000      -0.00000
Nuclear contribution   :     -0.00000      -0.00000       0.00000
                        -----------------------------------------
Total Dipole Moment    :     -0.00000      -0.00000       0.00000
                        -----------------------------------------
Magnitude (a.u.)       :      0.00000
Magnitude (Debye)      :      0.00000


Timings for individual modules:

Sum of individual times         ...       41.973 sec (=   0.700 min)
GTO integral calculation        ...        0.438 sec (=   0.007 min)   1.0 %
SCF iterations                  ...       41.535 sec (=   0.692 min)  99.0 %
                             ****ORCA TERMINATED NORMALLY****
TOTAL RUN TIME: 0 days 0 hours 0 minutes 42 seconds 368 msec
