
                                 *****************
                                 * O   R   C   A *
                                 *****************

           --- An Ab Initio, DFT and Semiempirical electronic structure package ---

                  #######################################################
                  #                        -***-                        #
                  #  Department of molecular theory and spectroscopy    #
                  #              Directorship: Frank Neese              #
                  # Max Planck Institute for Chemical Energy Conversion #
                  #                  D-45470 Muelheim/Ruhr              #
                  #                       Germany                       #
                  #                                                     #
                  #                  All rights reserved                #
                  #                        -***-                        #
                  #######################################################


                         Program Version 4.0.0.2 - RELEASE -


 With contributions from (in alphabetic order):
   Daniel Aravena         : Magnetic Properties
   Michael Atanasov       : Ab Initio Ligand Field Theory
   Ute Becker             : Parallelization
   Martin Brehm           : Molecular dynamics
   Dmytro Bykov           : SCF Hessian
   Vijay G. Chilkuri      : MRCI spin determinant printing
   Dipayan Datta          : RHF DLPNO-CCSD density
   Achintya Kumar Dutta   : EOM-CC, STEOM-CC
   Dmitry Ganyushin       : Spin-Orbit,Spin-Spin,Magnetic field MRCI
   Yang Guo               : DLPNO-NEVPT2, CIM, IAO-localization
   Andreas Hansen         : Spin unrestricted coupled pair/coupled cluster methods
   Lee Huntington         : MR-EOM, pCC
   Robert Izsak           : Overlap fitted RIJCOSX, COSX-SCS-MP3, EOM
   Christian Kollmar      : KDIIS, OOCD, Brueckner-CCSD(T), CCSD density
   Simone Kossmann        : Meta GGA functionals, TD-DFT gradient, OOMP2, MP2 Hessian
   Martin Krupicka        : AUTO-CI
   Dagmar Lenk            : GEPOL surface
   Dimitrios Liakos       : Extrapolation schemes; parallel MDCI
   Dimitrios Manganas     : ROCIS; embedding schemes
   Dimitrios Pantazis     : SARC Basis sets
   Taras Petrenko         : DFT Hessian,TD-DFT gradient, ASA, ECA, R-Raman, ABS, FL, XAS/XES, NRVS
   Peter Pinski           : DLPNO-MP2
   Christoph Reimann      : Effective Core Potentials
   Marius Retegan         : Local ZFS, SOC
   Christoph Riplinger    : Optimizer, TS searches, QM/MM, DLPNO-CCSD(T), (RO)-DLPNO pert. Triples
   Tobias Risthaus        : Range-separated hybrids, TD-DFT gradient, RPA, STAB
   Michael Roemelt        : Restricted open shell CIS
   Masaaki Saitow         : Open-shell DLPNO
   Barbara Sandhoefer     : DKH picture change effects
   Kantharuban Sivalingam : CASSCF convergence, NEVPT2, FIC-MRCI
   Georgi Stoychev        : AutoAux
   Boris Wezisla          : Elementary symmetry handling
   Frank Wennmohs         : Technical directorship


 We gratefully acknowledge several colleagues who have allowed us to
 interface, adapt or use parts of their codes:
   Stefan Grimme, W. Hujo, H. Kruse,             : VdW corrections, initial TS optimization,
                  C. Bannwarth                     DFT functionals, gCP, sTDA/sTD-DF
   Ed Valeev                                     : LibInt (2-el integral package), F12 methods
   Garnet Chan, S. Sharma, J. Yang, R. Olivares  : DMRG
   Ulf Ekstrom                                   : XCFun DFT Library
   Mihaly Kallay                                 : mrcc  (arbitrary order and MRCC methods)
   Jiri Pittner, Ondrej Demel                    : Mk-CCSD
   Frank Weinhold                                : gennbo (NPA and NBO analysis)
   Christopher J. Cramer and Donald G. Truhlar   : smd solvation model


 Your calculation uses the libint2 library for the computation of 2-el integrals
 For citations please refer to: http://libint.valeyev.net

 This ORCA versions uses:
   CBLAS   interface :  Fast vector & matrix operations
   LAPACKE interface :  Fast linear algebra routines
   SCALAPACK package :  Parallel linear algebra routines


Your calculation utilizes the atom-pairwise dispersion correction
with the zero-damping scheme (D30)
Cite in your paper:
S.Grimme, J.Antony, S.Ehrlich and H.Krieg, J.Chem.Phys., 132, (2010), 154104 
   

XCFun DFT library Copyright 2009-2010 Ulf Ekstrom and contributors.
See http://admol.org/xcfun for more information. This is free soft-
ware; see the source code for copying conditions. There is ABSOLUTELY
NO WARRANTY; not even for MERCHANTABILITY or FITNESS FOR A PARTICULAR
PURPOSE. For details see the documentation. Scientific users of this 
library should cite U. Ekstrom, L. Visscher, R. Bast, A. J. Thorvald-
sen and K. Ruud; J.Chem.Theor.Comp. 2010, DOI: 10.1021/ct100117s
XCFun Version 0.99 
Your calculation utilizes the basis: 6-31G(d)
   H-He, Li-Ne : W. J. Hehre, R. Ditchfield and J.A. Pople, J. Chem. Phys. 56, 2257 (1972).
                 Note: He and Ne are unpublished basis sets taken from the Gaussian program.
                 Note: Li and B from J. D. Dill and J. A. Pople, J. Chem. Phys. 62, 2921 (1975).
   Na - Ar     : M. M. Francl, W. J. Pietro, W. J. Hehre, J. S. Binkley, M. S. Gordon, 
                 D. J. DeFrees and J. A. Pople, J. Chem. Phys. 77, 3654 (1982).
   K - Zn      : V. A. Rassolov, J. A. Pople, M. A. Ratner, and T. L. Windus, J. Chem. Phys. 109, 1223 (1998).

================================================================================
                                        WARNINGS
                       Please study these warnings very carefully!
================================================================================

Warning: TCutStore was < 0. Adjusted to Thresh (uncritical)

INFO   : the flag for use of LIBINT has been found!

================================================================================
                                       INPUT FILE
================================================================================
NAME = initial12.inp
|  1> ! WB97X-D3 6-31G(d) VerySlowConv
|  2> ! KDIIS NOSOSCF
|  3> %base "Scan_12"
|  4> 
|  5> %scf
|  6> maxiter 999
|  7> end
|  8> 
|  9> * xyz 0 1
| 10> C          1.492911934560   -2.847357251549    0.000000006039
| 11> H          3.024500905176   -2.964609365716    0.000000185489
| 12> C          0.901765642417   -1.614766176977   -0.000000171141
| 13> H          1.769104529089   -0.346998018397    0.000000426758
| 14> C         -0.461262301986   -1.510418716867   -0.000000032713
| 15> H         -1.125512083697   -0.125397013759   -0.000000516565
| 16> C         -1.233143697338   -2.638661293944   -0.000000583196
| 17> H         -2.764732659605   -2.521408709731    0.000000479153
| 18> C         -0.641998174246   -3.871251626818    0.000000114164
| 19> H         -1.509335278252   -5.139021026577    0.000000263190
| 20> C          0.721029512353   -3.975600123795    0.000000728537
| 21> H          1.385281671527   -5.360620675868   -0.000000899716
| 22> **                         ****END OF INPUT****
================================================================================

                       ****************************
                       * Single Point Calculation *
                       ****************************

---------------------------------
CARTESIAN COORDINATES (ANGSTROEM)
---------------------------------
  C      1.492912   -2.847357    0.000000
  H      3.024501   -2.964609    0.000000
  C      0.901766   -1.614766   -0.000000
  H      1.769105   -0.346998    0.000000
  C     -0.461262   -1.510419   -0.000000
  H     -1.125512   -0.125397   -0.000001
  C     -1.233144   -2.638661   -0.000001
  H     -2.764733   -2.521409    0.000000
  C     -0.641998   -3.871252    0.000000
  H     -1.509335   -5.139021    0.000000
  C      0.721030   -3.975600    0.000001
  H      1.385282   -5.360621   -0.000001

----------------------------
CARTESIAN COORDINATES (A.U.)
----------------------------
  NO LB      ZA    FRAG     MASS         X           Y           Z
   0 C     6.0000    0    12.011    2.821195   -5.380725    0.000000
   1 H     1.0000    0     1.008    5.715478   -5.602300    0.000000
   2 C     6.0000    0    12.011    1.704090   -3.051466   -0.000000
   3 H     1.0000    0     1.008    3.343123   -0.655731    0.000001
   4 C     6.0000    0    12.011   -0.871659   -2.854278   -0.000000
   5 H     1.0000    0     1.008   -2.126910   -0.236966   -0.000001
   6 C     6.0000    0    12.011   -2.330304   -4.986347   -0.000001
   7 H     1.0000    0     1.008   -5.224588   -4.764772    0.000001
   8 C     6.0000    0    12.011   -1.213201   -7.315605    0.000000
   9 H     1.0000    0     1.008   -2.852230   -9.711342    0.000000
  10 C     6.0000    0    12.011    1.362548   -7.512795    0.000001
  11 H     1.0000    0     1.008    2.617803  -10.130105   -0.000002

--------------------------------
INTERNAL COORDINATES (ANGSTROEM)
--------------------------------
 C      0   0   0     0.000000000000     0.00000000     0.00000000
 H      1   0   0     1.536070582099     0.00000000     0.00000000
 C      1   2   0     1.367016713807   119.99999908     0.00000000
 H      3   1   2     1.536070586999   119.99995170     0.00000000
 C      3   1   2     1.367016301898   119.99998573   180.00001439
 H      5   3   1     1.536070600781   119.99992865   180.00001225
 C      5   3   1     1.367015801379   120.00000785     0.00000000
 H      7   5   3     1.536070609654   119.99997699   179.99996095
 C      7   5   3     1.367015712480   120.00002204     0.00000000
 H      9   7   5     1.536070604807   120.00004834   179.99996693
 C      9   7   5     1.367016123993   120.00001427     0.00000000
 H     11   9   7     1.536070591032   120.00007133   180.00010389

---------------------------
INTERNAL COORDINATES (A.U.)
---------------------------
 C      0   0   0     0.000000000000     0.00000000     0.00000000
 H      1   0   0     2.902752722540     0.00000000     0.00000000
 C      1   2   0     2.583287209589   119.99999908     0.00000000
 H      3   1   2     2.902752731800   119.99995170     0.00000000
 C      3   1   2     2.583286431193   119.99998573   180.00001439
 H      5   3   1     2.902752757844   119.99992865   180.00001225
 C      5   3   1     2.583285485349   120.00000785     0.00000000
 H      7   5   3     2.902752774612   119.99997699   179.99996095
 C      7   5   3     2.583285317354   120.00002204     0.00000000
 H      9   7   5     2.902752765451   120.00004834   179.99996693
 C      9   7   5     2.583286095002   120.00001427     0.00000000
 H     11   9   7     2.902752739422   120.00007133   180.00010389

---------------------
BASIS SET INFORMATION
---------------------
There are 2 groups of distinct atoms

 Group   1 Type C   : 10s4p1d contracted to 3s2p1d pattern {631/31/1}
 Group   2 Type H   : 4s contracted to 2s pattern {31}

Atom   0C    basis set group =>   1
Atom   1H    basis set group =>   2
Atom   2C    basis set group =>   1
Atom   3H    basis set group =>   2
Atom   4C    basis set group =>   1
Atom   5H    basis set group =>   2
Atom   6C    basis set group =>   1
Atom   7H    basis set group =>   2
Atom   8C    basis set group =>   1
Atom   9H    basis set group =>   2
Atom  10C    basis set group =>   1
Atom  11H    basis set group =>   2
------------------------------------------------------------------------------
                           ORCA GTO INTEGRAL CALCULATION
------------------------------------------------------------------------------

                         BASIS SET STATISTICS AND STARTUP INFO

 # of primitive gaussian shells          ...  114
 # of primitive gaussian functions       ...  186
 # of contracted shells                  ...   48
 # of contracted basis functions         ...   96
 Highest angular momentum                ...    2
 Maximum contraction depth               ...    6
 Integral package used                   ... LIBINT
 Integral threshhold            Thresh   ...  1.000e-10
 Primitive cut-off              TCut     ...  1.000e-11


------------------------------ INTEGRAL EVALUATION ----------------------------


 * One electron integrals 
 Pre-screening matrix                    ... done
 Shell pair data                         ... done (   0.001 sec)

-------------------------------------------------------------------------------
                                 ORCA SCF
-------------------------------------------------------------------------------

------------
SCF SETTINGS
------------
Hamiltonian:
 Density Functional     Method          .... DFT(GTOs)
 Exchange Functional    Exchange        .... WB97X-D3
 Correlation Functional Correlation     .... WB97X-D3
 Gradients option       PostSCFGGA      .... off
 Hybrid DFT is turned on
   Fraction HF Exchange ScalHFX         ....  0.195728
   Scaling of DF-GGA-X  ScalDFX         ....  0.000000
   Scaling of DF-GGA-C  ScalDFC         ....  1.000000
   Scaling of DF-LDA-C  ScalLDAC        ....  1.000000
   Perturbative correction              ....  0.000000
 Long-range corrected/Screened/Range-Separated Hybrid DFT is turned on
   Amount of maximum screened exact exchange              ....  0.804272
   Range separation parameter mu (erf(mu*r12)/r12)        ....  0.250000


General Settings:
 Integral files         IntName         .... Scan_12
 Hartree-Fock type      HFTyp           .... RHF
 Total Charge           Charge          ....    0
 Multiplicity           Mult            ....    1
 Number of Electrons    NEL             ....   42
 Basis Dimension        Dim             ....   96
 Nuclear Repulsion      ENuc            ....    196.8884957175 Eh

Convergence Acceleration:
 DIIS                   CNVDIIS         .... on
   Start iteration      DIISMaxIt       ....     0
   Startup error        DIISStart       ....  0.200000
   # of expansion vecs  DIISMaxEq       ....     5
   Bias factor          DIISBfac        ....   1.050
   Max. coefficient     DIISMaxC        ....  10.000
 Newton-Raphson         CNVNR           .... off
 SOSCF                  CNVSOSCF        .... off
 Level Shifting         CNVShift        .... off
 Zerner damping         CNVZerner       .... off
 Static damping         CNVDamp         .... off
 Fernandez-Rico         CNVRico         .... off

SCF Procedure:
 Maximum # iterations   MaxIter         ....   999
 SCF integral mode      SCFMode         .... Direct
   Integral package                     .... LIBINT
 Reset frequeny         DirectResetFreq ....    20
 Integral Threshold     Thresh          ....  1.000e-10 Eh
 Primitive CutOff       TCut            ....  1.000e-11 Eh

Convergence Tolerance:
 Convergence Check Mode ConvCheckMode   .... All-Criteria
 Convergence forced     ConvForced      .... 0
 Energy Change          TolE            ....  1.000e-06 Eh
 Max Density Change     TolMaxP         ....  1.000e-05
 RMS Density Change     TolRMSP         ....  1.000e-06
 DIIS Error             TolErr          ....  1.000e-06


Diagonalization of the overlap matrix:
Smallest eigenvalue                        ... 6.193e-04
Time for diagonalization                   ...    0.003 sec
Threshold for overlap eigenvalues          ... 1.000e-08
Number of eigenvalues below threshold      ... 0
Time for construction of square roots      ...    0.012 sec
Total time needed                          ...    0.015 sec

-------------------
DFT GRID GENERATION
-------------------

General Integration Accuracy     IntAcc      ...  4.340
Radial Grid Type                 RadialGrid  ... Gauss-Chebyshev
Angular Grid (max. acc.)         AngularGrid ... Lebedev-110
Angular grid pruning method      GridPruning ... 3 (G Style)
Weight generation scheme         WeightScheme... Becke
Basis function cutoff            BFCut       ...    1.0000e-10
Integration weight cutoff        WCut        ...    1.0000e-14
Grids for H and He will be reduced by one unit

# of grid points (after initial pruning)     ...  14700 (   0.0 sec)
# of grid points (after weights+screening)   ...  13858 (   0.0 sec)
nearest neighbour list constructed           ...    0.0 sec
Grid point re-assignment to atoms done       ...    0.0 sec
Grid point division into batches done        ...    0.0 sec
Reduced shell lists constructed in    0.2 sec

Total number of grid points                  ...    13858
Total number of batches                      ...      222
Average number of points per batch           ...       62
Average number of grid points per atom       ...     1155
Average number of shells per batch           ...    36.13 (75.26%)
Average number of basis functions per batch  ...    75.43 (78.58%)
Average number of large shells per batch     ...    29.70 (82.21%)
Average number of large basis fcns per batch ...    62.58 (82.96%)
Maximum spatial batch extension              ...  18.16, 20.19, 25.60 au
Average spatial batch extension              ...   3.77,  4.14,  5.25 au

Time for grid setup =    0.256 sec

------------------------------
INITIAL GUESS: MODEL POTENTIAL
------------------------------
Loading Hartree-Fock densities                     ... done
Calculating cut-offs                               ... done
Setting up the integral package                    ... done
Initializing the effective Hamiltonian             ... done
Starting the Coulomb interaction                   ... done (   0.1 sec)
Reading the grid                                   ... done
Mapping shells                                     ... done
Starting the XC term evaluation                    ... done (   0.2 sec)
  promolecular density results
     # of electrons  =     41.992995984
     EX              =    -32.168620865
     EC              =     -1.325566922
     EX+EC           =    -33.494187788
Transforming the Hamiltonian                       ... done (   0.0 sec)
Diagonalizing the Hamiltonian                      ... done (   0.0 sec)
Back transforming the eigenvectors                 ... done (   0.0 sec)
Now organizing SCF variables                       ... done
                      ------------------
                      INITIAL GUESS DONE (   0.7 sec)
                      ------------------
--------------
SCF ITERATIONS
--------------
ITER       Energy         Delta-E        Max-DP      RMS-DP      [F,P]   Gradient Norm
               ***  Starting incremental Fock matrix formation  ***
                             ****Resetting KDIIS****
                             ****Turning on KDIIS(Cayley)****
  0   -231.5911833450   0.000000000000 0.02237782  0.00122797  0.1142365   0.086014685
  1   -231.6626759830  -0.071492638069 0.02063494  0.00125349  0.0939871   0.068631387
  2   -231.7148533522  -0.052177369120 0.02692240  0.00163875  0.0685206   0.053348524
  3   -231.7622799298  -0.047426577613 0.03930957  0.00246554  0.0411610   0.032293758
  4   -231.7881929742  -0.025913044480 0.00673773  0.00063268  0.0076343   0.003272966
  5   -231.7888490608  -0.000656086525 0.00318630  0.00028099  0.0050538   0.001739510
  6   -231.7890295087  -0.000180447951 0.00033924  0.00002081  0.0017742   0.001077869
  7   -231.7890401583  -0.000010649529 0.00204073  0.00018346  0.0014953   0.000975260
  8   -231.7890800881  -0.000039929808 0.00004762  0.00000450  0.0000464   0.000045010
                          ***Energy convergence achieved***
  9   -231.7890801350  -0.000000046931 0.00001183  0.00000117  0.0000220   0.000018572
                           ***RMSP convergence achieved***
                           ***MAXP convergence achieved***
                    *** KDIIS BlockDiag ( 0.002 sec) ***

               *****************************************************
               *                     SUCCESS                       *
               *           SCF CONVERGED AFTER  10 CYCLES          *
               *****************************************************

Setting up the final grid:

General Integration Accuracy     IntAcc      ...  4.670
Radial Grid Type                 RadialGrid  ... Gauss-Chebyshev
Angular Grid (max. acc.)         AngularGrid ... Lebedev-302
Angular grid pruning method      GridPruning ... 3 (G Style)
Weight generation scheme         WeightScheme... Becke
Basis function cutoff            BFCut       ...    1.0000e-10
Integration weight cutoff        WCut        ...    1.0000e-14
Grids for H and He will be reduced by one unit

# of grid points (after initial pruning)     ...  57636 (   0.0 sec)
# of grid points (after weights+screening)   ...  53766 (   0.1 sec)
nearest neighbour list constructed           ...    0.0 sec
Grid point re-assignment to atoms done       ...    0.0 sec
Grid point division into batches done        ...    0.2 sec
Reduced shell lists constructed in    0.8 sec

Total number of grid points                  ...    53766
Total number of batches                      ...      848
Average number of points per batch           ...       63
Average number of grid points per atom       ...     4480
Average number of shells per batch           ...    32.79 (68.31%)
Average number of basis functions per batch  ...    68.09 (70.93%)
Average number of large shells per batch     ...    26.09 (79.57%)
Average number of large basis fcns per batch ...    54.75 (80.40%)
Maximum spatial batch extension              ...  15.64, 18.92, 17.88 au
Average spatial batch extension              ...   2.56,  2.69,  3.01 au

Final grid set up in    0.9 sec
Final integration                            ... done (   0.8 sec)
Change in XC energy                          ...     0.000109085
Integrated number of electrons               ...    42.000017469
Previous integrated no of electrons          ...    41.993492114

----------------
TOTAL SCF ENERGY
----------------

Total Energy       :         -231.78897106 Eh           -6307.29856 eV

Components:
Nuclear Repulsion  :          196.88849572 Eh            5357.60834 eV
Electronic Energy  :         -428.67746678 Eh          -11664.90690 eV
One Electron Energy:         -700.43748123 Eh          -19059.87285 eV
Two Electron Energy:          271.76001446 Eh            7394.96595 eV

Virial components:
Potential Energy   :         -460.54094060 Eh          -12531.95611 eV
Kinetic Energy     :          228.75196954 Eh            6224.65755 eV
Virial Ratio       :            2.01327640


DFT components:
N(Alpha)           :       21.000008734673 electrons
N(Beta)            :       21.000008734673 electrons
N(Total)           :       42.000017469346 electrons
E(XC)              :      -23.262136149593 Eh       

---------------
SCF CONVERGENCE
---------------

  Last Energy change         ...   -1.2054e-08  Tolerance :   1.0000e-06
  Last MAX-Density change    ...    6.4359e-06  Tolerance :   1.0000e-05
  Last RMS-Density change    ...    4.3964e-07  Tolerance :   1.0000e-06
  Last DIIS Error            ...    3.2493e-06  Tolerance :   1.0000e-06

             **** THE GBW FILE WAS UPDATED (Scan_12.gbw) ****
             **** DENSITY FILE WAS UPDATED (Scan_12.scfp.tmp) ****
             **** ENERGY FILE WAS UPDATED (Scan_12.en.tmp) ****
----------------
ORBITAL ENERGIES
----------------

  NO   OCC          E(Eh)            E(eV) 
   0   2.0000     -10.339535      -281.3531 
   1   2.0000     -10.339314      -281.3470 
   2   2.0000     -10.339229      -281.3447 
   3   2.0000     -10.338717      -281.3308 
   4   2.0000     -10.338624      -281.3283 
   5   2.0000     -10.338406      -281.3223 
   6   2.0000      -1.003678       -27.3115 
   7   2.0000      -0.866543       -23.5798 
   8   2.0000      -0.866533       -23.5795 
   9   2.0000      -0.690868       -18.7995 
  10   2.0000      -0.690691       -18.7947 
  11   2.0000      -0.569688       -15.5020 
  12   2.0000      -0.565164       -15.3789 
  13   2.0000      -0.496353       -13.5065 
  14   2.0000      -0.465847       -12.6764 
  15   2.0000      -0.465696       -12.6722 
  16   2.0000      -0.453660       -12.3447 
  17   2.0000      -0.391173       -10.6443 
  18   2.0000      -0.390960       -10.6386 
  19   2.0000      -0.356547        -9.7021 
  20   2.0000      -0.356419        -9.6986 
  21   0.0000       0.017303         0.4708 
  22   0.0000       0.074309         2.0221 
  23   0.0000       0.074320         2.0223 
  24   0.0000       0.086366         2.3502 
  25   0.0000       0.086563         2.3555 
  26   0.0000       0.134186         3.6514 
  27   0.0000       0.164263         4.4698 
  28   0.0000       0.164327         4.4716 
  29   0.0000       0.266719         7.2578 
  30   0.0000       0.373793        10.1714 
  31   0.0000       0.374114        10.1802 
  32   0.0000       0.441985        12.0270 
  33   0.0000       0.442468        12.0402 
  34   0.0000       0.554497        15.0886 
  35   0.0000       0.601768        16.3749 
  36   0.0000       0.627183        17.0665 
  37   0.0000       0.628396        17.0995 
  38   0.0000       0.678987        18.4762 
  39   0.0000       0.679346        18.4859 
  40   0.0000       0.693436        18.8694 
  41   0.0000       0.706728        19.2310 
  42   0.0000       0.706779        19.2324 
  43   0.0000       0.714626        19.4460 
  44   0.0000       0.714936        19.4544 
  45   0.0000       0.754323        20.5262 
  46   0.0000       0.754580        20.5332 
  47   0.0000       0.782627        21.2964 
  48   0.0000       0.783066        21.3083 
  49   0.0000       0.794422        21.6173 
  50   0.0000       0.808774        22.0078 
  51   0.0000       0.809261        22.0211 
  52   0.0000       0.837434        22.7877 
  53   0.0000       0.855465        23.2784 
  54   0.0000       0.882683        24.0190 
  55   0.0000       1.048014        28.5179 
  56   0.0000       1.048465        28.5302 
  57   0.0000       1.062964        28.9247 
  58   0.0000       1.220976        33.2245 
  59   0.0000       1.221143        33.2290 
  60   0.0000       1.231658        33.5151 
  61   0.0000       1.232138        33.5282 
  62   0.0000       1.248407        33.9709 
  63   0.0000       1.315609        35.7995 
  64   0.0000       1.315992        35.8100 
  65   0.0000       1.330917        36.2161 
  66   0.0000       1.474411        40.1208 
  67   0.0000       1.516771        41.2734 
  68   0.0000       1.577256        42.9193 
  69   0.0000       1.577434        42.9242 
  70   0.0000       1.611755        43.8581 
  71   0.0000       1.612157        43.8690 
  72   0.0000       1.780262        48.4434 
  73   0.0000       1.781427        48.4751 
  74   0.0000       1.802048        49.0362 
  75   0.0000       1.880885        51.1815 
  76   0.0000       1.901686        51.7475 
  77   0.0000       2.184603        59.4461 
  78   0.0000       2.184952        59.4556 
  79   0.0000       2.261309        61.5333 
  80   0.0000       2.261710        61.5443 
  81   0.0000       2.269345        61.7520 
  82   0.0000       2.270487        61.7831 
  83   0.0000       2.414096        65.6909 
  84   0.0000       2.414465        65.7009 
  85   0.0000       2.456139        66.8349 
  86   0.0000       2.525405        68.7198 
  87   0.0000       2.526446        68.7481 
  88   0.0000       2.772447        75.4421 
  89   0.0000       2.773559        75.4724 
  90   0.0000       2.792428        75.9858 
  91   0.0000       2.808054        76.4110 
  92   0.0000       2.861390        77.8624 
  93   0.0000       2.862704        77.8981 
  94   0.0000       3.157832        85.9290 
  95   0.0000       3.420316        93.0715 

                    ********************************
                    * MULLIKEN POPULATION ANALYSIS *
                    ********************************

-----------------------
MULLIKEN ATOMIC CHARGES
-----------------------
   0 C :   -0.105070
   1 H :    0.105235
   2 C :   -0.106402
   3 H :    0.106043
   4 C :   -0.106227
   5 H :    0.106422
   6 C :   -0.105072
   7 H :    0.105236
   8 C :   -0.106403
   9 H :    0.106043
  10 C :   -0.106227
  11 H :    0.106421
Sum of atomic charges:   -0.0000000

--------------------------------
MULLIKEN REDUCED ORBITAL CHARGES
--------------------------------
  0 C s       :     3.185956  s :     3.185956
      pz      :     0.988608  p :     2.882934
      px      :     1.011277
      py      :     0.883050
      dz2     :     0.002717  d :     0.036180
      dxz     :     0.003822
      dyz     :     0.007243
      dx2y2   :     0.010310
      dxy     :     0.012088
  1 H s       :     0.894765  s :     0.894765
  2 C s       :     3.185749  s :     3.185749
      pz      :     0.989266  p :     2.884412
      px      :     0.924450
      py      :     0.970696
      dz2     :     0.002698  d :     0.036240
      dxz     :     0.006173
      dyz     :     0.004919
      dx2y2   :     0.011938
      dxy     :     0.010512
  3 H s       :     0.893957  s :     0.893957
  4 C s       :     3.186781  s :     3.186781
      pz      :     0.988891  p :     2.883254
      px      :     0.907174
      py      :     0.987189
      dz2     :     0.002721  d :     0.036193
      dxz     :     0.006628
      dyz     :     0.004450
      dx2y2   :     0.011374
      dxy     :     0.011021
  5 H s       :     0.893578  s :     0.893578
  6 C s       :     3.185956  s :     3.185956
      pz      :     0.988609  p :     2.882936
      px      :     1.011277
      py      :     0.883050
      dz2     :     0.002717  d :     0.036180
      dxz     :     0.003822
      dyz     :     0.007243
      dx2y2   :     0.010310
      dxy     :     0.012088
  7 H s       :     0.894764  s :     0.894764
  8 C s       :     3.185749  s :     3.185749
      pz      :     0.989267  p :     2.884414
      px      :     0.924450
      py      :     0.970697
      dz2     :     0.002698  d :     0.036240
      dxz     :     0.006173
      dyz     :     0.004919
      dx2y2   :     0.011938
      dxy     :     0.010512
  9 H s       :     0.893957  s :     0.893957
 10 C s       :     3.186781  s :     3.186781
      pz      :     0.988890  p :     2.883253
      px      :     0.907173
      py      :     0.987189
      dz2     :     0.002721  d :     0.036193
      dxz     :     0.006628
      dyz     :     0.004450
      dx2y2   :     0.011374
      dxy     :     0.011021
 11 H s       :     0.893579  s :     0.893579


                     *******************************
                     * LOEWDIN POPULATION ANALYSIS *
                     *******************************

----------------------
LOEWDIN ATOMIC CHARGES
----------------------
   0 C :   -0.096928
   1 H :    0.096900
   2 C :   -0.097462
   3 H :    0.097268
   4 C :   -0.097341
   5 H :    0.097563
   6 C :   -0.096929
   7 H :    0.096901
   8 C :   -0.097463
   9 H :    0.097268
  10 C :   -0.097341
  11 H :    0.097563

-------------------------------
LOEWDIN REDUCED ORBITAL CHARGES
-------------------------------
  0 C s       :     2.947937  s :     2.947937
      pz      :     0.979322  p :     3.064757
      px      :     1.014876
      py      :     1.070558
      dz2     :     0.005624  d :     0.084234
      dxz     :     0.004931
      dyz     :     0.015566
      dx2y2   :     0.027055
      dxy     :     0.031058
  1 H s       :     0.903100  s :     0.903100
  2 C s       :     2.947958  s :     2.947958
      pz      :     0.979727  p :     3.065204
      px      :     1.053041
      py      :     1.032436
      dz2     :     0.005615  d :     0.084300
      dxz     :     0.012213
      dyz     :     0.008310
      dx2y2   :     0.030660
      dxy     :     0.027502
  3 H s       :     0.902732  s :     0.902732
  4 C s       :     2.948012  s :     2.948012
      pz      :     0.979425  p :     3.065094
      px      :     1.060936
      py      :     1.024733
      dz2     :     0.005630  d :     0.084235
      dxz     :     0.013628
      dyz     :     0.006876
      dx2y2   :     0.029492
      dxy     :     0.028609
  5 H s       :     0.902437  s :     0.902437
  6 C s       :     2.947937  s :     2.947937
      pz      :     0.979323  p :     3.064758
      px      :     1.014877
      py      :     1.070559
      dz2     :     0.005624  d :     0.084234
      dxz     :     0.004931
      dyz     :     0.015566
      dx2y2   :     0.027055
      dxy     :     0.031058
  7 H s       :     0.903099  s :     0.903099
  8 C s       :     2.947958  s :     2.947958
      pz      :     0.979728  p :     3.065205
      px      :     1.053041
      py      :     1.032436
      dz2     :     0.005615  d :     0.084300
      dxz     :     0.012213
      dyz     :     0.008310
      dx2y2   :     0.030660
      dxy     :     0.027502
  9 H s       :     0.902732  s :     0.902732
 10 C s       :     2.948012  s :     2.948012
      pz      :     0.979425  p :     3.065094
      px      :     1.060936
      py      :     1.024733
      dz2     :     0.005630  d :     0.084235
      dxz     :     0.013628
      dyz     :     0.006876
      dx2y2   :     0.029492
      dxy     :     0.028609
 11 H s       :     0.902437  s :     0.902437


                      *****************************
                      * MAYER POPULATION ANALYSIS *
                      *****************************

  NA   - Mulliken gross atomic population
  ZA   - Total nuclear charge
  QA   - Mulliken gross atomic charge
  VA   - Mayer's total valence
  BVA  - Mayer's bonded valence
  FA   - Mayer's free valence

  ATOM       NA         ZA         QA         VA         BVA        FA
  0 C      6.1051     6.0000    -0.1051     3.9493     3.9493    -0.0000
  1 H      0.8948     1.0000     0.1052     0.9770     0.9770    -0.0000
  2 C      6.1064     6.0000    -0.1064     3.9488     3.9488    -0.0000
  3 H      0.8940     1.0000     0.1060     0.9768     0.9768    -0.0000
  4 C      6.1062     6.0000    -0.1062     3.9485     3.9485    -0.0000
  5 H      0.8936     1.0000     0.1064     0.9767     0.9767    -0.0000
  6 C      6.1051     6.0000    -0.1051     3.9493     3.9493     0.0000
  7 H      0.8948     1.0000     0.1052     0.9770     0.9770    -0.0000
  8 C      6.1064     6.0000    -0.1064     3.9488     3.9488    -0.0000
  9 H      0.8940     1.0000     0.1060     0.9768     0.9768    -0.0000
 10 C      6.1062     6.0000    -0.1062     3.9485     3.9485    -0.0000
 11 H      0.8936     1.0000     0.1064     0.9767     0.9767    -0.0000

  Mayer bond orders larger than 0.1
B(  0-C ,  1-H ) :   0.9187 B(  0-C ,  2-C ) :   1.4546 B(  0-C , 10-C ) :   1.4545 
B(  2-C ,  3-H ) :   0.9186 B(  2-C ,  4-C ) :   1.4543 B(  4-C ,  5-H ) :   0.9184 
B(  4-C ,  6-C ) :   1.4545 B(  6-C ,  7-H ) :   0.9187 B(  6-C ,  8-C ) :   1.4546 
B(  8-C ,  9-H ) :   0.9186 B(  8-C , 10-C ) :   1.4543 B( 10-C , 11-H ) :   0.9184 


-------
TIMINGS
-------

Total SCF time: 0 days 0 hours 0 min 47 sec 

Total time                  ....      47.483 sec
Sum of individual times     ....      47.307 sec  ( 99.6%)

Fock matrix formation       ....      45.642 sec  ( 96.1%)
  XC integration            ....       3.539 sec  (  7.8% of F)
    Basis function eval.    ....       1.758 sec  ( 49.7% of XC)
    Density eval.           ....       0.299 sec  (  8.5% of XC)
    XC-Functional eval.     ....       0.643 sec  ( 18.2% of XC)
    XC-Potential eval.      ....       0.485 sec  ( 13.7% of XC)
Diagonalization             ....       0.041 sec  (  0.1%)
Density matrix formation    ....       0.001 sec  (  0.0%)
Population analysis         ....       0.013 sec  (  0.0%)
Initial guess               ....       0.424 sec  (  0.9%)
Orbital Transformation      ....       0.000 sec  (  0.0%)
Orbital Orthonormalization  ....       0.000 sec  (  0.0%)
DIIS solution               ....       0.000 sec  (  0.0%)
Grid generation             ....       1.186 sec  (  2.5%)


-------------------------------------------------------------------------------
                          DFT DISPERSION CORRECTION                            
                                                                               
                              DFTD3 V3.1  Rev 1                                
                              USING zero damping                               
-------------------------------------------------------------------------------
The omegaB97X-D3 functional is recognized. Fit by Chai et al.
Active option DFTDOPT                   ...         3   

molecular C6(AA) [au] = 2225.610660 


            DFT-D V3
 parameters
 s6 scaling factor         :     1.0000 
 rs6 scaling factor        :     1.2810 
 s8 scaling factor         :     1.0000 
 rs8 scaling factor        :     1.0940 
 Damping factor alpha6     :    14.0000 
 Damping factor alpha8     :    16.0000 
 ad hoc parameters k1-k3   :    16.0000     1.3333    -4.0000 

 Edisp/kcal,au: -2.141153204896  -0.003412144462 
 E6   /kcal   :  -1.022485900 
 E8   /kcal   :  -1.118667304 
 % E8         :  52.246018730 

-------------------------   ----------------
Dispersion correction           -0.003412144
-------------------------   ----------------


-------------------------   --------------------
FINAL SINGLE POINT ENERGY      -231.792383206570
-------------------------   --------------------


                            ***************************************
                            *     ORCA property calculations      *
                            ***************************************

                                    ---------------------
                                    Active property flags
                                    ---------------------
   (+) Dipole Moment


------------------------------------------------------------------------------
                       ORCA ELECTRIC PROPERTIES CALCULATION
------------------------------------------------------------------------------

Dipole Moment Calculation                       ... on
Quadrupole Moment Calculation                   ... off
Polarizability Calculation                      ... off
GBWName                                         ... Scan_12.gbw
Electron density file                           ... Scan_12.scfp.tmp

-------------
DIPOLE MOMENT
-------------
                                X             Y             Z
Electronic contribution:     -0.00000      -0.00000       0.00000
Nuclear contribution   :      0.00000       0.00000      -0.00000
                        -----------------------------------------
Total Dipole Moment    :      0.00000       0.00000      -0.00000
                        -----------------------------------------
Magnitude (a.u.)       :      0.00000
Magnitude (Debye)      :      0.00001


Timings for individual modules:

Sum of individual times         ...       47.945 sec (=   0.799 min)
GTO integral calculation        ...        0.437 sec (=   0.007 min)   0.9 %
SCF iterations                  ...       47.508 sec (=   0.792 min)  99.1 %
                             ****ORCA TERMINATED NORMALLY****
TOTAL RUN TIME: 0 days 0 hours 0 minutes 48 seconds 348 msec
