
                                 *****************
                                 * O   R   C   A *
                                 *****************

           --- An Ab Initio, DFT and Semiempirical electronic structure package ---

                  #######################################################
                  #                        -***-                        #
                  #  Department of molecular theory and spectroscopy    #
                  #              Directorship: Frank Neese              #
                  # Max Planck Institute for Chemical Energy Conversion #
                  #                  D-45470 Muelheim/Ruhr              #
                  #                       Germany                       #
                  #                                                     #
                  #                  All rights reserved                #
                  #                        -***-                        #
                  #######################################################


                         Program Version 4.0.0.2 - RELEASE -


 With contributions from (in alphabetic order):
   Daniel Aravena         : Magnetic Properties
   Michael Atanasov       : Ab Initio Ligand Field Theory
   Ute Becker             : Parallelization
   Martin Brehm           : Molecular dynamics
   Dmytro Bykov           : SCF Hessian
   Vijay G. Chilkuri      : MRCI spin determinant printing
   Dipayan Datta          : RHF DLPNO-CCSD density
   Achintya Kumar Dutta   : EOM-CC, STEOM-CC
   Dmitry Ganyushin       : Spin-Orbit,Spin-Spin,Magnetic field MRCI
   Yang Guo               : DLPNO-NEVPT2, CIM, IAO-localization
   Andreas Hansen         : Spin unrestricted coupled pair/coupled cluster methods
   Lee Huntington         : MR-EOM, pCC
   Robert Izsak           : Overlap fitted RIJCOSX, COSX-SCS-MP3, EOM
   Christian Kollmar      : KDIIS, OOCD, Brueckner-CCSD(T), CCSD density
   Simone Kossmann        : Meta GGA functionals, TD-DFT gradient, OOMP2, MP2 Hessian
   Martin Krupicka        : AUTO-CI
   Dagmar Lenk            : GEPOL surface
   Dimitrios Liakos       : Extrapolation schemes; parallel MDCI
   Dimitrios Manganas     : ROCIS; embedding schemes
   Dimitrios Pantazis     : SARC Basis sets
   Taras Petrenko         : DFT Hessian,TD-DFT gradient, ASA, ECA, R-Raman, ABS, FL, XAS/XES, NRVS
   Peter Pinski           : DLPNO-MP2
   Christoph Reimann      : Effective Core Potentials
   Marius Retegan         : Local ZFS, SOC
   Christoph Riplinger    : Optimizer, TS searches, QM/MM, DLPNO-CCSD(T), (RO)-DLPNO pert. Triples
   Tobias Risthaus        : Range-separated hybrids, TD-DFT gradient, RPA, STAB
   Michael Roemelt        : Restricted open shell CIS
   Masaaki Saitow         : Open-shell DLPNO
   Barbara Sandhoefer     : DKH picture change effects
   Kantharuban Sivalingam : CASSCF convergence, NEVPT2, FIC-MRCI
   Georgi Stoychev        : AutoAux
   Boris Wezisla          : Elementary symmetry handling
   Frank Wennmohs         : Technical directorship


 We gratefully acknowledge several colleagues who have allowed us to
 interface, adapt or use parts of their codes:
   Stefan Grimme, W. Hujo, H. Kruse,             : VdW corrections, initial TS optimization,
                  C. Bannwarth                     DFT functionals, gCP, sTDA/sTD-DF
   Ed Valeev                                     : LibInt (2-el integral package), F12 methods
   Garnet Chan, S. Sharma, J. Yang, R. Olivares  : DMRG
   Ulf Ekstrom                                   : XCFun DFT Library
   Mihaly Kallay                                 : mrcc  (arbitrary order and MRCC methods)
   Jiri Pittner, Ondrej Demel                    : Mk-CCSD
   Frank Weinhold                                : gennbo (NPA and NBO analysis)
   Christopher J. Cramer and Donald G. Truhlar   : smd solvation model


 Your calculation uses the libint2 library for the computation of 2-el integrals
 For citations please refer to: http://libint.valeyev.net

 This ORCA versions uses:
   CBLAS   interface :  Fast vector & matrix operations
   LAPACKE interface :  Fast linear algebra routines
   SCALAPACK package :  Parallel linear algebra routines


Your calculation utilizes the atom-pairwise dispersion correction
with the zero-damping scheme (D30)
Cite in your paper:
S.Grimme, J.Antony, S.Ehrlich and H.Krieg, J.Chem.Phys., 132, (2010), 154104 
   

XCFun DFT library Copyright 2009-2010 Ulf Ekstrom and contributors.
See http://admol.org/xcfun for more information. This is free soft-
ware; see the source code for copying conditions. There is ABSOLUTELY
NO WARRANTY; not even for MERCHANTABILITY or FITNESS FOR A PARTICULAR
PURPOSE. For details see the documentation. Scientific users of this 
library should cite U. Ekstrom, L. Visscher, R. Bast, A. J. Thorvald-
sen and K. Ruud; J.Chem.Theor.Comp. 2010, DOI: 10.1021/ct100117s
XCFun Version 0.99 
Your calculation utilizes the basis: 6-31G(d)
   H-He, Li-Ne : W. J. Hehre, R. Ditchfield and J.A. Pople, J. Chem. Phys. 56, 2257 (1972).
                 Note: He and Ne are unpublished basis sets taken from the Gaussian program.
                 Note: Li and B from J. D. Dill and J. A. Pople, J. Chem. Phys. 62, 2921 (1975).
   Na - Ar     : M. M. Francl, W. J. Pietro, W. J. Hehre, J. S. Binkley, M. S. Gordon, 
                 D. J. DeFrees and J. A. Pople, J. Chem. Phys. 77, 3654 (1982).
   K - Zn      : V. A. Rassolov, J. A. Pople, M. A. Ratner, and T. L. Windus, J. Chem. Phys. 109, 1223 (1998).

================================================================================
                                        WARNINGS
                       Please study these warnings very carefully!
================================================================================

Warning: TCutStore was < 0. Adjusted to Thresh (uncritical)

INFO   : the flag for use of LIBINT has been found!

================================================================================
                                       INPUT FILE
================================================================================
NAME = initial13.inp
|  1> ! WB97X-D3 6-31G(d) VerySlowConv
|  2> ! KDIIS NOSOSCF
|  3> %base "Scan_13"
|  4> 
|  5> %scf
|  6> maxiter 999
|  7> end
|  8> 
|  9> * xyz 0 1
| 10> C          1.488903238310   -2.847050007708    0.000000008900
| 11> H          3.126008110833   -2.972380765075    0.000000077309
| 12> C          0.899496815705   -1.618085362530    0.000000007542
| 13> H          1.826586421995   -0.262974631529    0.000000288293
| 14> C         -0.459521812498   -1.514043193538    0.000000075966
| 15> H         -1.169537833530   -0.033604854699   -0.000000403939
| 16> C         -1.229134553613   -2.638967863779   -0.000000246627
| 17> H         -2.866239624531   -2.513638155641    0.000000292954
| 18> C         -0.639726506355   -3.867934075860    0.000000028172
| 19> H         -1.566820208043   -5.223042097222    0.000000175219
| 20> C          0.719292666510   -3.971974054404    0.000000067200
| 21> H          1.429303285218   -5.452414938014   -0.000000370988
| 22> **                         ****END OF INPUT****
================================================================================

                       ****************************
                       * Single Point Calculation *
                       ****************************

---------------------------------
CARTESIAN COORDINATES (ANGSTROEM)
---------------------------------
  C      1.488903   -2.847050    0.000000
  H      3.126008   -2.972381    0.000000
  C      0.899497   -1.618085    0.000000
  H      1.826586   -0.262975    0.000000
  C     -0.459522   -1.514043    0.000000
  H     -1.169538   -0.033605   -0.000000
  C     -1.229135   -2.638968   -0.000000
  H     -2.866240   -2.513638    0.000000
  C     -0.639727   -3.867934    0.000000
  H     -1.566820   -5.223042    0.000000
  C      0.719293   -3.971974    0.000000
  H      1.429303   -5.452415   -0.000000

----------------------------
CARTESIAN COORDINATES (A.U.)
----------------------------
  NO LB      ZA    FRAG     MASS         X           Y           Z
   0 C     6.0000    0    12.011    2.813619   -5.380145    0.000000
   1 H     1.0000    0     1.008    5.907299   -5.616986    0.000000
   2 C     6.0000    0    12.011    1.699803   -3.057738    0.000000
   3 H     1.0000    0     1.008    3.451748   -0.496950    0.000001
   4 C     6.0000    0    12.011   -0.868370   -2.861127    0.000000
   5 H     1.0000    0     1.008   -2.210106   -0.063504   -0.000001
   6 C     6.0000    0    12.011   -2.322728   -4.986927   -0.000000
   7 H     1.0000    0     1.008   -5.416408   -4.750088    0.000001
   8 C     6.0000    0    12.011   -1.208908   -7.309336    0.000000
   9 H     1.0000    0     1.008   -2.960861   -9.870119    0.000000
  10 C     6.0000    0    12.011    1.359266   -7.505943    0.000000
  11 H     1.0000    0     1.008    2.700992  -10.303571   -0.000001

--------------------------------
INTERNAL COORDINATES (ANGSTROEM)
--------------------------------
 C      0   0   0     0.000000000000     0.00000000     0.00000000
 H      1   0   0     1.641895295803     0.00000000     0.00000000
 C      1   2   0     1.362994508465   120.00000178     0.00000000
 H      3   1   2     1.641895316811   120.00010230     0.00000000
 C      3   1   2     1.362995379571   120.00003015   180.00000610
 H      5   3   1     1.641895375847   120.00015105   180.00001928
 C      5   3   1     1.362996436167   119.99998314     0.00000000
 H      7   5   3     1.641895413529   120.00004854   179.99998159
 C      7   5   3     1.362996623844   119.99995362     0.00000000
 H      9   7   5     1.641895392913   119.99989786   179.99997840
 C      1   2   3     1.362994696637   119.99995104   180.00000533
 H     11   1   2     1.641895334223   120.00013466     0.00000000

---------------------------
INTERNAL COORDINATES (A.U.)
---------------------------
 C      0   0   0     0.000000000000     0.00000000     0.00000000
 H      1   0   0     3.102732449642     0.00000000     0.00000000
 C      1   2   0     2.575686343037   120.00000178     0.00000000
 H      3   1   2     3.102732489340   120.00010230     0.00000000
 C      3   1   2     2.575687989189   120.00003015   180.00000610
 H      5   3   1     3.102732600902   120.00015105   180.00001928
 C      5   3   1     2.575689985866   119.99998314     0.00000000
 H      7   5   3     3.102732672111   120.00004854   179.99998159
 C      7   5   3     2.575690340524   119.99995362     0.00000000
 H      9   7   5     3.102732633153   119.99989786   179.99997840
 C      1   2   3     2.575686698631   119.99995104   180.00000533
 H     11   1   2     3.102732522244   120.00013466     0.00000000

---------------------
BASIS SET INFORMATION
---------------------
There are 2 groups of distinct atoms

 Group   1 Type C   : 10s4p1d contracted to 3s2p1d pattern {631/31/1}
 Group   2 Type H   : 4s contracted to 2s pattern {31}

Atom   0C    basis set group =>   1
Atom   1H    basis set group =>   2
Atom   2C    basis set group =>   1
Atom   3H    basis set group =>   2
Atom   4C    basis set group =>   1
Atom   5H    basis set group =>   2
Atom   6C    basis set group =>   1
Atom   7H    basis set group =>   2
Atom   8C    basis set group =>   1
Atom   9H    basis set group =>   2
Atom  10C    basis set group =>   1
Atom  11H    basis set group =>   2
------------------------------------------------------------------------------
                           ORCA GTO INTEGRAL CALCULATION
------------------------------------------------------------------------------

                         BASIS SET STATISTICS AND STARTUP INFO

 # of primitive gaussian shells          ...  114
 # of primitive gaussian functions       ...  186
 # of contracted shells                  ...   48
 # of contracted basis functions         ...   96
 Highest angular momentum                ...    2
 Maximum contraction depth               ...    6
 Integral package used                   ... LIBINT
 Integral threshhold            Thresh   ...  1.000e-10
 Primitive cut-off              TCut     ...  1.000e-11


------------------------------ INTEGRAL EVALUATION ----------------------------


 * One electron integrals 
 Pre-screening matrix                    ... done
 Shell pair data                         ... done (   0.001 sec)

-------------------------------------------------------------------------------
                                 ORCA SCF
-------------------------------------------------------------------------------

------------
SCF SETTINGS
------------
Hamiltonian:
 Density Functional     Method          .... DFT(GTOs)
 Exchange Functional    Exchange        .... WB97X-D3
 Correlation Functional Correlation     .... WB97X-D3
 Gradients option       PostSCFGGA      .... off
 Hybrid DFT is turned on
   Fraction HF Exchange ScalHFX         ....  0.195728
   Scaling of DF-GGA-X  ScalDFX         ....  0.000000
   Scaling of DF-GGA-C  ScalDFC         ....  1.000000
   Scaling of DF-LDA-C  ScalLDAC        ....  1.000000
   Perturbative correction              ....  0.000000
 Long-range corrected/Screened/Range-Separated Hybrid DFT is turned on
   Amount of maximum screened exact exchange              ....  0.804272
   Range separation parameter mu (erf(mu*r12)/r12)        ....  0.250000


General Settings:
 Integral files         IntName         .... Scan_13
 Hartree-Fock type      HFTyp           .... RHF
 Total Charge           Charge          ....    0
 Multiplicity           Mult            ....    1
 Number of Electrons    NEL             ....   42
 Basis Dimension        Dim             ....   96
 Nuclear Repulsion      ENuc            ....    195.6019075809 Eh

Convergence Acceleration:
 DIIS                   CNVDIIS         .... on
   Start iteration      DIISMaxIt       ....     0
   Startup error        DIISStart       ....  0.200000
   # of expansion vecs  DIISMaxEq       ....     5
   Bias factor          DIISBfac        ....   1.050
   Max. coefficient     DIISMaxC        ....  10.000
 Newton-Raphson         CNVNR           .... off
 SOSCF                  CNVSOSCF        .... off
 Level Shifting         CNVShift        .... off
 Zerner damping         CNVZerner       .... off
 Static damping         CNVDamp         .... off
 Fernandez-Rico         CNVRico         .... off

SCF Procedure:
 Maximum # iterations   MaxIter         ....   999
 SCF integral mode      SCFMode         .... Direct
   Integral package                     .... LIBINT
 Reset frequeny         DirectResetFreq ....    20
 Integral Threshold     Thresh          ....  1.000e-10 Eh
 Primitive CutOff       TCut            ....  1.000e-11 Eh

Convergence Tolerance:
 Convergence Check Mode ConvCheckMode   .... All-Criteria
 Convergence forced     ConvForced      .... 0
 Energy Change          TolE            ....  1.000e-06 Eh
 Max Density Change     TolMaxP         ....  1.000e-05
 RMS Density Change     TolRMSP         ....  1.000e-06
 DIIS Error             TolErr          ....  1.000e-06


Diagonalization of the overlap matrix:
Smallest eigenvalue                        ... 6.658e-04
Time for diagonalization                   ...    0.003 sec
Threshold for overlap eigenvalues          ... 1.000e-08
Number of eigenvalues below threshold      ... 0
Time for construction of square roots      ...    0.006 sec
Total time needed                          ...    0.008 sec

-------------------
DFT GRID GENERATION
-------------------

General Integration Accuracy     IntAcc      ...  4.340
Radial Grid Type                 RadialGrid  ... Gauss-Chebyshev
Angular Grid (max. acc.)         AngularGrid ... Lebedev-110
Angular grid pruning method      GridPruning ... 3 (G Style)
Weight generation scheme         WeightScheme... Becke
Basis function cutoff            BFCut       ...    1.0000e-10
Integration weight cutoff        WCut        ...    1.0000e-14
Grids for H and He will be reduced by one unit

# of grid points (after initial pruning)     ...  14700 (   0.0 sec)
# of grid points (after weights+screening)   ...  13868 (   0.0 sec)
nearest neighbour list constructed           ...    0.0 sec
Grid point re-assignment to atoms done       ...    0.0 sec
Grid point division into batches done        ...    0.0 sec
Reduced shell lists constructed in    0.2 sec

Total number of grid points                  ...    13868
Total number of batches                      ...      224
Average number of points per batch           ...       61
Average number of grid points per atom       ...     1156
Average number of shells per batch           ...    35.99 (74.98%)
Average number of basis functions per batch  ...    75.29 (78.43%)
Average number of large shells per batch     ...    29.37 (81.61%)
Average number of large basis fcns per batch ...    62.22 (82.64%)
Maximum spatial batch extension              ...  19.47, 19.91, 33.43 au
Average spatial batch extension              ...   3.80,  4.28,  5.21 au

Time for grid setup =    0.242 sec

------------------------------
INITIAL GUESS: MODEL POTENTIAL
------------------------------
Loading Hartree-Fock densities                     ... done
Calculating cut-offs                               ... done
Setting up the integral package                    ... done
Initializing the effective Hamiltonian             ... done
Starting the Coulomb interaction                   ... done (   0.1 sec)
Reading the grid                                   ... done
Mapping shells                                     ... done
Starting the XC term evaluation                    ... done (   0.2 sec)
  promolecular density results
     # of electrons  =     41.993384298
     EX              =    -32.134412401
     EC              =     -1.316103105
     EX+EC           =    -33.450515506
Transforming the Hamiltonian                       ... done (   0.0 sec)
Diagonalizing the Hamiltonian                      ... done (   0.0 sec)
Back transforming the eigenvectors                 ... done (   0.0 sec)
Now organizing SCF variables                       ... done
                      ------------------
                      INITIAL GUESS DONE (   0.6 sec)
                      ------------------
--------------
SCF ITERATIONS
--------------
ITER       Energy         Delta-E        Max-DP      RMS-DP      [F,P]   Gradient Norm
               ***  Starting incremental Fock matrix formation  ***
                             ****Resetting KDIIS****
                             ****Turning on KDIIS(Cayley)****
  0   -231.4413687879   0.000000000000 0.02321883  0.00128026  0.1241684   0.090759152
  1   -231.5213670116  -0.079998223718 0.03273572  0.00194142  0.1020217   0.072656629
  2   -231.6060007837  -0.084633772041 0.02748007  0.00163124  0.0620670   0.048858682
  3   -231.6473782721  -0.041377488418 0.03908389  0.00239176  0.0327054   0.028502915
  4   -231.6647114087  -0.017333136634 0.00830756  0.00065087  0.0154911   0.006303072
  5   -231.6665878157  -0.001876406951 0.01197157  0.00100982  0.0108408   0.004207981
  6   -231.6679320784  -0.001344262751 0.00569496  0.00038807  0.0026213   0.001871388
  7   -231.6680738979  -0.000141819470 0.00079701  0.00004247  0.0007154   0.000593447
  8   -231.6680814046  -0.000007506722 0.00012103  0.00000952  0.0001152   0.000064836
                          ***Energy convergence achieved***
  9   -231.6680815770  -0.000000172351 0.00001667  0.00000135  0.0000143   0.000007681
                           ***RMSP convergence achieved***
                           ***MAXP convergence achieved***
                    *** KDIIS BlockDiag ( 0.001 sec) ***

               *****************************************************
               *                     SUCCESS                       *
               *           SCF CONVERGED AFTER  10 CYCLES          *
               *****************************************************

Setting up the final grid:

General Integration Accuracy     IntAcc      ...  4.670
Radial Grid Type                 RadialGrid  ... Gauss-Chebyshev
Angular Grid (max. acc.)         AngularGrid ... Lebedev-302
Angular grid pruning method      GridPruning ... 3 (G Style)
Weight generation scheme         WeightScheme... Becke
Basis function cutoff            BFCut       ...    1.0000e-10
Integration weight cutoff        WCut        ...    1.0000e-14
Grids for H and He will be reduced by one unit

# of grid points (after initial pruning)     ...  57636 (   0.0 sec)
# of grid points (after weights+screening)   ...  53862 (   0.1 sec)
nearest neighbour list constructed           ...    0.0 sec
Grid point re-assignment to atoms done       ...    0.0 sec
Grid point division into batches done        ...    0.1 sec
Reduced shell lists constructed in    0.8 sec

Total number of grid points                  ...    53862
Total number of batches                      ...      846
Average number of points per batch           ...       63
Average number of grid points per atom       ...     4488
Average number of shells per batch           ...    32.45 (67.60%)
Average number of basis functions per batch  ...    67.51 (70.32%)
Average number of large shells per batch     ...    25.57 (78.79%)
Average number of large basis fcns per batch ...    53.89 (79.83%)
Maximum spatial batch extension              ...  15.64, 18.83, 17.88 au
Average spatial batch extension              ...   2.54,  2.67,  3.00 au

Final grid set up in    0.9 sec
Final integration                            ... done (   0.8 sec)
Change in XC energy                          ...     0.000319998
Integrated number of electrons               ...    42.000000349
Previous integrated no of electrons          ...    41.993089321

----------------
TOTAL SCF ENERGY
----------------

Total Energy       :         -231.66776158 Eh           -6304.00028 eV

Components:
Nuclear Repulsion  :          195.60190758 Eh            5322.59850 eV
Electronic Energy  :         -427.26966916 Eh          -11626.59878 eV
One Electron Energy:         -697.58247183 Eh          -18982.18409 eV
Two Electron Energy:          270.31280267 Eh            7355.58531 eV

Virial components:
Potential Energy   :         -460.22843857 Eh          -12523.45249 eV
Kinetic Energy     :          228.56067699 Eh            6219.45221 eV
Virial Ratio       :            2.01359413


DFT components:
N(Alpha)           :       21.000000174571 electrons
N(Beta)            :       21.000000174571 electrons
N(Total)           :       42.000000349143 electrons
E(XC)              :      -23.187706820444 Eh       

---------------
SCF CONVERGENCE
---------------

  Last Energy change         ...   -4.4063e-09  Tolerance :   1.0000e-06
  Last MAX-Density change    ...    6.2968e-06  Tolerance :   1.0000e-05
  Last RMS-Density change    ...    4.3431e-07  Tolerance :   1.0000e-06
  Last DIIS Error            ...    4.2556e-06  Tolerance :   1.0000e-06

             **** THE GBW FILE WAS UPDATED (Scan_13.gbw) ****
             **** DENSITY FILE WAS UPDATED (Scan_13.scfp.tmp) ****
             **** ENERGY FILE WAS UPDATED (Scan_13.en.tmp) ****
----------------
ORBITAL ENERGIES
----------------

  NO   OCC          E(Eh)            E(eV) 
   0   2.0000     -10.349804      -281.6325 
   1   2.0000     -10.349584      -281.6265 
   2   2.0000     -10.349474      -281.6235 
   3   2.0000     -10.348964      -281.6096 
   4   2.0000     -10.348847      -281.6064 
   5   2.0000     -10.348629      -281.6005 
   6   2.0000      -1.012368       -27.5479 
   7   2.0000      -0.871960       -23.7272 
   8   2.0000      -0.871953       -23.7270 
   9   2.0000      -0.693168       -18.8621 
  10   2.0000      -0.692979       -18.8569 
  11   2.0000      -0.576842       -15.6967 
  12   2.0000      -0.555061       -15.1040 
  13   2.0000      -0.503334       -13.6964 
  14   2.0000      -0.455129       -12.3847 
  15   2.0000      -0.455029       -12.3820 
  16   2.0000      -0.436144       -11.8681 
  17   2.0000      -0.381725       -10.3873 
  18   2.0000      -0.381524       -10.3818 
  19   2.0000      -0.362418        -9.8619 
  20   2.0000      -0.362287        -9.8583 
  21   0.0000      -0.013453        -0.3661 
  22   0.0000       0.054360         1.4792 
  23   0.0000       0.054577         1.4851 
  24   0.0000       0.071269         1.9393 
  25   0.0000       0.071291         1.9399 
  26   0.0000       0.101718         2.7679 
  27   0.0000       0.136319         3.7094 
  28   0.0000       0.136462         3.7133 
  29   0.0000       0.265782         7.2323 
  30   0.0000       0.372610        10.1392 
  31   0.0000       0.373339        10.1591 
  32   0.0000       0.449428        12.2296 
  33   0.0000       0.449650        12.2356 
  34   0.0000       0.554232        15.0814 
  35   0.0000       0.596665        16.2361 
  36   0.0000       0.619550        16.8588 
  37   0.0000       0.627270        17.0689 
  38   0.0000       0.674738        18.3606 
  39   0.0000       0.674968        18.3668 
  40   0.0000       0.700106        19.0509 
  41   0.0000       0.712878        19.3984 
  42   0.0000       0.713057        19.4033 
  43   0.0000       0.714123        19.4323 
  44   0.0000       0.714369        19.4390 
  45   0.0000       0.751357        20.4455 
  46   0.0000       0.751728        20.4556 
  47   0.0000       0.770133        20.9564 
  48   0.0000       0.770607        20.9693 
  49   0.0000       0.796561        21.6755 
  50   0.0000       0.796845        21.6832 
  51   0.0000       0.819162        22.2905 
  52   0.0000       0.836254        22.7556 
  53   0.0000       0.845184        22.9986 
  54   0.0000       0.863830        23.5060 
  55   0.0000       1.035560        28.1790 
  56   0.0000       1.035826        28.1863 
  57   0.0000       1.064364        28.9628 
  58   0.0000       1.194486        32.5036 
  59   0.0000       1.194569        32.5059 
  60   0.0000       1.204419        32.7739 
  61   0.0000       1.215262        33.0690 
  62   0.0000       1.215534        33.0764 
  63   0.0000       1.268837        34.5268 
  64   0.0000       1.268940        34.5296 
  65   0.0000       1.325101        36.0578 
  66   0.0000       1.468556        39.9614 
  67   0.0000       1.469239        39.9800 
  68   0.0000       1.574016        42.8312 
  69   0.0000       1.574206        42.8363 
  70   0.0000       1.608797        43.7776 
  71   0.0000       1.609196        43.7884 
  72   0.0000       1.767072        48.0845 
  73   0.0000       1.769231        48.1432 
  74   0.0000       1.770292        48.1721 
  75   0.0000       1.877240        51.0823 
  76   0.0000       1.900200        51.7071 
  77   0.0000       2.190541        59.6077 
  78   0.0000       2.190889        59.6171 
  79   0.0000       2.260139        61.5015 
  80   0.0000       2.260505        61.5115 
  81   0.0000       2.268098        61.7181 
  82   0.0000       2.269294        61.7506 
  83   0.0000       2.412602        65.6502 
  84   0.0000       2.412974        65.6604 
  85   0.0000       2.458114        66.8887 
  86   0.0000       2.519241        68.5520 
  87   0.0000       2.520127        68.5761 
  88   0.0000       2.772785        75.4513 
  89   0.0000       2.773911        75.4820 
  90   0.0000       2.795250        76.0626 
  91   0.0000       2.805354        76.3376 
  92   0.0000       2.862646        77.8966 
  93   0.0000       2.863967        77.9325 
  94   0.0000       3.159445        85.9729 
  95   0.0000       3.418166        93.0130 

                    ********************************
                    * MULLIKEN POPULATION ANALYSIS *
                    ********************************

-----------------------
MULLIKEN ATOMIC CHARGES
-----------------------
   0 C :   -0.086639
   1 H :    0.086682
   2 C :   -0.087731
   3 H :    0.087338
   4 C :   -0.087284
   5 H :    0.087630
   6 C :   -0.086627
   7 H :    0.086678
   8 C :   -0.087724
   9 H :    0.087335
  10 C :   -0.087289
  11 H :    0.087632
Sum of atomic charges:   -0.0000000

--------------------------------
MULLIKEN REDUCED ORBITAL CHARGES
--------------------------------
  0 C s       :     3.188556  s :     3.188556
      pz      :     0.988284  p :     2.861833
      px      :     0.996431
      py      :     0.877118
      dz2     :     0.002681  d :     0.036250
      dxz     :     0.004083
      dyz     :     0.007384
      dx2y2   :     0.009818
      dxy     :     0.012283
  1 H s       :     0.913318  s :     0.913318
  2 C s       :     3.187485  s :     3.187485
      pz      :     0.988810  p :     2.863944
      px      :     0.915984
      py      :     0.959149
      dz2     :     0.002662  d :     0.036303
      dxz     :     0.006351
      dyz     :     0.005140
      dx2y2   :     0.012056
      dxy     :     0.010094
  3 H s       :     0.912662  s :     0.912662
  4 C s       :     3.188109  s :     3.188109
      pz      :     0.988475  p :     2.862927
      px      :     0.900343
      py      :     0.974110
      dz2     :     0.002682  d :     0.036249
      dxz     :     0.006791
      dyz     :     0.004686
      dx2y2   :     0.011299
      dxy     :     0.010791
  5 H s       :     0.912370  s :     0.912370
  6 C s       :     3.188555  s :     3.188555
      pz      :     0.988279  p :     2.861823
      px      :     0.996427
      py      :     0.877116
      dz2     :     0.002681  d :     0.036250
      dxz     :     0.004083
      dyz     :     0.007384
      dx2y2   :     0.009818
      dxy     :     0.012283
  7 H s       :     0.913322  s :     0.913322
  8 C s       :     3.187485  s :     3.187485
      pz      :     0.988808  p :     2.863937
      px      :     0.915982
      py      :     0.959147
      dz2     :     0.002662  d :     0.036302
      dxz     :     0.006351
      dyz     :     0.005140
      dx2y2   :     0.012056
      dxy     :     0.010094
  9 H s       :     0.912665  s :     0.912665
 10 C s       :     3.188109  s :     3.188109
      pz      :     0.988476  p :     2.862931
      px      :     0.900344
      py      :     0.974110
      dz2     :     0.002682  d :     0.036249
      dxz     :     0.006791
      dyz     :     0.004686
      dx2y2   :     0.011299
      dxy     :     0.010791
 11 H s       :     0.912368  s :     0.912368


                     *******************************
                     * LOEWDIN POPULATION ANALYSIS *
                     *******************************

----------------------
LOEWDIN ATOMIC CHARGES
----------------------
   0 C :   -0.084599
   1 H :    0.084561
   2 C :   -0.085027
   3 H :    0.084855
   4 C :   -0.084841
   5 H :    0.085047
   6 C :   -0.084590
   7 H :    0.084557
   8 C :   -0.085021
   9 H :    0.084853
  10 C :   -0.084845
  11 H :    0.085049

-------------------------------
LOEWDIN REDUCED ORBITAL CHARGES
-------------------------------
  0 C s       :     2.952886  s :     2.952886
      pz      :     0.978796  p :     3.047630
      px      :     1.000695
      py      :     1.068139
      dz2     :     0.005691  d :     0.084083
      dxz     :     0.005188
      dyz     :     0.015866
      dx2y2   :     0.025765
      dxy     :     0.031572
  1 H s       :     0.915439  s :     0.915439
  2 C s       :     2.952843  s :     2.952843
      pz      :     0.979147  p :     3.048039
      px      :     1.046882
      py      :     1.022011
      dz2     :     0.005682  d :     0.084145
      dxz     :     0.012499
      dyz     :     0.008580
      dx2y2   :     0.030972
      dxy     :     0.026411
  3 H s       :     0.915145  s :     0.915145
  4 C s       :     2.952851  s :     2.952851
      pz      :     0.978867  p :     3.047917
      px      :     1.056478
      py      :     1.012572
      dz2     :     0.005696  d :     0.084073
      dxz     :     0.013920
      dyz     :     0.007138
      dx2y2   :     0.029300
      dxy     :     0.028018
  5 H s       :     0.914953  s :     0.914953
  6 C s       :     2.952886  s :     2.952886
      pz      :     0.978792  p :     3.047622
      px      :     1.000692
      py      :     1.068137
      dz2     :     0.005691  d :     0.084082
      dxz     :     0.005188
      dyz     :     0.015866
      dx2y2   :     0.025765
      dxy     :     0.031572
  7 H s       :     0.915443  s :     0.915443
  8 C s       :     2.952843  s :     2.952843
      pz      :     0.979144  p :     3.048034
      px      :     1.046880
      py      :     1.022009
      dz2     :     0.005682  d :     0.084144
      dxz     :     0.012499
      dyz     :     0.008580
      dx2y2   :     0.030972
      dxy     :     0.026411
  9 H s       :     0.915147  s :     0.915147
 10 C s       :     2.952851  s :     2.952851
      pz      :     0.978869  p :     3.047921
      px      :     1.056479
      py      :     1.012573
      dz2     :     0.005696  d :     0.084073
      dxz     :     0.013920
      dyz     :     0.007139
      dx2y2   :     0.029300
      dxy     :     0.028018
 11 H s       :     0.914951  s :     0.914951


                      *****************************
                      * MAYER POPULATION ANALYSIS *
                      *****************************

  NA   - Mulliken gross atomic population
  ZA   - Total nuclear charge
  QA   - Mulliken gross atomic charge
  VA   - Mayer's total valence
  BVA  - Mayer's bonded valence
  FA   - Mayer's free valence

  ATOM       NA         ZA         QA         VA         BVA        FA
  0 C      6.0866     6.0000    -0.0866     3.9499     3.9499    -0.0000
  1 H      0.9133     1.0000     0.0867     0.9835     0.9835     0.0000
  2 C      6.0877     6.0000    -0.0877     3.9505     3.9505     0.0000
  3 H      0.9127     1.0000     0.0873     0.9834     0.9834     0.0000
  4 C      6.0873     6.0000    -0.0873     3.9499     3.9499     0.0000
  5 H      0.9124     1.0000     0.0876     0.9833     0.9833    -0.0000
  6 C      6.0866     6.0000    -0.0866     3.9499     3.9499     0.0000
  7 H      0.9133     1.0000     0.0867     0.9835     0.9835     0.0000
  8 C      6.0877     6.0000    -0.0877     3.9505     3.9505    -0.0000
  9 H      0.9127     1.0000     0.0873     0.9834     0.9834     0.0000
 10 C      6.0873     6.0000    -0.0873     3.9499     3.9499    -0.0000
 11 H      0.9124     1.0000     0.0876     0.9833     0.9833    -0.0000

  Mayer bond orders larger than 0.1
B(  0-C ,  1-H ) :   0.9067 B(  0-C ,  2-C ) :   1.4578 B(  0-C , 10-C ) :   1.4575 
B(  2-C ,  3-H ) :   0.9065 B(  2-C ,  4-C ) :   1.4582 B(  4-C ,  5-H ) :   0.9062 
B(  4-C ,  6-C ) :   1.4575 B(  6-C ,  7-H ) :   0.9067 B(  6-C ,  8-C ) :   1.4578 
B(  8-C ,  9-H ) :   0.9065 B(  8-C , 10-C ) :   1.4582 B( 10-C , 11-H ) :   0.9062 


-------
TIMINGS
-------

Total SCF time: 0 days 0 hours 0 min 43 sec 

Total time                  ....      43.483 sec
Sum of individual times     ....      43.306 sec  ( 99.6%)

Fock matrix formation       ....      41.777 sec  ( 96.1%)
  XC integration            ....       3.342 sec  (  8.0% of F)
    Basis function eval.    ....       1.661 sec  ( 49.7% of XC)
    Density eval.           ....       0.269 sec  (  8.1% of XC)
    XC-Functional eval.     ....       0.606 sec  ( 18.1% of XC)
    XC-Potential eval.      ....       0.474 sec  ( 14.2% of XC)
Diagonalization             ....       0.012 sec  (  0.0%)
Density matrix formation    ....       0.001 sec  (  0.0%)
Population analysis         ....       0.018 sec  (  0.0%)
Initial guess               ....       0.387 sec  (  0.9%)
Orbital Transformation      ....       0.000 sec  (  0.0%)
Orbital Orthonormalization  ....       0.000 sec  (  0.0%)
DIIS solution               ....       0.000 sec  (  0.0%)
Grid generation             ....       1.110 sec  (  2.6%)


-------------------------------------------------------------------------------
                          DFT DISPERSION CORRECTION                            
                                                                               
                              DFTD3 V3.1  Rev 1                                
                              USING zero damping                               
-------------------------------------------------------------------------------
The omegaB97X-D3 functional is recognized. Fit by Chai et al.
Active option DFTDOPT                   ...         3   

molecular C6(AA) [au] = 2319.952403 


            DFT-D V3
 parameters
 s6 scaling factor         :     1.0000 
 rs6 scaling factor        :     1.2810 
 s8 scaling factor         :     1.0000 
 rs8 scaling factor        :     1.0940 
 Damping factor alpha6     :    14.0000 
 Damping factor alpha8     :    16.0000 
 ad hoc parameters k1-k3   :    16.0000     1.3333    -4.0000 

 Edisp/kcal,au: -2.274851652112  -0.003625206477 
 E6   /kcal   :  -1.083276250 
 E8   /kcal   :  -1.191575403 
 % E8         :  52.380356381 

-------------------------   ----------------
Dispersion correction           -0.003625206
-------------------------   ----------------


-------------------------   --------------------
FINAL SINGLE POINT ENERGY      -231.671386790123
-------------------------   --------------------


                            ***************************************
                            *     ORCA property calculations      *
                            ***************************************

                                    ---------------------
                                    Active property flags
                                    ---------------------
   (+) Dipole Moment


------------------------------------------------------------------------------
                       ORCA ELECTRIC PROPERTIES CALCULATION
------------------------------------------------------------------------------

Dipole Moment Calculation                       ... on
Quadrupole Moment Calculation                   ... off
Polarizability Calculation                      ... off
GBWName                                         ... Scan_13.gbw
Electron density file                           ... Scan_13.scfp.tmp

-------------
DIPOLE MOMENT
-------------
                                X             Y             Z
Electronic contribution:     -0.00000      -0.00000      -0.00000
Nuclear contribution   :     -0.00001      -0.00000       0.00000
                        -----------------------------------------
Total Dipole Moment    :     -0.00001      -0.00000       0.00000
                        -----------------------------------------
Magnitude (a.u.)       :      0.00001
Magnitude (Debye)      :      0.00003


Timings for individual modules:

Sum of individual times         ...       43.838 sec (=   0.731 min)
GTO integral calculation        ...        0.329 sec (=   0.005 min)   0.8 %
SCF iterations                  ...       43.509 sec (=   0.725 min)  99.2 %
                             ****ORCA TERMINATED NORMALLY****
TOTAL RUN TIME: 0 days 0 hours 0 minutes 44 seconds 166 msec
