
                                 *****************
                                 * O   R   C   A *
                                 *****************

           --- An Ab Initio, DFT and Semiempirical electronic structure package ---

                  #######################################################
                  #                        -***-                        #
                  #  Department of molecular theory and spectroscopy    #
                  #              Directorship: Frank Neese              #
                  # Max Planck Institute for Chemical Energy Conversion #
                  #                  D-45470 Muelheim/Ruhr              #
                  #                       Germany                       #
                  #                                                     #
                  #                  All rights reserved                #
                  #                        -***-                        #
                  #######################################################


                         Program Version 4.0.0.2 - RELEASE -


 With contributions from (in alphabetic order):
   Daniel Aravena         : Magnetic Properties
   Michael Atanasov       : Ab Initio Ligand Field Theory
   Ute Becker             : Parallelization
   Martin Brehm           : Molecular dynamics
   Dmytro Bykov           : SCF Hessian
   Vijay G. Chilkuri      : MRCI spin determinant printing
   Dipayan Datta          : RHF DLPNO-CCSD density
   Achintya Kumar Dutta   : EOM-CC, STEOM-CC
   Dmitry Ganyushin       : Spin-Orbit,Spin-Spin,Magnetic field MRCI
   Yang Guo               : DLPNO-NEVPT2, CIM, IAO-localization
   Andreas Hansen         : Spin unrestricted coupled pair/coupled cluster methods
   Lee Huntington         : MR-EOM, pCC
   Robert Izsak           : Overlap fitted RIJCOSX, COSX-SCS-MP3, EOM
   Christian Kollmar      : KDIIS, OOCD, Brueckner-CCSD(T), CCSD density
   Simone Kossmann        : Meta GGA functionals, TD-DFT gradient, OOMP2, MP2 Hessian
   Martin Krupicka        : AUTO-CI
   Dagmar Lenk            : GEPOL surface
   Dimitrios Liakos       : Extrapolation schemes; parallel MDCI
   Dimitrios Manganas     : ROCIS; embedding schemes
   Dimitrios Pantazis     : SARC Basis sets
   Taras Petrenko         : DFT Hessian,TD-DFT gradient, ASA, ECA, R-Raman, ABS, FL, XAS/XES, NRVS
   Peter Pinski           : DLPNO-MP2
   Christoph Reimann      : Effective Core Potentials
   Marius Retegan         : Local ZFS, SOC
   Christoph Riplinger    : Optimizer, TS searches, QM/MM, DLPNO-CCSD(T), (RO)-DLPNO pert. Triples
   Tobias Risthaus        : Range-separated hybrids, TD-DFT gradient, RPA, STAB
   Michael Roemelt        : Restricted open shell CIS
   Masaaki Saitow         : Open-shell DLPNO
   Barbara Sandhoefer     : DKH picture change effects
   Kantharuban Sivalingam : CASSCF convergence, NEVPT2, FIC-MRCI
   Georgi Stoychev        : AutoAux
   Boris Wezisla          : Elementary symmetry handling
   Frank Wennmohs         : Technical directorship


 We gratefully acknowledge several colleagues who have allowed us to
 interface, adapt or use parts of their codes:
   Stefan Grimme, W. Hujo, H. Kruse,             : VdW corrections, initial TS optimization,
                  C. Bannwarth                     DFT functionals, gCP, sTDA/sTD-DF
   Ed Valeev                                     : LibInt (2-el integral package), F12 methods
   Garnet Chan, S. Sharma, J. Yang, R. Olivares  : DMRG
   Ulf Ekstrom                                   : XCFun DFT Library
   Mihaly Kallay                                 : mrcc  (arbitrary order and MRCC methods)
   Jiri Pittner, Ondrej Demel                    : Mk-CCSD
   Frank Weinhold                                : gennbo (NPA and NBO analysis)
   Christopher J. Cramer and Donald G. Truhlar   : smd solvation model


 Your calculation uses the libint2 library for the computation of 2-el integrals
 For citations please refer to: http://libint.valeyev.net

 This ORCA versions uses:
   CBLAS   interface :  Fast vector & matrix operations
   LAPACKE interface :  Fast linear algebra routines
   SCALAPACK package :  Parallel linear algebra routines


Your calculation utilizes the atom-pairwise dispersion correction
with the zero-damping scheme (D30)
Cite in your paper:
S.Grimme, J.Antony, S.Ehrlich and H.Krieg, J.Chem.Phys., 132, (2010), 154104 
   

XCFun DFT library Copyright 2009-2010 Ulf Ekstrom and contributors.
See http://admol.org/xcfun for more information. This is free soft-
ware; see the source code for copying conditions. There is ABSOLUTELY
NO WARRANTY; not even for MERCHANTABILITY or FITNESS FOR A PARTICULAR
PURPOSE. For details see the documentation. Scientific users of this 
library should cite U. Ekstrom, L. Visscher, R. Bast, A. J. Thorvald-
sen and K. Ruud; J.Chem.Theor.Comp. 2010, DOI: 10.1021/ct100117s
XCFun Version 0.99 
Your calculation utilizes the basis: 6-31G(d)
   H-He, Li-Ne : W. J. Hehre, R. Ditchfield and J.A. Pople, J. Chem. Phys. 56, 2257 (1972).
                 Note: He and Ne are unpublished basis sets taken from the Gaussian program.
                 Note: Li and B from J. D. Dill and J. A. Pople, J. Chem. Phys. 62, 2921 (1975).
   Na - Ar     : M. M. Francl, W. J. Pietro, W. J. Hehre, J. S. Binkley, M. S. Gordon, 
                 D. J. DeFrees and J. A. Pople, J. Chem. Phys. 77, 3654 (1982).
   K - Zn      : V. A. Rassolov, J. A. Pople, M. A. Ratner, and T. L. Windus, J. Chem. Phys. 109, 1223 (1998).

================================================================================
                                        WARNINGS
                       Please study these warnings very carefully!
================================================================================

Warning: TCutStore was < 0. Adjusted to Thresh (uncritical)

INFO   : the flag for use of LIBINT has been found!

================================================================================
                                       INPUT FILE
================================================================================
NAME = initial15.inp
|  1> ! WB97X-D3 6-31G(d) VerySlowConv
|  2> ! KDIIS NOSOSCF
|  3> %base "Scan_15"
|  4> 
|  5> %scf
|  6> maxiter 999
|  7> end
|  8> 
|  9> * xyz 0 1
| 10> C          1.479910589028   -2.846361811008   -0.000000178744
| 11> H          3.338397826285   -2.988640173683    0.000000258917
| 12> C          0.894403411104   -1.625528284157    0.000000303320
| 13> H          1.946863768922   -0.087170344969   -0.000000059578
| 14> C         -0.455623050699   -1.522175596107    0.000000070195
| 15> H         -1.261649946700    0.158460776162   -0.000000299610
| 16> C         -1.220142319065   -2.639656514930   -0.000000067668
| 17> H         -3.078629564034   -2.497378133592    0.000000288364
| 18> C         -0.634635091335   -3.860490089819    0.000000049014
| 19> H         -1.687095383750   -5.398848080889   -0.000000032556
| 20> C          0.715391387167   -3.963842710717   -0.000000113334
| 21> H          1.521418373077   -5.644479036291   -0.000000218319
| 22> **                         ****END OF INPUT****
================================================================================

                       ****************************
                       * Single Point Calculation *
                       ****************************

---------------------------------
CARTESIAN COORDINATES (ANGSTROEM)
---------------------------------
  C      1.479911   -2.846362   -0.000000
  H      3.338398   -2.988640    0.000000
  C      0.894403   -1.625528    0.000000
  H      1.946864   -0.087170   -0.000000
  C     -0.455623   -1.522176    0.000000
  H     -1.261650    0.158461   -0.000000
  C     -1.220142   -2.639657   -0.000000
  H     -3.078630   -2.497378    0.000000
  C     -0.634635   -3.860490    0.000000
  H     -1.687095   -5.398848   -0.000000
  C      0.715391   -3.963843   -0.000000
  H      1.521418   -5.644479   -0.000000

----------------------------
CARTESIAN COORDINATES (A.U.)
----------------------------
  NO LB      ZA    FRAG     MASS         X           Y           Z
   0 C     6.0000    0    12.011    2.796626   -5.378844   -0.000000
   1 H     1.0000    0     1.008    6.308658   -5.647711    0.000000
   2 C     6.0000    0    12.011    1.690178   -3.071803    0.000001
   3 H     1.0000    0     1.008    3.679039   -0.164728   -0.000000
   4 C     6.0000    0    12.011   -0.861003   -2.876495    0.000000
   5 H     1.0000    0     1.008   -2.384173    0.299447   -0.000001
   6 C     6.0000    0    12.011   -2.305735   -4.988228   -0.000000
   7 H     1.0000    0     1.008   -5.817767   -4.719361    0.000001
   8 C     6.0000    0    12.011   -1.199287   -7.295269    0.000000
   9 H     1.0000    0     1.008   -3.188148  -10.202344   -0.000000
  10 C     6.0000    0    12.011    1.351894   -7.490577   -0.000000
  11 H     1.0000    0     1.008    2.875064  -10.666520   -0.000000

--------------------------------
INTERNAL COORDINATES (ANGSTROEM)
--------------------------------
 C      0   0   0     0.000000000000     0.00000000     0.00000000
 H      1   0   0     1.863925412545     0.00000000     0.00000000
 C      1   2   0     1.353976792890   119.99999834     0.00000000
 H      3   1   2     1.863925415311   119.99999938     0.00000000
 C      3   1   2     1.353976818744   120.00000054   180.00000409
 H      5   3   1     1.863925420415   120.00000052   180.00003668
 C      5   3   1     1.353976851957   119.99999822     0.00000000
 H      7   5   3     1.863925421660   119.99999987   179.99997599
 C      7   5   3     1.353976857742   120.00000021     0.00000000
 H      9   7   5     1.863925421201   120.00000092   179.99999618
 C      1   2   3     1.353976798630   119.99999856   180.00004228
 H     11   1   2     1.863925417192   120.00000002     0.00000000

---------------------------
INTERNAL COORDINATES (A.U.)
---------------------------
 C      0   0   0     0.000000000000     0.00000000     0.00000000
 H      1   0   0     3.522308563767     0.00000000     0.00000000
 C      1   2   0     2.558645330247   119.99999834     0.00000000
 H      3   1   2     3.522308568993   119.99999938     0.00000000
 C      3   1   2     2.558645379104   120.00000054   180.00000409
 H      5   3   1     3.522308578639   120.00000052   180.00003668
 C      5   3   1     2.558645441868   119.99999822     0.00000000
 H      7   5   3     3.522308580990   119.99999987   179.99997599
 C      7   5   3     2.558645452799   120.00000021     0.00000000
 H      9   7   5     3.522308580124   120.00000092   179.99999618
 C      1   2   3     2.558645341094   119.99999856   180.00004228
 H     11   1   2     3.522308572548   120.00000002     0.00000000

---------------------
BASIS SET INFORMATION
---------------------
There are 2 groups of distinct atoms

 Group   1 Type C   : 10s4p1d contracted to 3s2p1d pattern {631/31/1}
 Group   2 Type H   : 4s contracted to 2s pattern {31}

Atom   0C    basis set group =>   1
Atom   1H    basis set group =>   2
Atom   2C    basis set group =>   1
Atom   3H    basis set group =>   2
Atom   4C    basis set group =>   1
Atom   5H    basis set group =>   2
Atom   6C    basis set group =>   1
Atom   7H    basis set group =>   2
Atom   8C    basis set group =>   1
Atom   9H    basis set group =>   2
Atom  10C    basis set group =>   1
Atom  11H    basis set group =>   2
------------------------------------------------------------------------------
                           ORCA GTO INTEGRAL CALCULATION
------------------------------------------------------------------------------

                         BASIS SET STATISTICS AND STARTUP INFO

 # of primitive gaussian shells          ...  114
 # of primitive gaussian functions       ...  186
 # of contracted shells                  ...   48
 # of contracted basis functions         ...   96
 Highest angular momentum                ...    2
 Maximum contraction depth               ...    6
 Integral package used                   ... LIBINT
 Integral threshhold            Thresh   ...  1.000e-10
 Primitive cut-off              TCut     ...  1.000e-11


------------------------------ INTEGRAL EVALUATION ----------------------------


 * One electron integrals 
 Pre-screening matrix                    ... done
 Shell pair data                         ... done (   0.001 sec)

-------------------------------------------------------------------------------
                                 ORCA SCF
-------------------------------------------------------------------------------

------------
SCF SETTINGS
------------
Hamiltonian:
 Density Functional     Method          .... DFT(GTOs)
 Exchange Functional    Exchange        .... WB97X-D3
 Correlation Functional Correlation     .... WB97X-D3
 Gradients option       PostSCFGGA      .... off
 Hybrid DFT is turned on
   Fraction HF Exchange ScalHFX         ....  0.195728
   Scaling of DF-GGA-X  ScalDFX         ....  0.000000
   Scaling of DF-GGA-C  ScalDFC         ....  1.000000
   Scaling of DF-LDA-C  ScalLDAC        ....  1.000000
   Perturbative correction              ....  0.000000
 Long-range corrected/Screened/Range-Separated Hybrid DFT is turned on
   Amount of maximum screened exact exchange              ....  0.804272
   Range separation parameter mu (erf(mu*r12)/r12)        ....  0.250000


General Settings:
 Integral files         IntName         .... Scan_15
 Hartree-Fock type      HFTyp           .... RHF
 Total Charge           Charge          ....    0
 Multiplicity           Mult            ....    1
 Number of Electrons    NEL             ....   42
 Basis Dimension        Dim             ....   96
 Nuclear Repulsion      ENuc            ....    193.4367937009 Eh

Convergence Acceleration:
 DIIS                   CNVDIIS         .... on
   Start iteration      DIISMaxIt       ....     0
   Startup error        DIISStart       ....  0.200000
   # of expansion vecs  DIISMaxEq       ....     5
   Bias factor          DIISBfac        ....   1.050
   Max. coefficient     DIISMaxC        ....  10.000
 Newton-Raphson         CNVNR           .... off
 SOSCF                  CNVSOSCF        .... off
 Level Shifting         CNVShift        .... off
 Zerner damping         CNVZerner       .... off
 Static damping         CNVDamp         .... off
 Fernandez-Rico         CNVRico         .... off

SCF Procedure:
 Maximum # iterations   MaxIter         ....   999
 SCF integral mode      SCFMode         .... Direct
   Integral package                     .... LIBINT
 Reset frequeny         DirectResetFreq ....    20
 Integral Threshold     Thresh          ....  1.000e-10 Eh
 Primitive CutOff       TCut            ....  1.000e-11 Eh

Convergence Tolerance:
 Convergence Check Mode ConvCheckMode   .... All-Criteria
 Convergence forced     ConvForced      .... 0
 Energy Change          TolE            ....  1.000e-06 Eh
 Max Density Change     TolMaxP         ....  1.000e-05
 RMS Density Change     TolRMSP         ....  1.000e-06
 DIIS Error             TolErr          ....  1.000e-06


Diagonalization of the overlap matrix:
Smallest eigenvalue                        ... 7.684e-04
Time for diagonalization                   ...    0.002 sec
Threshold for overlap eigenvalues          ... 1.000e-08
Number of eigenvalues below threshold      ... 0
Time for construction of square roots      ...    0.006 sec
Total time needed                          ...    0.008 sec

-------------------
DFT GRID GENERATION
-------------------

General Integration Accuracy     IntAcc      ...  4.340
Radial Grid Type                 RadialGrid  ... Gauss-Chebyshev
Angular Grid (max. acc.)         AngularGrid ... Lebedev-110
Angular grid pruning method      GridPruning ... 3 (G Style)
Weight generation scheme         WeightScheme... Becke
Basis function cutoff            BFCut       ...    1.0000e-10
Integration weight cutoff        WCut        ...    1.0000e-14
Grids for H and He will be reduced by one unit

# of grid points (after initial pruning)     ...  14700 (   0.0 sec)
# of grid points (after weights+screening)   ...  13908 (   0.0 sec)
nearest neighbour list constructed           ...    0.0 sec
Grid point re-assignment to atoms done       ...    0.0 sec
Grid point division into batches done        ...    0.0 sec
Reduced shell lists constructed in    0.2 sec

Total number of grid points                  ...    13908
Total number of batches                      ...      222
Average number of points per batch           ...       62
Average number of grid points per atom       ...     1159
Average number of shells per batch           ...    35.36 (73.67%)
Average number of basis functions per batch  ...    73.99 (77.07%)
Average number of large shells per batch     ...    28.50 (80.60%)
Average number of large basis fcns per batch ...    60.82 (82.19%)
Maximum spatial batch extension              ...  17.55, 20.05, 25.60 au
Average spatial batch extension              ...   3.92,  4.27,  5.33 au

Time for grid setup =    0.246 sec

------------------------------
INITIAL GUESS: MODEL POTENTIAL
------------------------------
Loading Hartree-Fock densities                     ... done
Calculating cut-offs                               ... done
Setting up the integral package                    ... done
Initializing the effective Hamiltonian             ... done
Starting the Coulomb interaction                   ... done (   0.1 sec)
Reading the grid                                   ... done
Mapping shells                                     ... done
Starting the XC term evaluation                    ... done (   0.2 sec)
  promolecular density results
     # of electrons  =     41.994783268
     EX              =    -32.089503582
     EC              =     -1.299294736
     EX+EC           =    -33.388798318
Transforming the Hamiltonian                       ... done (   0.0 sec)
Diagonalizing the Hamiltonian                      ... done (   0.0 sec)
Back transforming the eigenvectors                 ... done (   0.0 sec)
Now organizing SCF variables                       ... done
                      ------------------
                      INITIAL GUESS DONE (   0.6 sec)
                      ------------------
--------------
SCF ITERATIONS
--------------
ITER       Energy         Delta-E        Max-DP      RMS-DP      [F,P]   Gradient Norm
               ***  Starting incremental Fock matrix formation  ***
                             ****Resetting KDIIS****
                             ****Turning on KDIIS(Cayley)****
  0   -231.1232715052   0.000000000000 0.02568622  0.00142155  0.1403868   0.102397219
  1   -231.2255754189  -0.102303913661 0.04129822  0.00241325  0.1182229   0.082622539
  2   -231.3488995340  -0.123324115090 0.05666098  0.00316397  0.0750189   0.053565058
  3   -231.4193760138  -0.070476479860 0.03011091  0.00205524  0.0196137   0.019011429
  4   -231.4229147424  -0.003538728516 0.01198722  0.00093185  0.0219860   0.009465451
  5   -231.4276179826  -0.004703240213 0.01786004  0.00118594  0.0119006   0.005534655
  6   -231.4298236387  -0.002205656114 0.00475116  0.00032023  0.0037189   0.001383650
  7   -231.4300356584  -0.000212019726 0.00071502  0.00007168  0.0006402   0.000334044
  8   -231.4300426913  -0.000007032895 0.00032586  0.00001799  0.0002421   0.000205651
                          ***Energy convergence achieved***
  9   -231.4300436585  -0.000000967221 0.00014163  0.00000765  0.0000863   0.000064680

            ***Energy convergence in two consecutive cycles with***
                    ***'reasonable' density convergence***
                       *** signaling convergence ***

                    *** KDIIS BlockDiag ( 0.001 sec) ***

               *****************************************************
               *                     SUCCESS                       *
               *           SCF CONVERGED AFTER  10 CYCLES          *
               *****************************************************

Setting up the final grid:

General Integration Accuracy     IntAcc      ...  4.670
Radial Grid Type                 RadialGrid  ... Gauss-Chebyshev
Angular Grid (max. acc.)         AngularGrid ... Lebedev-302
Angular grid pruning method      GridPruning ... 3 (G Style)
Weight generation scheme         WeightScheme... Becke
Basis function cutoff            BFCut       ...    1.0000e-10
Integration weight cutoff        WCut        ...    1.0000e-14
Grids for H and He will be reduced by one unit

# of grid points (after initial pruning)     ...  57636 (   0.0 sec)
# of grid points (after weights+screening)   ...  54014 (   0.1 sec)
nearest neighbour list constructed           ...    0.0 sec
Grid point re-assignment to atoms done       ...    0.0 sec
Grid point division into batches done        ...    0.2 sec
Reduced shell lists constructed in    0.8 sec

Total number of grid points                  ...    54014
Total number of batches                      ...      852
Average number of points per batch           ...       63
Average number of grid points per atom       ...     4501
Average number of shells per batch           ...    31.74 (66.12%)
Average number of basis functions per batch  ...    66.32 (69.08%)
Average number of large shells per batch     ...    24.68 (77.77%)
Average number of large basis fcns per batch ...    52.38 (78.99%)
Maximum spatial batch extension              ...  15.65, 16.69, 17.88 au
Average spatial batch extension              ...   2.56,  2.68,  3.00 au

Final grid set up in    0.9 sec
Final integration                            ... done (   0.8 sec)
Change in XC energy                          ...     0.000508783
Integrated number of electrons               ...    41.999983647
Previous integrated no of electrons          ...    41.994035563

----------------
TOTAL SCF ENERGY
----------------

Total Energy       :         -231.42953500 Eh           -6297.51781 eV

Components:
Nuclear Repulsion  :          193.43679370 Eh            5263.68276 eV
Electronic Energy  :         -424.86632871 Eh          -11561.20056 eV
One Electron Energy:         -692.69770199 Eh          -18849.26275 eV
Two Electron Energy:          267.83137328 Eh            7288.06218 eV

Virial components:
Potential Energy   :         -459.80154755 Eh          -12511.83620 eV
Kinetic Energy     :          228.37201254 Eh            6214.31839 eV
Virial Ratio       :            2.01338834


DFT components:
N(Alpha)           :       20.999991823312 electrons
N(Beta)            :       20.999991823312 electrons
N(Total)           :       41.999983646623 electrons
E(XC)              :      -23.075935892578 Eh       

---------------
SCF CONVERGENCE
---------------

  Last Energy change         ...   -1.2872e-07  Tolerance :   1.0000e-06
  Last MAX-Density change    ...    3.4479e-05  Tolerance :   1.0000e-05
  Last RMS-Density change    ...    2.3442e-06  Tolerance :   1.0000e-06
  Last DIIS Error            ...    5.1091e-05  Tolerance :   1.0000e-06

             **** THE GBW FILE WAS UPDATED (Scan_15.gbw) ****
             **** DENSITY FILE WAS UPDATED (Scan_15.scfp.tmp) ****
             **** ENERGY FILE WAS UPDATED (Scan_15.en.tmp) ****
----------------
ORBITAL ENERGIES
----------------

  NO   OCC          E(Eh)            E(eV) 
   0   2.0000     -10.366009      -282.0734 
   1   2.0000     -10.365748      -282.0664 
   2   2.0000     -10.365674      -282.0643 
   3   2.0000     -10.365077      -282.0481 
   4   2.0000     -10.365007      -282.0462 
   5   2.0000     -10.364746      -282.0391 
   6   2.0000      -1.029217       -28.0064 
   7   2.0000      -0.883460       -24.0402 
   8   2.0000      -0.883457       -24.0401 
   9   2.0000      -0.700118       -19.0512 
  10   2.0000      -0.699925       -19.0459 
  11   2.0000      -0.590558       -16.0699 
  12   2.0000      -0.539312       -14.6754 
  13   2.0000      -0.516849       -14.0642 
  14   2.0000      -0.434397       -11.8206 
  15   2.0000      -0.434370       -11.8198 
  16   2.0000      -0.405017       -11.0211 
  17   2.0000      -0.373656       -10.1677 
  18   2.0000      -0.373520       -10.1640 
  19   2.0000      -0.362687        -9.8692 
  20   2.0000      -0.362472        -9.8634 
  21   0.0000      -0.065969        -1.7951 
  22   0.0000      -0.002891        -0.0787 
  23   0.0000      -0.002754        -0.0749 
  24   0.0000       0.044809         1.2193 
  25   0.0000       0.065746         1.7890 
  26   0.0000       0.065790         1.7902 
  27   0.0000       0.086130         2.3437 
  28   0.0000       0.086285         2.3479 
  29   0.0000       0.264624         7.2008 
  30   0.0000       0.372748        10.1430 
  31   0.0000       0.373786        10.1712 
  32   0.0000       0.463124        12.6022 
  33   0.0000       0.463593        12.6150 
  34   0.0000       0.554289        15.0830 
  35   0.0000       0.587517        15.9871 
  36   0.0000       0.604893        16.4600 
  37   0.0000       0.633777        17.2459 
  38   0.0000       0.667117        18.1532 
  39   0.0000       0.667210        18.1557 
  40   0.0000       0.705691        19.2028 
  41   0.0000       0.706351        19.2208 
  42   0.0000       0.715454        19.4685 
  43   0.0000       0.726663        19.7735 
  44   0.0000       0.727395        19.7934 
  45   0.0000       0.746895        20.3240 
  46   0.0000       0.747199        20.3323 
  47   0.0000       0.768285        20.9061 
  48   0.0000       0.768612        20.9150 
  49   0.0000       0.797574        21.7031 
  50   0.0000       0.797913        21.7123 
  51   0.0000       0.818901        22.2834 
  52   0.0000       0.835608        22.7380 
  53   0.0000       0.837830        22.7985 
  54   0.0000       0.860160        23.4061 
  55   0.0000       0.992184        26.9987 
  56   0.0000       0.992385        27.0042 
  57   0.0000       1.073160        29.2022 
  58   0.0000       1.094191        29.7744 
  59   0.0000       1.100917        29.9575 
  60   0.0000       1.101060        29.9614 
  61   0.0000       1.138985        30.9933 
  62   0.0000       1.139444        31.0058 
  63   0.0000       1.249562        34.0023 
  64   0.0000       1.250149        34.0183 
  65   0.0000       1.314573        35.7714 
  66   0.0000       1.415967        38.5304 
  67   0.0000       1.457684        39.6656 
  68   0.0000       1.568517        42.6815 
  69   0.0000       1.568748        42.6878 
  70   0.0000       1.602481        43.6057 
  71   0.0000       1.602825        43.6151 
  72   0.0000       1.716829        46.7173 
  73   0.0000       1.773163        48.2502 
  74   0.0000       1.774335        48.2821 
  75   0.0000       1.872860        50.9631 
  76   0.0000       1.898523        51.6614 
  77   0.0000       2.200764        59.8858 
  78   0.0000       2.201165        59.8968 
  79   0.0000       2.258417        61.4546 
  80   0.0000       2.258716        61.4628 
  81   0.0000       2.267121        61.6915 
  82   0.0000       2.268419        61.7268 
  83   0.0000       2.411284        65.6144 
  84   0.0000       2.411676        65.6251 
  85   0.0000       2.463049        67.0230 
  86   0.0000       2.513013        68.3826 
  87   0.0000       2.513774        68.4033 
  88   0.0000       2.767299        75.3020 
  89   0.0000       2.779520        75.6346 
  90   0.0000       2.780662        75.6657 
  91   0.0000       2.803525        76.2878 
  92   0.0000       2.865877        77.9845 
  93   0.0000       2.867085        78.0174 
  94   0.0000       3.164131        86.1004 
  95   0.0000       3.429331        93.3168 

                    ********************************
                    * MULLIKEN POPULATION ANALYSIS *
                    ********************************

-----------------------
MULLIKEN ATOMIC CHARGES
-----------------------
   0 C :   -0.054403
   1 H :    0.053944
   2 C :   -0.053775
   3 H :    0.054005
   4 C :   -0.053975
   5 H :    0.054203
   6 C :   -0.054402
   7 H :    0.053943
   8 C :   -0.053774
   9 H :    0.054005
  10 C :   -0.053975
  11 H :    0.054203
Sum of atomic charges:    0.0000000

--------------------------------
MULLIKEN REDUCED ORBITAL CHARGES
--------------------------------
  0 C s       :     3.190646  s :     3.190646
      pz      :     0.987769  p :     2.827046
      px      :     0.966320
      py      :     0.872958
      dz2     :     0.002694  d :     0.036711
      dxz     :     0.004492
      dyz     :     0.007682
      dx2y2   :     0.009335
      dxy     :     0.012507
  1 H s       :     0.946056  s :     0.946056
  2 C s       :     3.189335  s :     3.189335
      pz      :     0.987979  p :     2.827697
      px      :     0.903767
      py      :     0.935952
      dz2     :     0.002675  d :     0.036742
      dxz     :     0.006683
      dyz     :     0.005512
      dx2y2   :     0.012192
      dxy     :     0.009680
  3 H s       :     0.945995  s :     0.945995
  4 C s       :     3.189596  s :     3.189596
      pz      :     0.987704  p :     2.827683
      px      :     0.890845
      py      :     0.949134
      dz2     :     0.002697  d :     0.036696
      dxz     :     0.007108
      dyz     :     0.005072
      dx2y2   :     0.011241
      dxy     :     0.010578
  5 H s       :     0.945797  s :     0.945797
  6 C s       :     3.190646  s :     3.190646
      pz      :     0.987768  p :     2.827046
      px      :     0.966319
      py      :     0.872958
      dz2     :     0.002694  d :     0.036711
      dxz     :     0.004492
      dyz     :     0.007682
      dx2y2   :     0.009335
      dxy     :     0.012507
  7 H s       :     0.946057  s :     0.946057
  8 C s       :     3.189335  s :     3.189335
      pz      :     0.987979  p :     2.827697
      px      :     0.903767
      py      :     0.935952
      dz2     :     0.002675  d :     0.036742
      dxz     :     0.006683
      dyz     :     0.005512
      dx2y2   :     0.012192
      dxy     :     0.009680
  9 H s       :     0.945995  s :     0.945995
 10 C s       :     3.189596  s :     3.189596
      pz      :     0.987704  p :     2.827684
      px      :     0.890846
      py      :     0.949134
      dz2     :     0.002697  d :     0.036696
      dxz     :     0.007108
      dyz     :     0.005072
      dx2y2   :     0.011241
      dxy     :     0.010578
 11 H s       :     0.945797  s :     0.945797


                     *******************************
                     * LOEWDIN POPULATION ANALYSIS *
                     *******************************

----------------------
LOEWDIN ATOMIC CHARGES
----------------------
   0 C :   -0.060498
   1 H :    0.060331
   2 C :   -0.060485
   3 H :    0.060417
   4 C :   -0.060340
   5 H :    0.060575
   6 C :   -0.060497
   7 H :    0.060331
   8 C :   -0.060485
   9 H :    0.060416
  10 C :   -0.060341
  11 H :    0.060575

-------------------------------
LOEWDIN REDUCED ORBITAL CHARGES
-------------------------------
  0 C s       :     2.959312  s :     2.959312
      pz      :     0.977817  p :     3.016685
      px      :     0.975077
      py      :     1.063791
      dz2     :     0.005922  d :     0.084501
      dxz     :     0.005609
      dyz     :     0.016527
      dx2y2   :     0.023997
      dxy     :     0.032445
  1 H s       :     0.939669  s :     0.939669
  2 C s       :     2.959223  s :     2.959223
      pz      :     0.978004  p :     3.016695
      px      :     1.035836
      py      :     1.002856
      dz2     :     0.005913  d :     0.084567
      dxz     :     0.013084
      dyz     :     0.009079
      dx2y2   :     0.031544
      dxy     :     0.024947
  3 H s       :     0.939583  s :     0.939583
  4 C s       :     2.959209  s :     2.959209
      pz      :     0.977740  p :     3.016632
      px      :     1.048149
      py      :     0.990743
      dz2     :     0.005928  d :     0.084500
      dxz     :     0.014535
      dyz     :     0.007604
      dx2y2   :     0.029161
      dxy     :     0.027271
  5 H s       :     0.939425  s :     0.939425
  6 C s       :     2.959312  s :     2.959312
      pz      :     0.977817  p :     3.016684
      px      :     0.975077
      py      :     1.063791
      dz2     :     0.005922  d :     0.084501
      dxz     :     0.005609
      dyz     :     0.016527
      dx2y2   :     0.023997
      dxy     :     0.032445
  7 H s       :     0.939669  s :     0.939669
  8 C s       :     2.959223  s :     2.959223
      pz      :     0.978004  p :     3.016695
      px      :     1.035836
      py      :     1.002856
      dz2     :     0.005913  d :     0.084567
      dxz     :     0.013084
      dyz     :     0.009079
      dx2y2   :     0.031544
      dxy     :     0.024947
  9 H s       :     0.939584  s :     0.939584
 10 C s       :     2.959209  s :     2.959209
      pz      :     0.977741  p :     3.016632
      px      :     1.048149
      py      :     0.990743
      dz2     :     0.005928  d :     0.084500
      dxz     :     0.014535
      dyz     :     0.007604
      dx2y2   :     0.029161
      dxy     :     0.027271
 11 H s       :     0.939425  s :     0.939425


                      *****************************
                      * MAYER POPULATION ANALYSIS *
                      *****************************

  NA   - Mulliken gross atomic population
  ZA   - Total nuclear charge
  QA   - Mulliken gross atomic charge
  VA   - Mayer's total valence
  BVA  - Mayer's bonded valence
  FA   - Mayer's free valence

  ATOM       NA         ZA         QA         VA         BVA        FA
  0 C      6.0544     6.0000    -0.0544     3.9530     3.9530    -0.0000
  1 H      0.9461     1.0000     0.0539     0.9921     0.9921    -0.0000
  2 C      6.0538     6.0000    -0.0538     3.9539     3.9539    -0.0000
  3 H      0.9460     1.0000     0.0540     0.9921     0.9921     0.0000
  4 C      6.0540     6.0000    -0.0540     3.9548     3.9548     0.0000
  5 H      0.9458     1.0000     0.0542     0.9921     0.9921     0.0000
  6 C      6.0544     6.0000    -0.0544     3.9530     3.9530    -0.0000
  7 H      0.9461     1.0000     0.0539     0.9921     0.9921    -0.0000
  8 C      6.0538     6.0000    -0.0538     3.9539     3.9539    -0.0000
  9 H      0.9460     1.0000     0.0540     0.9921     0.9921    -0.0000
 10 C      6.0540     6.0000    -0.0540     3.9548     3.9548     0.0000
 11 H      0.9458     1.0000     0.0542     0.9921     0.9921    -0.0000

  Mayer bond orders larger than 0.1
B(  0-C ,  1-H ) :   0.8659 B(  0-C ,  2-C ) :   1.4714 B(  0-C , 10-C ) :   1.4723 
B(  2-C ,  3-H ) :   0.8655 B(  2-C ,  4-C ) :   1.4733 B(  4-C ,  5-H ) :   0.8650 
B(  4-C ,  6-C ) :   1.4723 B(  6-C ,  7-H ) :   0.8659 B(  6-C ,  8-C ) :   1.4714 
B(  8-C ,  9-H ) :   0.8655 B(  8-C , 10-C ) :   1.4733 B( 10-C , 11-H ) :   0.8650 


-------
TIMINGS
-------

Total SCF time: 0 days 0 hours 0 min 43 sec 

Total time                  ....      43.475 sec
Sum of individual times     ....      43.305 sec  ( 99.6%)

Fock matrix formation       ....      41.757 sec  ( 96.0%)
  XC integration            ....       3.290 sec  (  7.9% of F)
    Basis function eval.    ....       1.629 sec  ( 49.5% of XC)
    Density eval.           ....       0.267 sec  (  8.1% of XC)
    XC-Functional eval.     ....       0.612 sec  ( 18.6% of XC)
    XC-Potential eval.      ....       0.462 sec  ( 14.0% of XC)
Diagonalization             ....       0.013 sec  (  0.0%)
Density matrix formation    ....       0.001 sec  (  0.0%)
Population analysis         ....       0.019 sec  (  0.0%)
Initial guess               ....       0.383 sec  (  0.9%)
Orbital Transformation      ....       0.000 sec  (  0.0%)
Orbital Orthonormalization  ....       0.000 sec  (  0.0%)
DIIS solution               ....       0.000 sec  (  0.0%)
Grid generation             ....       1.131 sec  (  2.6%)


-------------------------------------------------------------------------------
                          DFT DISPERSION CORRECTION                            
                                                                               
                              DFTD3 V3.1  Rev 1                                
                              USING zero damping                               
-------------------------------------------------------------------------------
The omegaB97X-D3 functional is recognized. Fit by Chai et al.
Active option DFTDOPT                   ...         3   

molecular C6(AA) [au] = 2352.539848 


            DFT-D V3
 parameters
 s6 scaling factor         :     1.0000 
 rs6 scaling factor        :     1.2810 
 s8 scaling factor         :     1.0000 
 rs8 scaling factor        :     1.0940 
 Damping factor alpha6     :    14.0000 
 Damping factor alpha8     :    16.0000 
 ad hoc parameters k1-k3   :    16.0000     1.3333    -4.0000 

 Edisp/kcal,au: -2.376153109375  -0.003786640607 
 E6   /kcal   :  -1.080631562 
 E8   /kcal   :  -1.295521548 
 % E8         :  54.521804278 

-------------------------   ----------------
Dispersion correction           -0.003786641
-------------------------   ----------------


-------------------------   --------------------
FINAL SINGLE POINT ENERGY      -231.433321645012
-------------------------   --------------------


                            ***************************************
                            *     ORCA property calculations      *
                            ***************************************

                                    ---------------------
                                    Active property flags
                                    ---------------------
   (+) Dipole Moment


------------------------------------------------------------------------------
                       ORCA ELECTRIC PROPERTIES CALCULATION
------------------------------------------------------------------------------

Dipole Moment Calculation                       ... on
Quadrupole Moment Calculation                   ... off
Polarizability Calculation                      ... off
GBWName                                         ... Scan_15.gbw
Electron density file                           ... Scan_15.scfp.tmp

-------------
DIPOLE MOMENT
-------------
                                X             Y             Z
Electronic contribution:     -0.00000      -0.00000       0.00000
Nuclear contribution   :      0.00000       0.00000      -0.00000
                        -----------------------------------------
Total Dipole Moment    :     -0.00000      -0.00000      -0.00000
                        -----------------------------------------
Magnitude (a.u.)       :      0.00000
Magnitude (Debye)      :      0.00000


Timings for individual modules:

Sum of individual times         ...       43.834 sec (=   0.731 min)
GTO integral calculation        ...        0.332 sec (=   0.006 min)   0.8 %
SCF iterations                  ...       43.502 sec (=   0.725 min)  99.2 %
                             ****ORCA TERMINATED NORMALLY****
TOTAL RUN TIME: 0 days 0 hours 0 minutes 44 seconds 172 msec
