
                                 *****************
                                 * O   R   C   A *
                                 *****************

           --- An Ab Initio, DFT and Semiempirical electronic structure package ---

                  #######################################################
                  #                        -***-                        #
                  #  Department of molecular theory and spectroscopy    #
                  #              Directorship: Frank Neese              #
                  # Max Planck Institute for Chemical Energy Conversion #
                  #                  D-45470 Muelheim/Ruhr              #
                  #                       Germany                       #
                  #                                                     #
                  #                  All rights reserved                #
                  #                        -***-                        #
                  #######################################################


                         Program Version 4.0.0.2 - RELEASE -


 With contributions from (in alphabetic order):
   Daniel Aravena         : Magnetic Properties
   Michael Atanasov       : Ab Initio Ligand Field Theory
   Ute Becker             : Parallelization
   Martin Brehm           : Molecular dynamics
   Dmytro Bykov           : SCF Hessian
   Vijay G. Chilkuri      : MRCI spin determinant printing
   Dipayan Datta          : RHF DLPNO-CCSD density
   Achintya Kumar Dutta   : EOM-CC, STEOM-CC
   Dmitry Ganyushin       : Spin-Orbit,Spin-Spin,Magnetic field MRCI
   Yang Guo               : DLPNO-NEVPT2, CIM, IAO-localization
   Andreas Hansen         : Spin unrestricted coupled pair/coupled cluster methods
   Lee Huntington         : MR-EOM, pCC
   Robert Izsak           : Overlap fitted RIJCOSX, COSX-SCS-MP3, EOM
   Christian Kollmar      : KDIIS, OOCD, Brueckner-CCSD(T), CCSD density
   Simone Kossmann        : Meta GGA functionals, TD-DFT gradient, OOMP2, MP2 Hessian
   Martin Krupicka        : AUTO-CI
   Dagmar Lenk            : GEPOL surface
   Dimitrios Liakos       : Extrapolation schemes; parallel MDCI
   Dimitrios Manganas     : ROCIS; embedding schemes
   Dimitrios Pantazis     : SARC Basis sets
   Taras Petrenko         : DFT Hessian,TD-DFT gradient, ASA, ECA, R-Raman, ABS, FL, XAS/XES, NRVS
   Peter Pinski           : DLPNO-MP2
   Christoph Reimann      : Effective Core Potentials
   Marius Retegan         : Local ZFS, SOC
   Christoph Riplinger    : Optimizer, TS searches, QM/MM, DLPNO-CCSD(T), (RO)-DLPNO pert. Triples
   Tobias Risthaus        : Range-separated hybrids, TD-DFT gradient, RPA, STAB
   Michael Roemelt        : Restricted open shell CIS
   Masaaki Saitow         : Open-shell DLPNO
   Barbara Sandhoefer     : DKH picture change effects
   Kantharuban Sivalingam : CASSCF convergence, NEVPT2, FIC-MRCI
   Georgi Stoychev        : AutoAux
   Boris Wezisla          : Elementary symmetry handling
   Frank Wennmohs         : Technical directorship


 We gratefully acknowledge several colleagues who have allowed us to
 interface, adapt or use parts of their codes:
   Stefan Grimme, W. Hujo, H. Kruse,             : VdW corrections, initial TS optimization,
                  C. Bannwarth                     DFT functionals, gCP, sTDA/sTD-DF
   Ed Valeev                                     : LibInt (2-el integral package), F12 methods
   Garnet Chan, S. Sharma, J. Yang, R. Olivares  : DMRG
   Ulf Ekstrom                                   : XCFun DFT Library
   Mihaly Kallay                                 : mrcc  (arbitrary order and MRCC methods)
   Jiri Pittner, Ondrej Demel                    : Mk-CCSD
   Frank Weinhold                                : gennbo (NPA and NBO analysis)
   Christopher J. Cramer and Donald G. Truhlar   : smd solvation model


 Your calculation uses the libint2 library for the computation of 2-el integrals
 For citations please refer to: http://libint.valeyev.net

 This ORCA versions uses:
   CBLAS   interface :  Fast vector & matrix operations
   LAPACKE interface :  Fast linear algebra routines
   SCALAPACK package :  Parallel linear algebra routines


Your calculation utilizes the atom-pairwise dispersion correction
with the zero-damping scheme (D30)
Cite in your paper:
S.Grimme, J.Antony, S.Ehrlich and H.Krieg, J.Chem.Phys., 132, (2010), 154104 
   

XCFun DFT library Copyright 2009-2010 Ulf Ekstrom and contributors.
See http://admol.org/xcfun for more information. This is free soft-
ware; see the source code for copying conditions. There is ABSOLUTELY
NO WARRANTY; not even for MERCHANTABILITY or FITNESS FOR A PARTICULAR
PURPOSE. For details see the documentation. Scientific users of this 
library should cite U. Ekstrom, L. Visscher, R. Bast, A. J. Thorvald-
sen and K. Ruud; J.Chem.Theor.Comp. 2010, DOI: 10.1021/ct100117s
XCFun Version 0.99 
Your calculation utilizes the basis: 6-31G(d)
   H-He, Li-Ne : W. J. Hehre, R. Ditchfield and J.A. Pople, J. Chem. Phys. 56, 2257 (1972).
                 Note: He and Ne are unpublished basis sets taken from the Gaussian program.
                 Note: Li and B from J. D. Dill and J. A. Pople, J. Chem. Phys. 62, 2921 (1975).
   Na - Ar     : M. M. Francl, W. J. Pietro, W. J. Hehre, J. S. Binkley, M. S. Gordon, 
                 D. J. DeFrees and J. A. Pople, J. Chem. Phys. 77, 3654 (1982).
   K - Zn      : V. A. Rassolov, J. A. Pople, M. A. Ratner, and T. L. Windus, J. Chem. Phys. 109, 1223 (1998).

================================================================================
                                        WARNINGS
                       Please study these warnings very carefully!
================================================================================

Warning: TCutStore was < 0. Adjusted to Thresh (uncritical)

INFO   : the flag for use of LIBINT has been found!

================================================================================
                                       INPUT FILE
================================================================================
NAME = initial16.inp
|  1> ! WB97X-D3 6-31G(d) VerySlowConv
|  2> ! KDIIS NOSOSCF
|  3> %base "Scan_16"
|  4> 
|  5> %scf
|  6> maxiter 999
|  7> end
|  8> 
|  9> * xyz 0 1
| 10> C          1.475241178255   -2.846004340497    0.000000129546
| 11> H          3.446722313329   -2.996933077989    0.000000035137
| 12> C          0.891759106357   -1.629393393363    0.000000127469
| 13> H          2.008207819930    0.002494966731    0.000000029969
| 14> C         -0.453597908920   -1.526398229775    0.000000052305
| 15> H         -1.308630338036    0.256418893596   -0.000000194922
| 16> C         -1.215472856501   -2.640013994179   -0.000000039083
| 17> H         -3.186953994017   -2.489085247631    0.000000181004
| 18> C         -0.631990785683   -3.856624940270   -0.000000197001
| 19> H         -1.748439466649   -5.488513325121    0.000000089897
| 20> C          0.713366229232   -3.959620105315   -0.000000080085
| 21> H          1.568398702702   -5.742437206188   -0.000000134238
| 22> **                         ****END OF INPUT****
================================================================================

                       ****************************
                       * Single Point Calculation *
                       ****************************

---------------------------------
CARTESIAN COORDINATES (ANGSTROEM)
---------------------------------
  C      1.475241   -2.846004    0.000000
  H      3.446722   -2.996933    0.000000
  C      0.891759   -1.629393    0.000000
  H      2.008208    0.002495    0.000000
  C     -0.453598   -1.526398    0.000000
  H     -1.308630    0.256419   -0.000000
  C     -1.215473   -2.640014   -0.000000
  H     -3.186954   -2.489085    0.000000
  C     -0.631991   -3.856625   -0.000000
  H     -1.748439   -5.488513    0.000000
  C      0.713366   -3.959620   -0.000000
  H      1.568399   -5.742437   -0.000000

----------------------------
CARTESIAN COORDINATES (A.U.)
----------------------------
  NO LB      ZA    FRAG     MASS         X           Y           Z
   0 C     6.0000    0    12.011    2.787802   -5.378169    0.000000
   1 H     1.0000    0     1.008    6.513361   -5.663383    0.000000
   2 C     6.0000    0    12.011    1.685180   -3.079107    0.000000
   3 H     1.0000    0     1.008    3.794963    0.004715    0.000000
   4 C     6.0000    0    12.011   -0.857176   -2.884475    0.000000
   5 H     1.0000    0     1.008   -2.472953    0.484561   -0.000000
   6 C     6.0000    0    12.011   -2.296911   -4.988903   -0.000000
   7 H     1.0000    0     1.008   -6.022470   -4.703689    0.000000
   8 C     6.0000    0    12.011   -1.194290   -7.287965   -0.000000
   9 H     1.0000    0     1.008   -3.304072  -10.371787    0.000000
  10 C     6.0000    0    12.011    1.348067   -7.482598   -0.000000
  11 H     1.0000    0     1.008    2.963844  -10.851634   -0.000000

--------------------------------
INTERNAL COORDINATES (ANGSTROEM)
--------------------------------
 C      0   0   0     0.000000000000     0.00000000     0.00000000
 H      1   0   0     1.977249946201     0.00000000     0.00000000
 C      1   2   0     1.349293713360   119.99999977     0.00000000
 H      3   1   2     1.977249946226   119.99999935     0.00000000
 C      3   1   2     1.349293704972   119.99999947   179.99999312
 H      5   3   1     1.977249946321   119.99999914   180.00000810
 C      5   3   1     1.349293706530   120.00000056     0.00000000
 H      7   5   3     1.977249949328   120.00000001   179.99998893
 C      7   5   3     1.349293711952   119.99999999     0.00000000
 H      9   7   5     1.977249948247   120.00000056   179.99998587
 C      9   7   5     1.349293704722   119.99999951     0.00000000
 H     11   9   7     1.977249945215   120.00000064   179.99999408

---------------------------
INTERNAL COORDINATES (A.U.)
---------------------------
 C      0   0   0     0.000000000000     0.00000000     0.00000000
 H      1   0   0     3.736460896631     0.00000000     0.00000000
 C      1   2   0     2.549795592472   119.99999977     0.00000000
 H      3   1   2     3.736460896677   119.99999935     0.00000000
 C      3   1   2     2.549795576621   119.99999947   179.99999312
 H      5   3   1     3.736460896856   119.99999914   180.00000810
 C      5   3   1     2.549795579565   120.00000056     0.00000000
 H      7   5   3     3.736460902539   120.00000001   179.99998893
 C      7   5   3     2.549795589812   119.99999999     0.00000000
 H      9   7   5     3.736460900497   120.00000056   179.99998587
 C      9   7   5     2.549795576149   119.99999951     0.00000000
 H     11   9   7     3.736460894767   120.00000064   179.99999408

---------------------
BASIS SET INFORMATION
---------------------
There are 2 groups of distinct atoms

 Group   1 Type C   : 10s4p1d contracted to 3s2p1d pattern {631/31/1}
 Group   2 Type H   : 4s contracted to 2s pattern {31}

Atom   0C    basis set group =>   1
Atom   1H    basis set group =>   2
Atom   2C    basis set group =>   1
Atom   3H    basis set group =>   2
Atom   4C    basis set group =>   1
Atom   5H    basis set group =>   2
Atom   6C    basis set group =>   1
Atom   7H    basis set group =>   2
Atom   8C    basis set group =>   1
Atom   9H    basis set group =>   2
Atom  10C    basis set group =>   1
Atom  11H    basis set group =>   2
------------------------------------------------------------------------------
                           ORCA GTO INTEGRAL CALCULATION
------------------------------------------------------------------------------

                         BASIS SET STATISTICS AND STARTUP INFO

 # of primitive gaussian shells          ...  114
 # of primitive gaussian functions       ...  186
 # of contracted shells                  ...   48
 # of contracted basis functions         ...   96
 Highest angular momentum                ...    2
 Maximum contraction depth               ...    6
 Integral package used                   ... LIBINT
 Integral threshhold            Thresh   ...  1.000e-10
 Primitive cut-off              TCut     ...  1.000e-11


------------------------------ INTEGRAL EVALUATION ----------------------------


 * One electron integrals 
 Pre-screening matrix                    ... done
 Shell pair data                         ... done (   0.001 sec)

-------------------------------------------------------------------------------
                                 ORCA SCF
-------------------------------------------------------------------------------

------------
SCF SETTINGS
------------
Hamiltonian:
 Density Functional     Method          .... DFT(GTOs)
 Exchange Functional    Exchange        .... WB97X-D3
 Correlation Functional Correlation     .... WB97X-D3
 Gradients option       PostSCFGGA      .... off
 Hybrid DFT is turned on
   Fraction HF Exchange ScalHFX         ....  0.195728
   Scaling of DF-GGA-X  ScalDFX         ....  0.000000
   Scaling of DF-GGA-C  ScalDFC         ....  1.000000
   Scaling of DF-LDA-C  ScalLDAC        ....  1.000000
   Perturbative correction              ....  0.000000
 Long-range corrected/Screened/Range-Separated Hybrid DFT is turned on
   Amount of maximum screened exact exchange              ....  0.804272
   Range separation parameter mu (erf(mu*r12)/r12)        ....  0.250000


General Settings:
 Integral files         IntName         .... Scan_16
 Hartree-Fock type      HFTyp           .... RHF
 Total Charge           Charge          ....    0
 Multiplicity           Mult            ....    1
 Number of Electrons    NEL             ....   42
 Basis Dimension        Dim             ....   96
 Nuclear Repulsion      ENuc            ....    192.5409771813 Eh

Convergence Acceleration:
 DIIS                   CNVDIIS         .... on
   Start iteration      DIISMaxIt       ....     0
   Startup error        DIISStart       ....  0.200000
   # of expansion vecs  DIISMaxEq       ....     5
   Bias factor          DIISBfac        ....   1.050
   Max. coefficient     DIISMaxC        ....  10.000
 Newton-Raphson         CNVNR           .... off
 SOSCF                  CNVSOSCF        .... off
 Level Shifting         CNVShift        .... off
 Zerner damping         CNVZerner       .... off
 Static damping         CNVDamp         .... off
 Fernandez-Rico         CNVRico         .... off

SCF Procedure:
 Maximum # iterations   MaxIter         ....   999
 SCF integral mode      SCFMode         .... Direct
   Integral package                     .... LIBINT
 Reset frequeny         DirectResetFreq ....    20
 Integral Threshold     Thresh          ....  1.000e-10 Eh
 Primitive CutOff       TCut            ....  1.000e-11 Eh

Convergence Tolerance:
 Convergence Check Mode ConvCheckMode   .... All-Criteria
 Convergence forced     ConvForced      .... 0
 Energy Change          TolE            ....  1.000e-06 Eh
 Max Density Change     TolMaxP         ....  1.000e-05
 RMS Density Change     TolRMSP         ....  1.000e-06
 DIIS Error             TolErr          ....  1.000e-06


Diagonalization of the overlap matrix:
Smallest eigenvalue                        ... 8.180e-04
Time for diagonalization                   ...    0.002 sec
Threshold for overlap eigenvalues          ... 1.000e-08
Number of eigenvalues below threshold      ... 0
Time for construction of square roots      ...    0.006 sec
Total time needed                          ...    0.009 sec

-------------------
DFT GRID GENERATION
-------------------

General Integration Accuracy     IntAcc      ...  4.340
Radial Grid Type                 RadialGrid  ... Gauss-Chebyshev
Angular Grid (max. acc.)         AngularGrid ... Lebedev-110
Angular grid pruning method      GridPruning ... 3 (G Style)
Weight generation scheme         WeightScheme... Becke
Basis function cutoff            BFCut       ...    1.0000e-10
Integration weight cutoff        WCut        ...    1.0000e-14
Grids for H and He will be reduced by one unit

# of grid points (after initial pruning)     ...  14700 (   0.0 sec)
# of grid points (after weights+screening)   ...  13926 (   0.0 sec)
nearest neighbour list constructed           ...    0.0 sec
Grid point re-assignment to atoms done       ...    0.0 sec
Grid point division into batches done        ...    0.0 sec
Reduced shell lists constructed in    0.2 sec

Total number of grid points                  ...    13926
Total number of batches                      ...      222
Average number of points per batch           ...       62
Average number of grid points per atom       ...     1160
Average number of shells per batch           ...    34.88 (72.66%)
Average number of basis functions per batch  ...    73.18 (76.23%)
Average number of large shells per batch     ...    27.97 (80.20%)
Average number of large basis fcns per batch ...    59.81 (81.73%)
Maximum spatial batch extension              ...  17.34, 20.06, 37.27 au
Average spatial batch extension              ...   3.86,  4.22,  5.39 au

Time for grid setup =    0.246 sec

------------------------------
INITIAL GUESS: MODEL POTENTIAL
------------------------------
Loading Hartree-Fock densities                     ... done
Calculating cut-offs                               ... done
Setting up the integral package                    ... done
Initializing the effective Hamiltonian             ... done
Starting the Coulomb interaction                   ... done (   0.1 sec)
Reading the grid                                   ... done
Mapping shells                                     ... done
Starting the XC term evaluation                    ... done (   0.2 sec)
  promolecular density results
     # of electrons  =     41.995207700
     EX              =    -32.077048371
     EC              =     -1.292373003
     EX+EC           =    -33.369421374
Transforming the Hamiltonian                       ... done (   0.0 sec)
Diagonalizing the Hamiltonian                      ... done (   0.0 sec)
Back transforming the eigenvectors                 ... done (   0.0 sec)
Now organizing SCF variables                       ... done
                      ------------------
                      INITIAL GUESS DONE (   0.6 sec)
                      ------------------
--------------
SCF ITERATIONS
--------------
ITER       Energy         Delta-E        Max-DP      RMS-DP      [F,P]   Gradient Norm
               ***  Starting incremental Fock matrix formation  ***
                             ****Resetting KDIIS****
                             ****Turning on KDIIS(Cayley)****
  0   -230.9634788254   0.000000000000 0.02601802  0.00146935  0.1542870   0.108838347
  1   -231.0751957306  -0.111716905202 0.04307194  0.00259818  0.1323670   0.088832061
  2   -231.2217450240  -0.146549293428 0.07467944  0.00397731  0.0879506   0.057274147
  3   -231.3153936298  -0.093648605771 0.01952578  0.00183477  0.0150188   0.014007491
  4   -231.3185286690  -0.003135039208 0.00936610  0.00064134  0.0112848   0.006094036
  5   -231.3203381815  -0.001809512536 0.01404171  0.00093062  0.0073409   0.002976885
  6   -231.3206933252  -0.000355143699 0.00712745  0.00051223  0.0058982   0.002536257
  7   -231.3212304482  -0.000537122967 0.00121169  0.00010975  0.0012195   0.000693725
  8   -231.3212498547  -0.000019406527 0.00072439  0.00003494  0.0004174   0.000381167
  9   -231.3212530684  -0.000003213687 0.00032259  0.00001704  0.0002153   0.000209857
                          ***Energy convergence achieved***
 10   -231.3212540239  -0.000000955509 0.00011450  0.00000748  0.0001564   0.000085824

            ***Energy convergence in two consecutive cycles with***
                    ***'reasonable' density convergence***
                       *** signaling convergence ***

                    *** KDIIS BlockDiag ( 0.001 sec) ***

               *****************************************************
               *                     SUCCESS                       *
               *           SCF CONVERGED AFTER  11 CYCLES          *
               *****************************************************

Setting up the final grid:

General Integration Accuracy     IntAcc      ...  4.670
Radial Grid Type                 RadialGrid  ... Gauss-Chebyshev
Angular Grid (max. acc.)         AngularGrid ... Lebedev-302
Angular grid pruning method      GridPruning ... 3 (G Style)
Weight generation scheme         WeightScheme... Becke
Basis function cutoff            BFCut       ...    1.0000e-10
Integration weight cutoff        WCut        ...    1.0000e-14
Grids for H and He will be reduced by one unit

# of grid points (after initial pruning)     ...  57636 (   0.0 sec)
# of grid points (after weights+screening)   ...  54100 (   0.1 sec)
nearest neighbour list constructed           ...    0.0 sec
Grid point re-assignment to atoms done       ...    0.0 sec
Grid point division into batches done        ...    0.2 sec
Reduced shell lists constructed in    0.8 sec

Total number of grid points                  ...    54100
Total number of batches                      ...      852
Average number of points per batch           ...       63
Average number of grid points per atom       ...     4508
Average number of shells per batch           ...    31.40 (65.41%)
Average number of basis functions per batch  ...    65.69 (68.43%)
Average number of large shells per batch     ...    24.31 (77.43%)
Average number of large basis fcns per batch ...    51.69 (78.68%)
Maximum spatial batch extension              ...  14.86, 15.60, 17.88 au
Average spatial batch extension              ...   2.59,  2.72,  3.03 au

Final grid set up in    0.9 sec
Final integration                            ... done (   0.7 sec)
Change in XC energy                          ...     0.000595220
Integrated number of electrons               ...    41.999983422
Previous integrated no of electrons          ...    41.994994244

----------------
TOTAL SCF ENERGY
----------------

Total Energy       :         -231.32065903 Eh           -6294.55514 eV

Components:
Nuclear Repulsion  :          192.54097718 Eh            5239.30635 eV
Electronic Energy  :         -423.86163621 Eh          -11533.86149 eV
One Electron Energy:         -690.65024904 Eh          -18793.54872 eV
Two Electron Energy:          266.78861283 Eh            7259.68723 eV

Virial components:
Potential Energy   :         -459.67323690 Eh          -12508.34469 eV
Kinetic Energy     :          228.35257787 Eh            6213.78955 eV
Virial Ratio       :            2.01299780


DFT components:
N(Alpha)           :       20.999991710751 electrons
N(Beta)            :       20.999991710751 electrons
N(Total)           :       41.999983421503 electrons
E(XC)              :      -23.037490671625 Eh       

---------------
SCF CONVERGENCE
---------------

  Last Energy change         ...   -2.2745e-07  Tolerance :   1.0000e-06
  Last MAX-Density change    ...    2.1876e-05  Tolerance :   1.0000e-05
  Last RMS-Density change    ...    1.6883e-06  Tolerance :   1.0000e-06
  Last DIIS Error            ...    2.7104e-05  Tolerance :   1.0000e-06

             **** THE GBW FILE WAS UPDATED (Scan_16.gbw) ****
             **** DENSITY FILE WAS UPDATED (Scan_16.scfp.tmp) ****
             **** ENERGY FILE WAS UPDATED (Scan_16.en.tmp) ****
----------------
ORBITAL ENERGIES
----------------

  NO   OCC          E(Eh)            E(eV) 
   0   2.0000     -10.372109      -282.2394 
   1   2.0000     -10.371842      -282.2322 
   2   2.0000     -10.371751      -282.2297 
   3   2.0000     -10.371142      -282.2131 
   4   2.0000     -10.371056      -282.2108 
   5   2.0000     -10.370789      -282.2035 
   6   2.0000      -1.036887       -28.2151 
   7   2.0000      -0.889017       -24.1914 
   8   2.0000      -0.889006       -24.1911 
   9   2.0000      -0.704120       -19.1601 
  10   2.0000      -0.703920       -19.1546 
  11   2.0000      -0.596863       -16.2415 
  12   2.0000      -0.534112       -14.5339 
  13   2.0000      -0.523109       -14.2345 
  14   2.0000      -0.425004       -11.5649 
  15   2.0000      -0.424992       -11.5646 
  16   2.0000      -0.391680       -10.6582 
  17   2.0000      -0.378828       -10.3084 
  18   2.0000      -0.378671       -10.3042 
  19   2.0000      -0.353730        -9.6255 
  20   2.0000      -0.353514        -9.6196 
  21   0.0000      -0.087016        -2.3678 
  22   0.0000      -0.027387        -0.7452 
  23   0.0000      -0.027262        -0.7418 
  24   0.0000       0.021355         0.5811 
  25   0.0000       0.063297         1.7224 
  26   0.0000       0.063352         1.7239 
  27   0.0000       0.065156         1.7730 
  28   0.0000       0.065348         1.7782 
  29   0.0000       0.264316         7.1924 
  30   0.0000       0.373287        10.1577 
  31   0.0000       0.374222        10.1831 
  32   0.0000       0.468834        12.7576 
  33   0.0000       0.469365        12.7721 
  34   0.0000       0.554110        15.0781 
  35   0.0000       0.583539        15.8789 
  36   0.0000       0.598011        16.2727 
  37   0.0000       0.639934        17.4135 
  38   0.0000       0.663697        18.0601 
  39   0.0000       0.663850        18.0643 
  40   0.0000       0.694594        18.9009 
  41   0.0000       0.695206        18.9175 
  42   0.0000       0.722987        19.6735 
  43   0.0000       0.727206        19.7883 
  44   0.0000       0.727987        19.8095 
  45   0.0000       0.745210        20.2782 
  46   0.0000       0.745395        20.2832 
  47   0.0000       0.782323        21.2881 
  48   0.0000       0.782696        21.2982 
  49   0.0000       0.794914        21.6307 
  50   0.0000       0.811545        22.0833 
  51   0.0000       0.811876        22.0923 
  52   0.0000       0.835798        22.7432 
  53   0.0000       0.840378        22.8678 
  54   0.0000       0.873983        23.7823 
  55   0.0000       0.964785        26.2531 
  56   0.0000       0.964983        26.2585 
  57   0.0000       1.039383        28.2831 
  58   0.0000       1.041861        28.3505 
  59   0.0000       1.042011        28.3546 
  60   0.0000       1.079383        29.3715 
  61   0.0000       1.118226        30.4285 
  62   0.0000       1.118912        30.4472 
  63   0.0000       1.247451        33.9449 
  64   0.0000       1.248125        33.9632 
  65   0.0000       1.310022        35.6475 
  66   0.0000       1.404754        38.2253 
  67   0.0000       1.451745        39.5040 
  68   0.0000       1.566332        42.6221 
  69   0.0000       1.566591        42.6291 
  70   0.0000       1.599380        43.5213 
  71   0.0000       1.599718        43.5305 
  72   0.0000       1.698169        46.2095 
  73   0.0000       1.777278        48.3622 
  74   0.0000       1.778474        48.3947 
  75   0.0000       1.871823        50.9349 
  76   0.0000       1.898325        51.6561 
  77   0.0000       2.203333        59.9557 
  78   0.0000       2.203778        59.9679 
  79   0.0000       2.257906        61.4408 
  80   0.0000       2.258183        61.4483 
  81   0.0000       2.267250        61.6950 
  82   0.0000       2.268564        61.7308 
  83   0.0000       2.411318        65.6153 
  84   0.0000       2.411732        65.6266 
  85   0.0000       2.465890        67.1003 
  86   0.0000       2.509406        68.2844 
  87   0.0000       2.510210        68.3063 
  88   0.0000       2.736394        74.4611 
  89   0.0000       2.784572        75.7721 
  90   0.0000       2.785673        75.8020 
  91   0.0000       2.808513        76.4235 
  92   0.0000       2.867755        78.0356 
  93   0.0000       2.868956        78.0683 
  94   0.0000       3.167052        86.1799 
  95   0.0000       3.438555        93.5678 

                    ********************************
                    * MULLIKEN POPULATION ANALYSIS *
                    ********************************

-----------------------
MULLIKEN ATOMIC CHARGES
-----------------------
   0 C :   -0.041675
   1 H :    0.041487
   2 C :   -0.040933
   3 H :    0.040974
   4 C :   -0.041069
   5 H :    0.041217
   6 C :   -0.041675
   7 H :    0.041487
   8 C :   -0.040933
   9 H :    0.040974
  10 C :   -0.041069
  11 H :    0.041217
Sum of atomic charges:    0.0000000

--------------------------------
MULLIKEN REDUCED ORBITAL CHARGES
--------------------------------
  0 C s       :     3.189550  s :     3.189550
      pz      :     0.987490  p :     2.815109
      px      :     0.954485
      py      :     0.873134
      dz2     :     0.002722  d :     0.037015
      dxz     :     0.004630
      dyz     :     0.007830
      dx2y2   :     0.009290
      dxy     :     0.012543
  1 H s       :     0.958513  s :     0.958513
  2 C s       :     3.188549  s :     3.188549
      pz      :     0.987707  p :     2.815349
      px      :     0.899762
      py      :     0.927879
      dz2     :     0.002703  d :     0.037036
      dxz     :     0.006828
      dyz     :     0.005653
      dx2y2   :     0.012215
      dxy     :     0.009637
  3 H s       :     0.959026  s :     0.959026
  4 C s       :     3.188897  s :     3.188897
      pz      :     0.987399  p :     2.815178
      px      :     0.889134
      py      :     0.938646
      dz2     :     0.002725  d :     0.036993
      dxz     :     0.007253
      dyz     :     0.005211
      dx2y2   :     0.011242
      dxy     :     0.010562
  5 H s       :     0.958783  s :     0.958783
  6 C s       :     3.189550  s :     3.189550
      pz      :     0.987490  p :     2.815109
      px      :     0.954486
      py      :     0.873134
      dz2     :     0.002722  d :     0.037015
      dxz     :     0.004630
      dyz     :     0.007830
      dx2y2   :     0.009290
      dxy     :     0.012543
  7 H s       :     0.958513  s :     0.958513
  8 C s       :     3.188549  s :     3.188549
      pz      :     0.987707  p :     2.815349
      px      :     0.899762
      py      :     0.927879
      dz2     :     0.002703  d :     0.037036
      dxz     :     0.006828
      dyz     :     0.005653
      dx2y2   :     0.012215
      dxy     :     0.009637
  9 H s       :     0.959026  s :     0.959026
 10 C s       :     3.188897  s :     3.188897
      pz      :     0.987399  p :     2.815178
      px      :     0.889134
      py      :     0.938646
      dz2     :     0.002725  d :     0.036993
      dxz     :     0.007253
      dyz     :     0.005211
      dx2y2   :     0.011242
      dxy     :     0.010562
 11 H s       :     0.958783  s :     0.958783


                     *******************************
                     * LOEWDIN POPULATION ANALYSIS *
                     *******************************

----------------------
LOEWDIN ATOMIC CHARGES
----------------------
   0 C :   -0.049741
   1 H :    0.049688
   2 C :   -0.049454
   3 H :    0.049307
   4 C :   -0.049315
   5 H :    0.049515
   6 C :   -0.049741
   7 H :    0.049688
   8 C :   -0.049454
   9 H :    0.049307
  10 C :   -0.049315
  11 H :    0.049515

-------------------------------
LOEWDIN REDUCED ORBITAL CHARGES
-------------------------------
  0 C s       :     2.960876  s :     2.960876
      pz      :     0.977314  p :     3.003933
      px      :     0.964759
      py      :     1.061859
      dz2     :     0.006051  d :     0.084932
      dxz     :     0.005764
      dyz     :     0.016866
      dx2y2   :     0.023444
      dxy     :     0.032808
  1 H s       :     0.950312  s :     0.950312
  2 C s       :     2.960771  s :     2.960771
      pz      :     0.977536  p :     3.003691
      px      :     1.031129
      py      :     0.995026
      dz2     :     0.006040  d :     0.084992
      dxz     :     0.013365
      dyz     :     0.009293
      dx2y2   :     0.031809
      dxy     :     0.024486
  3 H s       :     0.950693  s :     0.950693
  4 C s       :     2.960772  s :     2.960772
      pz      :     0.977228  p :     3.003611
      px      :     1.044724
      py      :     0.981659
      dz2     :     0.006055  d :     0.084932
      dxz     :     0.014840
      dyz     :     0.007792
      dx2y2   :     0.029168
      dxy     :     0.027076
  5 H s       :     0.950485  s :     0.950485
  6 C s       :     2.960876  s :     2.960876
      pz      :     0.977314  p :     3.003933
      px      :     0.964759
      py      :     1.061859
      dz2     :     0.006051  d :     0.084932
      dxz     :     0.005764
      dyz     :     0.016866
      dx2y2   :     0.023444
      dxy     :     0.032808
  7 H s       :     0.950312  s :     0.950312
  8 C s       :     2.960771  s :     2.960771
      pz      :     0.977536  p :     3.003691
      px      :     1.031129
      py      :     0.995026
      dz2     :     0.006040  d :     0.084992
      dxz     :     0.013365
      dyz     :     0.009293
      dx2y2   :     0.031809
      dxy     :     0.024486
  9 H s       :     0.950693  s :     0.950693
 10 C s       :     2.960772  s :     2.960772
      pz      :     0.977228  p :     3.003611
      px      :     1.044724
      py      :     0.981659
      dz2     :     0.006055  d :     0.084932
      dxz     :     0.014840
      dyz     :     0.007792
      dx2y2   :     0.029168
      dxy     :     0.027076
 11 H s       :     0.950485  s :     0.950485


                      *****************************
                      * MAYER POPULATION ANALYSIS *
                      *****************************

  NA   - Mulliken gross atomic population
  ZA   - Total nuclear charge
  QA   - Mulliken gross atomic charge
  VA   - Mayer's total valence
  BVA  - Mayer's bonded valence
  FA   - Mayer's free valence

  ATOM       NA         ZA         QA         VA         BVA        FA
  0 C      6.0417     6.0000    -0.0417     3.9558     3.9558     0.0000
  1 H      0.9585     1.0000     0.0415     0.9946     0.9946    -0.0000
  2 C      6.0409     6.0000    -0.0409     3.9574     3.9574     0.0000
  3 H      0.9590     1.0000     0.0410     0.9946     0.9946     0.0000
  4 C      6.0411     6.0000    -0.0411     3.9579     3.9579    -0.0000
  5 H      0.9588     1.0000     0.0412     0.9946     0.9946    -0.0000
  6 C      6.0417     6.0000    -0.0417     3.9558     3.9558     0.0000
  7 H      0.9585     1.0000     0.0415     0.9946     0.9946     0.0000
  8 C      6.0409     6.0000    -0.0409     3.9574     3.9574    -0.0000
  9 H      0.9590     1.0000     0.0410     0.9946     0.9946    -0.0000
 10 C      6.0411     6.0000    -0.0411     3.9579     3.9579     0.0000
 11 H      0.9588     1.0000     0.0412     0.9946     0.9946     0.0000

  Mayer bond orders larger than 0.1
B(  0-C ,  1-H ) :   0.8374 B(  0-C ,  2-C ) :   1.4831 B(  0-C , 10-C ) :   1.4837 
B(  2-C ,  3-H ) :   0.8370 B(  2-C ,  4-C ) :   1.4851 B(  4-C ,  5-H ) :   0.8366 
B(  4-C ,  6-C ) :   1.4837 B(  6-C ,  7-H ) :   0.8374 B(  6-C ,  8-C ) :   1.4831 
B(  8-C ,  9-H ) :   0.8370 B(  8-C , 10-C ) :   1.4851 B( 10-C , 11-H ) :   0.8366 


-------
TIMINGS
-------

Total SCF time: 0 days 0 hours 0 min 46 sec 

Total time                  ....      46.336 sec
Sum of individual times     ....      46.153 sec  ( 99.6%)

Fock matrix formation       ....      44.615 sec  ( 96.3%)
  XC integration            ....       3.510 sec  (  7.9% of F)
    Basis function eval.    ....       1.726 sec  ( 49.2% of XC)
    Density eval.           ....       0.285 sec  (  8.1% of XC)
    XC-Functional eval.     ....       0.657 sec  ( 18.7% of XC)
    XC-Potential eval.      ....       0.479 sec  ( 13.6% of XC)
Diagonalization             ....       0.014 sec  (  0.0%)
Density matrix formation    ....       0.001 sec  (  0.0%)
Population analysis         ....       0.014 sec  (  0.0%)
Initial guess               ....       0.384 sec  (  0.8%)
Orbital Transformation      ....       0.000 sec  (  0.0%)
Orbital Orthonormalization  ....       0.000 sec  (  0.0%)
DIIS solution               ....       0.000 sec  (  0.0%)
Grid generation             ....       1.124 sec  (  2.4%)


-------------------------------------------------------------------------------
                          DFT DISPERSION CORRECTION                            
                                                                               
                              DFTD3 V3.1  Rev 1                                
                              USING zero damping                               
-------------------------------------------------------------------------------
The omegaB97X-D3 functional is recognized. Fit by Chai et al.
Active option DFTDOPT                   ...         3   

molecular C6(AA) [au] = 2354.900752 


            DFT-D V3
 parameters
 s6 scaling factor         :     1.0000 
 rs6 scaling factor        :     1.2810 
 s8 scaling factor         :     1.0000 
 rs8 scaling factor        :     1.0940 
 Damping factor alpha6     :    14.0000 
 Damping factor alpha8     :    16.0000 
 ad hoc parameters k1-k3   :    16.0000     1.3333    -4.0000 

 Edisp/kcal,au: -2.393383609855  -0.003814099155 
 E6   /kcal   :  -1.062403214 
 E8   /kcal   :  -1.330980396 
 % E8         :  55.610826054 

-------------------------   ----------------
Dispersion correction           -0.003814099
-------------------------   ----------------


-------------------------   --------------------
FINAL SINGLE POINT ENERGY      -231.324473130944
-------------------------   --------------------


                            ***************************************
                            *     ORCA property calculations      *
                            ***************************************

                                    ---------------------
                                    Active property flags
                                    ---------------------
   (+) Dipole Moment


------------------------------------------------------------------------------
                       ORCA ELECTRIC PROPERTIES CALCULATION
------------------------------------------------------------------------------

Dipole Moment Calculation                       ... on
Quadrupole Moment Calculation                   ... off
Polarizability Calculation                      ... off
GBWName                                         ... Scan_16.gbw
Electron density file                           ... Scan_16.scfp.tmp

-------------
DIPOLE MOMENT
-------------
                                X             Y             Z
Electronic contribution:     -0.00000      -0.00000      -0.00000
Nuclear contribution   :      0.00000       0.00000       0.00000
                        -----------------------------------------
Total Dipole Moment    :     -0.00000       0.00000       0.00000
                        -----------------------------------------
Magnitude (a.u.)       :      0.00000
Magnitude (Debye)      :      0.00000


Timings for individual modules:

Sum of individual times         ...       46.685 sec (=   0.778 min)
GTO integral calculation        ...        0.324 sec (=   0.005 min)   0.7 %
SCF iterations                  ...       46.360 sec (=   0.773 min)  99.3 %
                             ****ORCA TERMINATED NORMALLY****
TOTAL RUN TIME: 0 days 0 hours 0 minutes 47 seconds 21 msec
