
                                 *****************
                                 * O   R   C   A *
                                 *****************

           --- An Ab Initio, DFT and Semiempirical electronic structure package ---

                  #######################################################
                  #                        -***-                        #
                  #  Department of molecular theory and spectroscopy    #
                  #              Directorship: Frank Neese              #
                  # Max Planck Institute for Chemical Energy Conversion #
                  #                  D-45470 Muelheim/Ruhr              #
                  #                       Germany                       #
                  #                                                     #
                  #                  All rights reserved                #
                  #                        -***-                        #
                  #######################################################


                         Program Version 4.0.0.2 - RELEASE -


 With contributions from (in alphabetic order):
   Daniel Aravena         : Magnetic Properties
   Michael Atanasov       : Ab Initio Ligand Field Theory
   Ute Becker             : Parallelization
   Martin Brehm           : Molecular dynamics
   Dmytro Bykov           : SCF Hessian
   Vijay G. Chilkuri      : MRCI spin determinant printing
   Dipayan Datta          : RHF DLPNO-CCSD density
   Achintya Kumar Dutta   : EOM-CC, STEOM-CC
   Dmitry Ganyushin       : Spin-Orbit,Spin-Spin,Magnetic field MRCI
   Yang Guo               : DLPNO-NEVPT2, CIM, IAO-localization
   Andreas Hansen         : Spin unrestricted coupled pair/coupled cluster methods
   Lee Huntington         : MR-EOM, pCC
   Robert Izsak           : Overlap fitted RIJCOSX, COSX-SCS-MP3, EOM
   Christian Kollmar      : KDIIS, OOCD, Brueckner-CCSD(T), CCSD density
   Simone Kossmann        : Meta GGA functionals, TD-DFT gradient, OOMP2, MP2 Hessian
   Martin Krupicka        : AUTO-CI
   Dagmar Lenk            : GEPOL surface
   Dimitrios Liakos       : Extrapolation schemes; parallel MDCI
   Dimitrios Manganas     : ROCIS; embedding schemes
   Dimitrios Pantazis     : SARC Basis sets
   Taras Petrenko         : DFT Hessian,TD-DFT gradient, ASA, ECA, R-Raman, ABS, FL, XAS/XES, NRVS
   Peter Pinski           : DLPNO-MP2
   Christoph Reimann      : Effective Core Potentials
   Marius Retegan         : Local ZFS, SOC
   Christoph Riplinger    : Optimizer, TS searches, QM/MM, DLPNO-CCSD(T), (RO)-DLPNO pert. Triples
   Tobias Risthaus        : Range-separated hybrids, TD-DFT gradient, RPA, STAB
   Michael Roemelt        : Restricted open shell CIS
   Masaaki Saitow         : Open-shell DLPNO
   Barbara Sandhoefer     : DKH picture change effects
   Kantharuban Sivalingam : CASSCF convergence, NEVPT2, FIC-MRCI
   Georgi Stoychev        : AutoAux
   Boris Wezisla          : Elementary symmetry handling
   Frank Wennmohs         : Technical directorship


 We gratefully acknowledge several colleagues who have allowed us to
 interface, adapt or use parts of their codes:
   Stefan Grimme, W. Hujo, H. Kruse,             : VdW corrections, initial TS optimization,
                  C. Bannwarth                     DFT functionals, gCP, sTDA/sTD-DF
   Ed Valeev                                     : LibInt (2-el integral package), F12 methods
   Garnet Chan, S. Sharma, J. Yang, R. Olivares  : DMRG
   Ulf Ekstrom                                   : XCFun DFT Library
   Mihaly Kallay                                 : mrcc  (arbitrary order and MRCC methods)
   Jiri Pittner, Ondrej Demel                    : Mk-CCSD
   Frank Weinhold                                : gennbo (NPA and NBO analysis)
   Christopher J. Cramer and Donald G. Truhlar   : smd solvation model


 Your calculation uses the libint2 library for the computation of 2-el integrals
 For citations please refer to: http://libint.valeyev.net

 This ORCA versions uses:
   CBLAS   interface :  Fast vector & matrix operations
   LAPACKE interface :  Fast linear algebra routines
   SCALAPACK package :  Parallel linear algebra routines


Your calculation utilizes the atom-pairwise dispersion correction
with the zero-damping scheme (D30)
Cite in your paper:
S.Grimme, J.Antony, S.Ehrlich and H.Krieg, J.Chem.Phys., 132, (2010), 154104 
   

XCFun DFT library Copyright 2009-2010 Ulf Ekstrom and contributors.
See http://admol.org/xcfun for more information. This is free soft-
ware; see the source code for copying conditions. There is ABSOLUTELY
NO WARRANTY; not even for MERCHANTABILITY or FITNESS FOR A PARTICULAR
PURPOSE. For details see the documentation. Scientific users of this 
library should cite U. Ekstrom, L. Visscher, R. Bast, A. J. Thorvald-
sen and K. Ruud; J.Chem.Theor.Comp. 2010, DOI: 10.1021/ct100117s
XCFun Version 0.99 
Your calculation utilizes the basis: 6-31G(d)
   H-He, Li-Ne : W. J. Hehre, R. Ditchfield and J.A. Pople, J. Chem. Phys. 56, 2257 (1972).
                 Note: He and Ne are unpublished basis sets taken from the Gaussian program.
                 Note: Li and B from J. D. Dill and J. A. Pople, J. Chem. Phys. 62, 2921 (1975).
   Na - Ar     : M. M. Francl, W. J. Pietro, W. J. Hehre, J. S. Binkley, M. S. Gordon, 
                 D. J. DeFrees and J. A. Pople, J. Chem. Phys. 77, 3654 (1982).
   K - Zn      : V. A. Rassolov, J. A. Pople, M. A. Ratner, and T. L. Windus, J. Chem. Phys. 109, 1223 (1998).

================================================================================
                                        WARNINGS
                       Please study these warnings very carefully!
================================================================================

Warning: TCutStore was < 0. Adjusted to Thresh (uncritical)

INFO   : the flag for use of LIBINT has been found!

================================================================================
                                       INPUT FILE
================================================================================
NAME = initial2.inp
|  1> ! WB97X-D3 6-31G(d) VerySlowConv
|  2> ! KDIIS NOSOSCF
|  3> %base "Scan_2"
|  4> 
|  5> %scf
|  6> maxiter 999
|  7> end
|  8> 
|  9> * xyz 0 1
| 10> C          1.523135948657   -2.849670976575   -0.000000000000
| 11> H          2.399164989653   -2.916736215407   -0.000000000000
| 12> C          0.918881890894   -1.589748552213    0.000000000000
| 13> H          1.414976928951   -0.864617996896    0.000000000000
| 14> C         -0.474370035750   -1.483086640496   -0.000000000000
| 15> H         -0.854303957637   -0.690890466866   -0.000000000000
| 16> C         -1.263367944016   -2.636347348078   -0.000000000000
| 17> H         -2.139396922145   -2.569281985351   -0.000000000000
| 18> C         -0.659113744377   -3.896269912571    0.000000000000
| 19> H         -1.155208243530   -4.621400794330    0.000000000000
| 20> C          0.734138228341   -4.002931628454   -0.000000000000
| 21> H          1.114072860959   -4.795127482762   -0.000000000000
| 22> **                         ****END OF INPUT****
================================================================================

                       ****************************
                       * Single Point Calculation *
                       ****************************

---------------------------------
CARTESIAN COORDINATES (ANGSTROEM)
---------------------------------
  C      1.523136   -2.849671   -0.000000
  H      2.399165   -2.916736   -0.000000
  C      0.918882   -1.589749    0.000000
  H      1.414977   -0.864618    0.000000
  C     -0.474370   -1.483087   -0.000000
  H     -0.854304   -0.690890   -0.000000
  C     -1.263368   -2.636347   -0.000000
  H     -2.139397   -2.569282   -0.000000
  C     -0.659114   -3.896270    0.000000
  H     -1.155208   -4.621401    0.000000
  C      0.734138   -4.002932   -0.000000
  H      1.114073   -4.795127   -0.000000

----------------------------
CARTESIAN COORDINATES (A.U.)
----------------------------
  NO LB      ZA    FRAG     MASS         X           Y           Z
   0 C     6.0000    0    12.011    2.878310   -5.385098   -0.000000
   1 H     1.0000    0     1.008    4.533765   -5.511833   -0.000000
   2 C     6.0000    0    12.011    1.736435   -3.004189    0.000000
   3 H     1.0000    0     1.008    2.673919   -1.633891    0.000000
   4 C     6.0000    0    12.011   -0.896429   -2.802628   -0.000000
   5 H     1.0000    0     1.008   -1.614401   -1.305594   -0.000000
   6 C     6.0000    0    12.011   -2.387419   -4.981974   -0.000000
   7 H     1.0000    0     1.008   -4.042874   -4.855239   -0.000000
   8 C     6.0000    0    12.011   -1.245544   -7.362883    0.000000
   9 H     1.0000    0     1.008   -2.183027   -8.733182    0.000000
  10 C     6.0000    0    12.011    1.387320   -7.564445   -0.000000
  11 H     1.0000    0     1.008    2.105293   -9.061478   -0.000000

--------------------------------
INTERNAL COORDINATES (ANGSTROEM)
--------------------------------
 C      0   0   0     0.000000000000     0.00000000     0.00000000
 H      1   0   0     0.878592412287     0.00000000     0.00000000
 C      1   2   0     1.397328694951   119.99999497     0.00000000
 H      3   1   2     0.878592402106   119.99997953     0.00000000
 C      3   1   2     1.397328771087   120.00000239   180.00000000
 H      5   3   1     0.878592375630   119.99997978   180.00000000
 C      5   3   1     1.397328865694   119.99999833     0.00000000
 H      7   5   3     0.878592359060   119.99999738   180.00000000
 C      7   5   3     1.397328882654   119.99999652     0.00000000
 H      9   7   5     0.878592367239   120.00001779   180.00000000
 C      1   2   3     1.397328713595   120.00000068   180.00000000
 H     11   1   2     0.878592395053   119.99997617     0.00000000

---------------------------
INTERNAL COORDINATES (A.U.)
---------------------------
 C      0   0   0     0.000000000000     0.00000000     0.00000000
 H      1   0   0     1.660299042563     0.00000000     0.00000000
 C      1   2   0     2.640568552527   119.99999497     0.00000000
 H      3   1   2     1.660299023325   119.99997953     0.00000000
 C      3   1   2     2.640568696404   120.00000239   180.00000000
 H      5   3   1     1.660298973291   119.99997978   180.00000000
 C      5   3   1     2.640568875184   119.99999833     0.00000000
 H      7   5   3     1.660298941980   119.99999738   180.00000000
 C      7   5   3     2.640568907235   119.99999652     0.00000000
 H      9   7   5     1.660298957435   120.00001779   180.00000000
 C      1   2   3     2.640568587758   120.00000068   180.00000000
 H     11   1   2     1.660299009997   119.99997617     0.00000000

---------------------
BASIS SET INFORMATION
---------------------
There are 2 groups of distinct atoms

 Group   1 Type C   : 10s4p1d contracted to 3s2p1d pattern {631/31/1}
 Group   2 Type H   : 4s contracted to 2s pattern {31}

Atom   0C    basis set group =>   1
Atom   1H    basis set group =>   2
Atom   2C    basis set group =>   1
Atom   3H    basis set group =>   2
Atom   4C    basis set group =>   1
Atom   5H    basis set group =>   2
Atom   6C    basis set group =>   1
Atom   7H    basis set group =>   2
Atom   8C    basis set group =>   1
Atom   9H    basis set group =>   2
Atom  10C    basis set group =>   1
Atom  11H    basis set group =>   2
------------------------------------------------------------------------------
                           ORCA GTO INTEGRAL CALCULATION
------------------------------------------------------------------------------

                         BASIS SET STATISTICS AND STARTUP INFO

 # of primitive gaussian shells          ...  114
 # of primitive gaussian functions       ...  186
 # of contracted shells                  ...   48
 # of contracted basis functions         ...   96
 Highest angular momentum                ...    2
 Maximum contraction depth               ...    6
 Integral package used                   ... LIBINT
 Integral threshhold            Thresh   ...  1.000e-10
 Primitive cut-off              TCut     ...  1.000e-11


------------------------------ INTEGRAL EVALUATION ----------------------------


 * One electron integrals 
 Pre-screening matrix                    ... done
 Shell pair data                         ... done (   0.001 sec)

-------------------------------------------------------------------------------
                                 ORCA SCF
-------------------------------------------------------------------------------

------------
SCF SETTINGS
------------
Hamiltonian:
 Density Functional     Method          .... DFT(GTOs)
 Exchange Functional    Exchange        .... WB97X-D3
 Correlation Functional Correlation     .... WB97X-D3
 Gradients option       PostSCFGGA      .... off
 Hybrid DFT is turned on
   Fraction HF Exchange ScalHFX         ....  0.195728
   Scaling of DF-GGA-X  ScalDFX         ....  0.000000
   Scaling of DF-GGA-C  ScalDFC         ....  1.000000
   Scaling of DF-LDA-C  ScalLDAC        ....  1.000000
   Perturbative correction              ....  0.000000
 Long-range corrected/Screened/Range-Separated Hybrid DFT is turned on
   Amount of maximum screened exact exchange              ....  0.804272
   Range separation parameter mu (erf(mu*r12)/r12)        ....  0.250000


General Settings:
 Integral files         IntName         .... Scan_2
 Hartree-Fock type      HFTyp           .... RHF
 Total Charge           Charge          ....    0
 Multiplicity           Mult            ....    1
 Number of Electrons    NEL             ....   42
 Basis Dimension        Dim             ....   96
 Nuclear Repulsion      ENuc            ....    209.9265621670 Eh

Convergence Acceleration:
 DIIS                   CNVDIIS         .... on
   Start iteration      DIISMaxIt       ....     0
   Startup error        DIISStart       ....  0.200000
   # of expansion vecs  DIISMaxEq       ....     5
   Bias factor          DIISBfac        ....   1.050
   Max. coefficient     DIISMaxC        ....  10.000
 Newton-Raphson         CNVNR           .... off
 SOSCF                  CNVSOSCF        .... off
 Level Shifting         CNVShift        .... off
 Zerner damping         CNVZerner       .... off
 Static damping         CNVDamp         .... off
 Fernandez-Rico         CNVRico         .... off

SCF Procedure:
 Maximum # iterations   MaxIter         ....   999
 SCF integral mode      SCFMode         .... Direct
   Integral package                     .... LIBINT
 Reset frequeny         DirectResetFreq ....    20
 Integral Threshold     Thresh          ....  1.000e-10 Eh
 Primitive CutOff       TCut            ....  1.000e-11 Eh

Convergence Tolerance:
 Convergence Check Mode ConvCheckMode   .... All-Criteria
 Convergence forced     ConvForced      .... 0
 Energy Change          TolE            ....  1.000e-06 Eh
 Max Density Change     TolMaxP         ....  1.000e-05
 RMS Density Change     TolRMSP         ....  1.000e-06
 DIIS Error             TolErr          ....  1.000e-06


Diagonalization of the overlap matrix:
Smallest eigenvalue                        ... 4.849e-04
Time for diagonalization                   ...    0.003 sec
Threshold for overlap eigenvalues          ... 1.000e-08
Number of eigenvalues below threshold      ... 0
Time for construction of square roots      ...    0.026 sec
Total time needed                          ...    0.029 sec

-------------------
DFT GRID GENERATION
-------------------

General Integration Accuracy     IntAcc      ...  4.340
Radial Grid Type                 RadialGrid  ... Gauss-Chebyshev
Angular Grid (max. acc.)         AngularGrid ... Lebedev-110
Angular grid pruning method      GridPruning ... 3 (G Style)
Weight generation scheme         WeightScheme... Becke
Basis function cutoff            BFCut       ...    1.0000e-10
Integration weight cutoff        WCut        ...    1.0000e-14
Grids for H and He will be reduced by one unit

# of grid points (after initial pruning)     ...  14700 (   0.0 sec)
# of grid points (after weights+screening)   ...  13724 (   0.1 sec)
nearest neighbour list constructed           ...    0.0 sec
Grid point re-assignment to atoms done       ...    0.0 sec
Grid point division into batches done        ...    0.0 sec
Reduced shell lists constructed in    0.5 sec

Total number of grid points                  ...    13724
Total number of batches                      ...      222
Average number of points per batch           ...       61
Average number of grid points per atom       ...     1144
Average number of shells per batch           ...    38.14 (79.46%)
Average number of basis functions per batch  ...    78.76 (82.04%)
Average number of large shells per batch     ...    31.74 (83.22%)
Average number of large basis fcns per batch ...    65.61 (83.30%)
Maximum spatial batch extension              ...  19.39, 20.73, 38.86 au
Average spatial batch extension              ...   3.58,  3.97,  5.31 au

Time for grid setup =    0.671 sec

------------------------------
INITIAL GUESS: MODEL POTENTIAL
------------------------------
Loading Hartree-Fock densities                     ... done
Calculating cut-offs                               ... done
Setting up the integral package                    ... done
Initializing the effective Hamiltonian             ... done
Starting the Coulomb interaction                   ... done (   0.2 sec)
Reading the grid                                   ... done
Mapping shells                                     ... done
Starting the XC term evaluation                    ... done (   0.4 sec)
  promolecular density results
     # of electrons  =     42.009836592
     EX              =    -32.650854592
     EC              =     -1.388442109
     EX+EC           =    -34.039296701
Transforming the Hamiltonian                       ... done (   0.0 sec)
Diagonalizing the Hamiltonian                      ... done (   0.0 sec)
Back transforming the eigenvectors                 ... done (   0.0 sec)
Now organizing SCF variables                       ... done
                      ------------------
                      INITIAL GUESS DONE (   1.7 sec)
                      ------------------
--------------
SCF ITERATIONS
--------------
ITER       Energy         Delta-E        Max-DP      RMS-DP      [F,P]   Gradient Norm
               ***  Starting incremental Fock matrix formation  ***
                             ****Resetting KDIIS****
                             ****Turning on KDIIS(Cayley)****
  0   -231.7674479472   0.000000000000 0.01508287  0.00108539  0.0995941   0.074471793
  1   -231.8037595353  -0.036311588068 0.01671405  0.00135066  0.0864932   0.064207217
  2   -231.8405639734  -0.036804438124 0.02701542  0.00211673  0.0705297   0.052131063
  3   -231.8846820835  -0.044118110067 0.04006932  0.00308437  0.0431167   0.031808935
  4   -231.9104445029  -0.025762419472 0.00132221  0.00013363  0.0009326   0.000709422
  5   -231.9104612535  -0.000016750511 0.00055105  0.00003366  0.0001625   0.000176314
                          ***Energy convergence achieved***
  6   -231.9104615204  -0.000000266965 0.00019393  0.00001699  0.0001415   0.000140409

            ***Energy convergence in two consecutive cycles with***
                    ***'reasonable' density convergence***
                       *** signaling convergence ***

                    *** KDIIS BlockDiag ( 0.002 sec) ***

               *****************************************************
               *                     SUCCESS                       *
               *           SCF CONVERGED AFTER   7 CYCLES          *
               *****************************************************

Setting up the final grid:

General Integration Accuracy     IntAcc      ...  4.670
Radial Grid Type                 RadialGrid  ... Gauss-Chebyshev
Angular Grid (max. acc.)         AngularGrid ... Lebedev-302
Angular grid pruning method      GridPruning ... 3 (G Style)
Weight generation scheme         WeightScheme... Becke
Basis function cutoff            BFCut       ...    1.0000e-10
Integration weight cutoff        WCut        ...    1.0000e-14
Grids for H and He will be reduced by one unit

# of grid points (after initial pruning)     ...  57636 (   0.1 sec)
# of grid points (after weights+screening)   ...  53224 (   0.2 sec)
nearest neighbour list constructed           ...    0.0 sec
Grid point re-assignment to atoms done       ...    0.0 sec
Grid point division into batches done        ...    0.4 sec
Reduced shell lists constructed in    1.8 sec

Total number of grid points                  ...    53224
Total number of batches                      ...      838
Average number of points per batch           ...       63
Average number of grid points per atom       ...     4435
Average number of shells per batch           ...    34.80 (72.50%)
Average number of basis functions per batch  ...    71.79 (74.78%)
Average number of large shells per batch     ...    28.38 (81.56%)
Average number of large basis fcns per batch ...    58.19 (81.05%)
Maximum spatial batch extension              ...  16.73, 17.75, 17.46 au
Average spatial batch extension              ...   2.48,  2.58,  2.95 au

Final grid set up in    2.1 sec
Final integration                            ... done (   1.4 sec)
Change in XC energy                          ...     0.001427630
Integrated number of electrons               ...    41.999882333
Previous integrated no of electrons          ...    42.008635594

----------------
TOTAL SCF ENERGY
----------------

Total Energy       :         -231.90903443 Eh           -6310.56565 eV

Components:
Nuclear Repulsion  :          209.92656217 Eh            5712.39217 eV
Electronic Energy  :         -441.83559660 Eh          -12022.95782 eV
One Electron Energy:         -726.23336631 Eh          -19761.81457 eV
Two Electron Energy:          284.39776971 Eh            7738.85675 eV

Virial components:
Potential Energy   :         -464.84891330 Eh          -12649.18200 eV
Kinetic Energy     :          232.93987887 Eh            6338.61635 eV
Virial Ratio       :            1.99557463


DFT components:
N(Alpha)           :       20.999941166624 electrons
N(Beta)            :       20.999941166624 electrons
N(Total)           :       41.999882333248 electrons
E(XC)              :      -24.161493891552 Eh       

---------------
SCF CONVERGENCE
---------------

  Last Energy change         ...   -5.4467e-07  Tolerance :   1.0000e-06
  Last MAX-Density change    ...    8.7082e-05  Tolerance :   1.0000e-05
  Last RMS-Density change    ...    6.3769e-06  Tolerance :   1.0000e-06
  Last DIIS Error            ...    2.9676e-05  Tolerance :   1.0000e-06

             **** THE GBW FILE WAS UPDATED (Scan_2.gbw) ****
             **** DENSITY FILE WAS UPDATED (Scan_2.scfp.tmp) ****
             **** ENERGY FILE WAS UPDATED (Scan_2.en.tmp) ****
----------------
ORBITAL ENERGIES
----------------

  NO   OCC          E(Eh)            E(eV) 
   0   2.0000     -10.256280      -279.0876 
   1   2.0000     -10.256142      -279.0838 
   2   2.0000     -10.256006      -279.0801 
   3   2.0000     -10.255644      -279.0703 
   4   2.0000     -10.255531      -279.0672 
   5   2.0000     -10.255384      -279.0632 
   6   2.0000      -0.967854       -26.3367 
   7   2.0000      -0.873810       -23.7776 
   8   2.0000      -0.873750       -23.7759 
   9   2.0000      -0.740680       -20.1549 
  10   2.0000      -0.740590       -20.1525 
  11   2.0000      -0.661828       -18.0093 
  12   2.0000      -0.625609       -17.0237 
  13   2.0000      -0.537319       -14.6212 
  14   2.0000      -0.537106       -14.6154 
  15   2.0000      -0.531686       -14.4679 
  16   2.0000      -0.457366       -12.4456 
  17   2.0000      -0.446854       -12.1595 
  18   2.0000      -0.446546       -12.1511 
  19   2.0000      -0.326579        -8.8867 
  20   2.0000      -0.326490        -8.8842 
  21   0.0000       0.083739         2.2786 
  22   0.0000       0.083956         2.2846 
  23   0.0000       0.250793         6.8244 
  24   0.0000       0.261228         7.1084 
  25   0.0000       0.289032         7.8650 
  26   0.0000       0.289621         7.8810 
  27   0.0000       0.308275         8.3886 
  28   0.0000       0.308381         8.3915 
  29   0.0000       0.343540         9.3482 
  30   0.0000       0.412411        11.2223 
  31   0.0000       0.412460        11.2236 
  32   0.0000       0.417055        11.3486 
  33   0.0000       0.417461        11.3597 
  34   0.0000       0.581938        15.8353 
  35   0.0000       0.634383        17.2624 
  36   0.0000       0.635153        17.2834 
  37   0.0000       0.666870        18.1465 
  38   0.0000       0.676035        18.3959 
  39   0.0000       0.697575        18.9820 
  40   0.0000       0.711084        19.3496 
  41   0.0000       0.711584        19.3632 
  42   0.0000       0.723852        19.6970 
  43   0.0000       0.724074        19.7030 
  44   0.0000       0.751190        20.4409 
  45   0.0000       0.751559        20.4510 
  46   0.0000       0.780884        21.2489 
  47   0.0000       0.781171        21.2567 
  48   0.0000       0.862383        23.4666 
  49   0.0000       1.022777        27.8312 
  50   0.0000       1.032150        28.0862 
  51   0.0000       1.032660        28.1001 
  52   0.0000       1.092176        29.7196 
  53   0.0000       1.108720        30.1698 
  54   0.0000       1.108993        30.1772 
  55   0.0000       1.141813        31.0703 
  56   0.0000       1.142436        31.0873 
  57   0.0000       1.162955        31.6456 
  58   0.0000       1.164146        31.6780 
  59   0.0000       1.239215        33.7207 
  60   0.0000       1.272147        34.6169 
  61   0.0000       1.273280        34.6477 
  62   0.0000       1.362082        37.0641 
  63   0.0000       1.384752        37.6810 
  64   0.0000       1.471788        40.0494 
  65   0.0000       1.580701        43.0130 
  66   0.0000       1.580945        43.0197 
  67   0.0000       1.592259        43.3276 
  68   0.0000       1.592711        43.3399 
  69   0.0000       1.687528        45.9200 
  70   0.0000       1.687906        45.9302 
  71   0.0000       1.878868        51.1266 
  72   0.0000       1.881361        51.1944 
  73   0.0000       2.183151        59.4066 
  74   0.0000       2.191192        59.6254 
  75   0.0000       2.191887        59.6443 
  76   0.0000       2.235080        60.8196 
  77   0.0000       2.235541        60.8322 
  78   0.0000       2.249574        61.2140 
  79   0.0000       2.250595        61.2418 
  80   0.0000       2.261337        61.5341 
  81   0.0000       2.397056        65.2272 
  82   0.0000       2.398078        65.2550 
  83   0.0000       2.398813        65.2750 
  84   0.0000       2.407809        65.5198 
  85   0.0000       2.408113        65.5281 
  86   0.0000       2.696096        73.3645 
  87   0.0000       2.696321        73.3706 
  88   0.0000       2.753821        74.9353 
  89   0.0000       2.814381        76.5832 
  90   0.0000       2.816079        76.6294 
  91   0.0000       2.953873        80.3790 
  92   0.0000       3.012471        81.9735 
  93   0.0000       3.013076        81.9900 
  94   0.0000       3.104329        84.4731 
  95   0.0000       3.739714       101.7628 

                    ********************************
                    * MULLIKEN POPULATION ANALYSIS *
                    ********************************

-----------------------
MULLIKEN ATOMIC CHARGES
-----------------------
   0 C :   -0.128934
   1 H :    0.128165
   2 C :   -0.124069
   3 H :    0.125917
   4 C :   -0.125812
   5 H :    0.124734
   6 C :   -0.128935
   7 H :    0.128165
   8 C :   -0.124069
   9 H :    0.125917
  10 C :   -0.125813
  11 H :    0.124734
Sum of atomic charges:   -0.0000000

--------------------------------
MULLIKEN REDUCED ORBITAL CHARGES
--------------------------------
  0 C s       :     3.146324  s :     3.146324
      pz      :     0.992807  p :     2.945527
      px      :     0.985131
      py      :     0.967589
      dz2     :     0.003847  d :     0.037083
      dxz     :     0.001227
      dyz     :     0.006380
      dx2y2   :     0.017680
      dxy     :     0.007950
  1 H s       :     0.871835  s :     0.871835
  2 C s       :     3.144547  s :     3.144547
      pz      :     0.992085  p :     2.942503
      px      :     0.972731
      py      :     0.977688
      dz2     :     0.003806  d :     0.037019
      dxz     :     0.004755
      dyz     :     0.002851
      dx2y2   :     0.009089
      dxy     :     0.016517
  3 H s       :     0.874083  s :     0.874083
  4 C s       :     3.144889  s :     3.144889
      pz      :     0.992293  p :     2.943875
      px      :     0.970966
      py      :     0.980616
      dz2     :     0.003823  d :     0.037048
      dxz     :     0.005444
      dyz     :     0.002159
      dx2y2   :     0.011722
      dxy     :     0.013900
  5 H s       :     0.875266  s :     0.875266
  6 C s       :     3.146324  s :     3.146324
      pz      :     0.992807  p :     2.945527
      px      :     0.985131
      py      :     0.967589
      dz2     :     0.003847  d :     0.037083
      dxz     :     0.001227
      dyz     :     0.006380
      dx2y2   :     0.017680
      dxy     :     0.007950
  7 H s       :     0.871835  s :     0.871835
  8 C s       :     3.144548  s :     3.144548
      pz      :     0.992085  p :     2.942503
      px      :     0.972731
      py      :     0.977687
      dz2     :     0.003806  d :     0.037019
      dxz     :     0.004755
      dyz     :     0.002851
      dx2y2   :     0.009089
      dxy     :     0.016517
  9 H s       :     0.874083  s :     0.874083
 10 C s       :     3.144889  s :     3.144889
      pz      :     0.992293  p :     2.943875
      px      :     0.970966
      py      :     0.980616
      dz2     :     0.003823  d :     0.037048
      dxz     :     0.005444
      dyz     :     0.002159
      dx2y2   :     0.011722
      dxy     :     0.013900
 11 H s       :     0.875266  s :     0.875266


                     *******************************
                     * LOEWDIN POPULATION ANALYSIS *
                     *******************************

----------------------
LOEWDIN ATOMIC CHARGES
----------------------
   0 C :   -0.136148
   1 H :    0.136025
   2 C :   -0.135167
   3 H :    0.135458
   4 C :   -0.135308
   5 H :    0.135140
   6 C :   -0.136148
   7 H :    0.136025
   8 C :   -0.135167
   9 H :    0.135458
  10 C :   -0.135308
  11 H :    0.135140

-------------------------------
LOEWDIN REDUCED ORBITAL CHARGES
-------------------------------
  0 C s       :     2.880455  s :     2.880455
      pz      :     0.984100  p :     3.168088
      px      :     1.110105
      py      :     1.073883
      dz2     :     0.006721  d :     0.087604
      dxz     :     0.002542
      dyz     :     0.013479
      dx2y2   :     0.040183
      dxy     :     0.024679
  1 H s       :     0.863975  s :     0.863975
  2 C s       :     2.880322  s :     2.880322
      pz      :     0.983867  p :     3.167204
      px      :     1.085171
      py      :     1.098166
      dz2     :     0.006701  d :     0.087641
      dxz     :     0.010023
      dyz     :     0.006008
      dx2y2   :     0.026491
      dxy     :     0.038418
  3 H s       :     0.864542  s :     0.864542
  4 C s       :     2.880176  s :     2.880176
      pz      :     0.983957  p :     3.167501
      px      :     1.080791
      py      :     1.102754
      dz2     :     0.006710  d :     0.087631
      dxz     :     0.011482
      dyz     :     0.004542
      dx2y2   :     0.030704
      dxy     :     0.034192
  5 H s       :     0.864860  s :     0.864860
  6 C s       :     2.880455  s :     2.880455
      pz      :     0.984100  p :     3.168088
      px      :     1.110105
      py      :     1.073883
      dz2     :     0.006721  d :     0.087604
      dxz     :     0.002542
      dyz     :     0.013479
      dx2y2   :     0.040183
      dxy     :     0.024679
  7 H s       :     0.863975  s :     0.863975
  8 C s       :     2.880322  s :     2.880322
      pz      :     0.983867  p :     3.167204
      px      :     1.085171
      py      :     1.098166
      dz2     :     0.006701  d :     0.087641
      dxz     :     0.010023
      dyz     :     0.006008
      dx2y2   :     0.026491
      dxy     :     0.038418
  9 H s       :     0.864542  s :     0.864542
 10 C s       :     2.880176  s :     2.880176
      pz      :     0.983957  p :     3.167501
      px      :     1.080791
      py      :     1.102754
      dz2     :     0.006710  d :     0.087631
      dxz     :     0.011482
      dyz     :     0.004542
      dx2y2   :     0.030704
      dxy     :     0.034192
 11 H s       :     0.864860  s :     0.864860


                      *****************************
                      * MAYER POPULATION ANALYSIS *
                      *****************************

  NA   - Mulliken gross atomic population
  ZA   - Total nuclear charge
  QA   - Mulliken gross atomic charge
  VA   - Mayer's total valence
  BVA  - Mayer's bonded valence
  FA   - Mayer's free valence

  ATOM       NA         ZA         QA         VA         BVA        FA
  0 C      6.1289     6.0000    -0.1289     3.9748     3.9748    -0.0000
  1 H      0.8718     1.0000     0.1282     0.9182     0.9182     0.0000
  2 C      6.1241     6.0000    -0.1241     3.9758     3.9758     0.0000
  3 H      0.8741     1.0000     0.1259     0.9186     0.9186    -0.0000
  4 C      6.1258     6.0000    -0.1258     3.9778     3.9778     0.0000
  5 H      0.8753     1.0000     0.1247     0.9191     0.9191    -0.0000
  6 C      6.1289     6.0000    -0.1289     3.9748     3.9748     0.0000
  7 H      0.8718     1.0000     0.1282     0.9182     0.9182    -0.0000
  8 C      6.1241     6.0000    -0.1241     3.9758     3.9758    -0.0000
  9 H      0.8741     1.0000     0.1259     0.9186     0.9186    -0.0000
 10 C      6.1258     6.0000    -0.1258     3.9778     3.9778    -0.0000
 11 H      0.8753     1.0000     0.1247     0.9191     0.9191    -0.0000

  Mayer bond orders larger than 0.1
B(  0-C ,  1-H ) :   0.9450 B(  0-C ,  2-C ) :   1.4707 B(  0-C , 10-C ) :   1.4719 
B(  2-C ,  3-H ) :   0.9452 B(  2-C ,  4-C ) :   1.4730 B(  4-C ,  5-H ) :   0.9454 
B(  4-C ,  6-C ) :   1.4719 B(  6-C ,  7-H ) :   0.9450 B(  6-C ,  8-C ) :   1.4707 
B(  8-C ,  9-H ) :   0.9452 B(  8-C , 10-C ) :   1.4730 B( 10-C , 11-H ) :   0.9454 


-------
TIMINGS
-------

Total SCF time: 0 days 0 hours 1 min 20 sec 

Total time                  ....      80.398 sec
Sum of individual times     ....      79.722 sec  ( 99.2%)

Fock matrix formation       ....      75.786 sec  ( 94.3%)
  XC integration            ....       6.270 sec  (  8.3% of F)
    Basis function eval.    ....       2.984 sec  ( 47.6% of XC)
    Density eval.           ....       0.469 sec  (  7.5% of XC)
    XC-Functional eval.     ....       1.043 sec  ( 16.6% of XC)
    XC-Potential eval.      ....       0.631 sec  ( 10.1% of XC)
Diagonalization             ....       0.072 sec  (  0.1%)
Density matrix formation    ....       0.001 sec  (  0.0%)
Population analysis         ....       0.012 sec  (  0.0%)
Initial guess               ....       1.053 sec  (  1.3%)
Orbital Transformation      ....       0.000 sec  (  0.0%)
Orbital Orthonormalization  ....       0.000 sec  (  0.0%)
DIIS solution               ....       0.000 sec  (  0.0%)
Grid generation             ....       2.798 sec  (  3.5%)


-------------------------------------------------------------------------------
                          DFT DISPERSION CORRECTION                            
                                                                               
                              DFTD3 V3.1  Rev 1                                
                              USING zero damping                               
-------------------------------------------------------------------------------
The omegaB97X-D3 functional is recognized. Fit by Chai et al.
Active option DFTDOPT                   ...         3   

molecular C6(AA) [au] = 1655.382601 


            DFT-D V3
 parameters
 s6 scaling factor         :     1.0000 
 rs6 scaling factor        :     1.2810 
 s8 scaling factor         :     1.0000 
 rs8 scaling factor        :     1.0940 
 Damping factor alpha6     :    14.0000 
 Damping factor alpha8     :    16.0000 
 ad hoc parameters k1-k3   :    16.0000     1.3333    -4.0000 

 Edisp/kcal,au: -1.382079608421  -0.002202483816 
 E6   /kcal   :  -0.541058690 
 E8   /kcal   :  -0.841020919 
 % E8         :  60.851843381 

-------------------------   ----------------
Dispersion correction           -0.002202484
-------------------------   ----------------


-------------------------   --------------------
FINAL SINGLE POINT ENERGY      -231.911236918799
-------------------------   --------------------


                            ***************************************
                            *     ORCA property calculations      *
                            ***************************************

                                    ---------------------
                                    Active property flags
                                    ---------------------
   (+) Dipole Moment


------------------------------------------------------------------------------
                       ORCA ELECTRIC PROPERTIES CALCULATION
------------------------------------------------------------------------------

Dipole Moment Calculation                       ... on
Quadrupole Moment Calculation                   ... off
Polarizability Calculation                      ... off
GBWName                                         ... Scan_2.gbw
Electron density file                           ... Scan_2.scfp.tmp

-------------
DIPOLE MOMENT
-------------
                                X             Y             Z
Electronic contribution:     -0.00000      -0.00000       0.00000
Nuclear contribution   :      0.00000       0.00000       0.00000
                        -----------------------------------------
Total Dipole Moment    :      0.00000       0.00000       0.00000
                        -----------------------------------------
Magnitude (a.u.)       :      0.00000
Magnitude (Debye)      :      0.00000


Timings for individual modules:

Sum of individual times         ...       82.018 sec (=   1.367 min)
GTO integral calculation        ...        1.469 sec (=   0.024 min)   1.8 %
SCF iterations                  ...       80.549 sec (=   1.342 min)  98.2 %
                             ****ORCA TERMINATED NORMALLY****
TOTAL RUN TIME: 0 days 0 hours 1 minutes 23 seconds 508 msec
