
                                 *****************
                                 * O   R   C   A *
                                 *****************

           --- An Ab Initio, DFT and Semiempirical electronic structure package ---

                  #######################################################
                  #                        -***-                        #
                  #  Department of molecular theory and spectroscopy    #
                  #              Directorship: Frank Neese              #
                  # Max Planck Institute for Chemical Energy Conversion #
                  #                  D-45470 Muelheim/Ruhr              #
                  #                       Germany                       #
                  #                                                     #
                  #                  All rights reserved                #
                  #                        -***-                        #
                  #######################################################


                         Program Version 4.0.0.2 - RELEASE -


 With contributions from (in alphabetic order):
   Daniel Aravena         : Magnetic Properties
   Michael Atanasov       : Ab Initio Ligand Field Theory
   Ute Becker             : Parallelization
   Martin Brehm           : Molecular dynamics
   Dmytro Bykov           : SCF Hessian
   Vijay G. Chilkuri      : MRCI spin determinant printing
   Dipayan Datta          : RHF DLPNO-CCSD density
   Achintya Kumar Dutta   : EOM-CC, STEOM-CC
   Dmitry Ganyushin       : Spin-Orbit,Spin-Spin,Magnetic field MRCI
   Yang Guo               : DLPNO-NEVPT2, CIM, IAO-localization
   Andreas Hansen         : Spin unrestricted coupled pair/coupled cluster methods
   Lee Huntington         : MR-EOM, pCC
   Robert Izsak           : Overlap fitted RIJCOSX, COSX-SCS-MP3, EOM
   Christian Kollmar      : KDIIS, OOCD, Brueckner-CCSD(T), CCSD density
   Simone Kossmann        : Meta GGA functionals, TD-DFT gradient, OOMP2, MP2 Hessian
   Martin Krupicka        : AUTO-CI
   Dagmar Lenk            : GEPOL surface
   Dimitrios Liakos       : Extrapolation schemes; parallel MDCI
   Dimitrios Manganas     : ROCIS; embedding schemes
   Dimitrios Pantazis     : SARC Basis sets
   Taras Petrenko         : DFT Hessian,TD-DFT gradient, ASA, ECA, R-Raman, ABS, FL, XAS/XES, NRVS
   Peter Pinski           : DLPNO-MP2
   Christoph Reimann      : Effective Core Potentials
   Marius Retegan         : Local ZFS, SOC
   Christoph Riplinger    : Optimizer, TS searches, QM/MM, DLPNO-CCSD(T), (RO)-DLPNO pert. Triples
   Tobias Risthaus        : Range-separated hybrids, TD-DFT gradient, RPA, STAB
   Michael Roemelt        : Restricted open shell CIS
   Masaaki Saitow         : Open-shell DLPNO
   Barbara Sandhoefer     : DKH picture change effects
   Kantharuban Sivalingam : CASSCF convergence, NEVPT2, FIC-MRCI
   Georgi Stoychev        : AutoAux
   Boris Wezisla          : Elementary symmetry handling
   Frank Wennmohs         : Technical directorship


 We gratefully acknowledge several colleagues who have allowed us to
 interface, adapt or use parts of their codes:
   Stefan Grimme, W. Hujo, H. Kruse,             : VdW corrections, initial TS optimization,
                  C. Bannwarth                     DFT functionals, gCP, sTDA/sTD-DF
   Ed Valeev                                     : LibInt (2-el integral package), F12 methods
   Garnet Chan, S. Sharma, J. Yang, R. Olivares  : DMRG
   Ulf Ekstrom                                   : XCFun DFT Library
   Mihaly Kallay                                 : mrcc  (arbitrary order and MRCC methods)
   Jiri Pittner, Ondrej Demel                    : Mk-CCSD
   Frank Weinhold                                : gennbo (NPA and NBO analysis)
   Christopher J. Cramer and Donald G. Truhlar   : smd solvation model


 Your calculation uses the libint2 library for the computation of 2-el integrals
 For citations please refer to: http://libint.valeyev.net

 This ORCA versions uses:
   CBLAS   interface :  Fast vector & matrix operations
   LAPACKE interface :  Fast linear algebra routines
   SCALAPACK package :  Parallel linear algebra routines


Your calculation utilizes the atom-pairwise dispersion correction
with the zero-damping scheme (D30)
Cite in your paper:
S.Grimme, J.Antony, S.Ehrlich and H.Krieg, J.Chem.Phys., 132, (2010), 154104 
   

XCFun DFT library Copyright 2009-2010 Ulf Ekstrom and contributors.
See http://admol.org/xcfun for more information. This is free soft-
ware; see the source code for copying conditions. There is ABSOLUTELY
NO WARRANTY; not even for MERCHANTABILITY or FITNESS FOR A PARTICULAR
PURPOSE. For details see the documentation. Scientific users of this 
library should cite U. Ekstrom, L. Visscher, R. Bast, A. J. Thorvald-
sen and K. Ruud; J.Chem.Theor.Comp. 2010, DOI: 10.1021/ct100117s
XCFun Version 0.99 
Your calculation utilizes the basis: 6-31G(d)
   H-He, Li-Ne : W. J. Hehre, R. Ditchfield and J.A. Pople, J. Chem. Phys. 56, 2257 (1972).
                 Note: He and Ne are unpublished basis sets taken from the Gaussian program.
                 Note: Li and B from J. D. Dill and J. A. Pople, J. Chem. Phys. 62, 2921 (1975).
   Na - Ar     : M. M. Francl, W. J. Pietro, W. J. Hehre, J. S. Binkley, M. S. Gordon, 
                 D. J. DeFrees and J. A. Pople, J. Chem. Phys. 77, 3654 (1982).
   K - Zn      : V. A. Rassolov, J. A. Pople, M. A. Ratner, and T. L. Windus, J. Chem. Phys. 109, 1223 (1998).

================================================================================
                                        WARNINGS
                       Please study these warnings very carefully!
================================================================================

Warning: TCutStore was < 0. Adjusted to Thresh (uncritical)

INFO   : the flag for use of LIBINT has been found!

================================================================================
                                       INPUT FILE
================================================================================
NAME = initial22.inp
|  1> ! WB97X-D3 6-31G(d) VerySlowConv
|  2> ! KDIIS NOSOSCF
|  3> %base "Scan_22"
|  4> 
|  5> %scf
|  6> maxiter 999
|  7> end
|  8> 
|  9> * xyz 0 1
| 10> C          1.460762953784   -2.844883353954    0.000000586987
| 11> H          4.089596259059   -3.046161217397   -0.000000208406
| 12> C          0.883547614845   -1.641371552013   -0.000001256715
| 13> H          2.372277298284    0.534623565569    0.000000497904
| 14> C         -0.447319463407   -1.539493068213   -0.000001742236
| 15> H         -1.587443467335    0.837771713755    0.000000570159
| 16> C         -1.200992828582   -2.641110325995   -0.000000590897
| 17> H         -3.829829207775   -2.439881484775    0.000000261742
| 18> C         -0.623801764959   -3.844631158491    0.000001248443
| 19> H         -2.112487057443   -6.020657240262   -0.000000420429
| 20> C          0.707085266936   -3.946526126023    0.000001732647
| 21> H          1.847214396593   -6.323789752202   -0.000000679200
| 22> **                         ****END OF INPUT****
================================================================================

                       ****************************
                       * Single Point Calculation *
                       ****************************

---------------------------------
CARTESIAN COORDINATES (ANGSTROEM)
---------------------------------
  C      1.460763   -2.844883    0.000001
  H      4.089596   -3.046161   -0.000000
  C      0.883548   -1.641372   -0.000001
  H      2.372277    0.534624    0.000000
  C     -0.447319   -1.539493   -0.000002
  H     -1.587443    0.837772    0.000001
  C     -1.200993   -2.641110   -0.000001
  H     -3.829829   -2.439881    0.000000
  C     -0.623802   -3.844631    0.000001
  H     -2.112487   -6.020657   -0.000000
  C      0.707085   -3.946526    0.000002
  H      1.847214   -6.323790   -0.000001

----------------------------
CARTESIAN COORDINATES (A.U.)
----------------------------
  NO LB      ZA    FRAG     MASS         X           Y           Z
   0 C     6.0000    0    12.011    2.760442   -5.376050    0.000001
   1 H     1.0000    0     1.008    7.728217   -5.756410   -0.000000
   2 C     6.0000    0    12.011    1.669663   -3.101743   -0.000002
   3 H     1.0000    0     1.008    4.482954    1.010292    0.000001
   4 C     6.0000    0    12.011   -0.845311   -2.909220   -0.000003
   5 H     1.0000    0     1.008   -2.999833    1.583159    0.000001
   6 C     6.0000    0    12.011   -2.269548   -4.990975   -0.000001
   7 H     1.0000    0     1.008   -7.237328   -4.610708    0.000000
   8 C     6.0000    0    12.011   -1.178814   -7.265300    0.000002
   9 H     1.0000    0     1.008   -3.992022  -11.377393   -0.000001
  10 C     6.0000    0    12.011    1.336198   -7.457854    0.000003
  11 H     1.0000    0     1.008    3.490729  -11.950231   -0.000001

--------------------------------
INTERNAL COORDINATES (ANGSTROEM)
--------------------------------
 C      0   0   0     0.000000000000     0.00000000     0.00000000
 H      1   0   0     2.636527512702     0.00000000     0.00000000
 C      1   2   0     1.334772716578   120.00114108     0.00000000
 H      3   1   2     2.636526279425   119.99880667     0.00000000
 C      3   1   2     1.334760804578   120.00028582   179.99995597
 H      5   3   1     2.636526235015   119.99961825   179.99985059
 C      5   3   1     1.334759949961   120.00056970     0.00000000
 H      7   5   3     2.636526835651   120.00078175   179.99995455
 C      7   5   3     1.334770361591   120.00025168     0.00000000
 H      9   7   5     2.636526769940   120.00109000   180.00009895
 C      9   7   5     1.334781958252   119.99981875     0.00000000
 H     11   9   7     2.636527409426   120.00036968   180.00015170

---------------------------
INTERNAL COORDINATES (A.U.)
---------------------------
 C      0   0   0     0.000000000000     0.00000000     0.00000000
 H      1   0   0     4.982314943556     0.00000000     0.00000000
 C      1   2   0     2.522354885363   120.00114108     0.00000000
 H      3   1   2     4.982312612999   119.99880667     0.00000000
 C      3   1   2     2.522332374944   120.00028582   179.99995597
 H      5   3   1     4.982312529077   119.99961825   179.99985059
 C      5   3   1     2.522330759952   120.00056970     0.00000000
 H      7   5   3     4.982313664114   120.00078175   179.99995455
 C      7   5   3     2.522350435082   120.00025168     0.00000000
 H      9   7   5     4.982313539938   120.00109000   180.00009895
 C      9   7   5     2.522372349595   119.99981875     0.00000000
 H     11   9   7     4.982314748391   120.00036968   180.00015170

---------------------
BASIS SET INFORMATION
---------------------
There are 2 groups of distinct atoms

 Group   1 Type C   : 10s4p1d contracted to 3s2p1d pattern {631/31/1}
 Group   2 Type H   : 4s contracted to 2s pattern {31}

Atom   0C    basis set group =>   1
Atom   1H    basis set group =>   2
Atom   2C    basis set group =>   1
Atom   3H    basis set group =>   2
Atom   4C    basis set group =>   1
Atom   5H    basis set group =>   2
Atom   6C    basis set group =>   1
Atom   7H    basis set group =>   2
Atom   8C    basis set group =>   1
Atom   9H    basis set group =>   2
Atom  10C    basis set group =>   1
Atom  11H    basis set group =>   2
------------------------------------------------------------------------------
                           ORCA GTO INTEGRAL CALCULATION
------------------------------------------------------------------------------

                         BASIS SET STATISTICS AND STARTUP INFO

 # of primitive gaussian shells          ...  114
 # of primitive gaussian functions       ...  186
 # of contracted shells                  ...   48
 # of contracted basis functions         ...   96
 Highest angular momentum                ...    2
 Maximum contraction depth               ...    6
 Integral package used                   ... LIBINT
 Integral threshhold            Thresh   ...  1.000e-10
 Primitive cut-off              TCut     ...  1.000e-11


------------------------------ INTEGRAL EVALUATION ----------------------------


 * One electron integrals 
 Pre-screening matrix                    ... done
 Shell pair data                         ... done (   0.001 sec)

-------------------------------------------------------------------------------
                                 ORCA SCF
-------------------------------------------------------------------------------

------------
SCF SETTINGS
------------
Hamiltonian:
 Density Functional     Method          .... DFT(GTOs)
 Exchange Functional    Exchange        .... WB97X-D3
 Correlation Functional Correlation     .... WB97X-D3
 Gradients option       PostSCFGGA      .... off
 Hybrid DFT is turned on
   Fraction HF Exchange ScalHFX         ....  0.195728
   Scaling of DF-GGA-X  ScalDFX         ....  0.000000
   Scaling of DF-GGA-C  ScalDFC         ....  1.000000
   Scaling of DF-LDA-C  ScalLDAC        ....  1.000000
   Perturbative correction              ....  0.000000
 Long-range corrected/Screened/Range-Separated Hybrid DFT is turned on
   Amount of maximum screened exact exchange              ....  0.804272
   Range separation parameter mu (erf(mu*r12)/r12)        ....  0.250000


General Settings:
 Integral files         IntName         .... Scan_22
 Hartree-Fock type      HFTyp           .... RHF
 Total Charge           Charge          ....    0
 Multiplicity           Mult            ....    1
 Number of Electrons    NEL             ....   42
 Basis Dimension        Dim             ....   96
 Nuclear Repulsion      ENuc            ....    187.6157429824 Eh

Convergence Acceleration:
 DIIS                   CNVDIIS         .... on
   Start iteration      DIISMaxIt       ....     0
   Startup error        DIISStart       ....  0.200000
   # of expansion vecs  DIISMaxEq       ....     5
   Bias factor          DIISBfac        ....   1.050
   Max. coefficient     DIISMaxC        ....  10.000
 Newton-Raphson         CNVNR           .... off
 SOSCF                  CNVSOSCF        .... off
 Level Shifting         CNVShift        .... off
 Zerner damping         CNVZerner       .... off
 Static damping         CNVDamp         .... off
 Fernandez-Rico         CNVRico         .... off

SCF Procedure:
 Maximum # iterations   MaxIter         ....   999
 SCF integral mode      SCFMode         .... Direct
   Integral package                     .... LIBINT
 Reset frequeny         DirectResetFreq ....    20
 Integral Threshold     Thresh          ....  1.000e-10 Eh
 Primitive CutOff       TCut            ....  1.000e-11 Eh

Convergence Tolerance:
 Convergence Check Mode ConvCheckMode   .... All-Criteria
 Convergence forced     ConvForced      .... 0
 Energy Change          TolE            ....  1.000e-06 Eh
 Max Density Change     TolMaxP         ....  1.000e-05
 RMS Density Change     TolRMSP         ....  1.000e-06
 DIIS Error             TolErr          ....  1.000e-06


Diagonalization of the overlap matrix:
Smallest eigenvalue                        ... 1.044e-03
Time for diagonalization                   ...    0.002 sec
Threshold for overlap eigenvalues          ... 1.000e-08
Number of eigenvalues below threshold      ... 0
Time for construction of square roots      ...    0.007 sec
Total time needed                          ...    0.009 sec

-------------------
DFT GRID GENERATION
-------------------

General Integration Accuracy     IntAcc      ...  4.340
Radial Grid Type                 RadialGrid  ... Gauss-Chebyshev
Angular Grid (max. acc.)         AngularGrid ... Lebedev-110
Angular grid pruning method      GridPruning ... 3 (G Style)
Weight generation scheme         WeightScheme... Becke
Basis function cutoff            BFCut       ...    1.0000e-10
Integration weight cutoff        WCut        ...    1.0000e-14
Grids for H and He will be reduced by one unit

# of grid points (after initial pruning)     ...  14700 (   0.0 sec)
# of grid points (after weights+screening)   ...  13990 (   0.0 sec)
nearest neighbour list constructed           ...    0.0 sec
Grid point re-assignment to atoms done       ...    0.0 sec
Grid point division into batches done        ...    0.0 sec
Reduced shell lists constructed in    0.2 sec

Total number of grid points                  ...    13990
Total number of batches                      ...      224
Average number of points per batch           ...       62
Average number of grid points per atom       ...     1166
Average number of shells per batch           ...    33.10 (68.95%)
Average number of basis functions per batch  ...    69.92 (72.83%)
Average number of large shells per batch     ...    25.64 (77.45%)
Average number of large basis fcns per batch ...    55.99 (80.08%)
Maximum spatial batch extension              ...  16.45, 20.13, 25.60 au
Average spatial batch extension              ...   3.94,  4.33,  5.48 au

Time for grid setup =    0.253 sec

------------------------------
INITIAL GUESS: MODEL POTENTIAL
------------------------------
Loading Hartree-Fock densities                     ... done
Calculating cut-offs                               ... done
Setting up the integral package                    ... done
Initializing the effective Hamiltonian             ... done
Starting the Coulomb interaction                   ... done (   0.1 sec)
Reading the grid                                   ... done
Mapping shells                                     ... done
Starting the XC term evaluation                    ... done (   0.2 sec)
  promolecular density results
     # of electrons  =     41.995020442
     EX              =    -32.052619644
     EC              =     -1.267833298
     EX+EC           =    -33.320452942
Transforming the Hamiltonian                       ... done (   0.0 sec)
Diagonalizing the Hamiltonian                      ... done (   0.0 sec)
Back transforming the eigenvectors                 ... done (   0.0 sec)
Now organizing SCF variables                       ... done
                      ------------------
                      INITIAL GUESS DONE (   0.6 sec)
                      ------------------
--------------
SCF ITERATIONS
--------------
ITER       Energy         Delta-E        Max-DP      RMS-DP      [F,P]   Gradient Norm
               ***  Starting incremental Fock matrix formation  ***
                             ****Resetting KDIIS****
                             ****Turning on KDIIS(Cayley)****
  0   -230.2453182049   0.000000000000 0.02859735  0.00183646  0.2191604   0.131773863
  1   -230.3985904918  -0.153272286841 0.04095936  0.00299737  0.1973902   0.111027719
  2   -230.6172616741  -0.218671182283 0.13383313  0.00714797  0.1520747   0.081304340
  3   -230.8474291345  -0.230167460398 0.04011803  0.00396750  0.0224337   0.020060001
  4   -230.8660147826  -0.018585648117 0.03826107  0.00196412  0.0234189   0.011737921
  5   -230.8709953962  -0.004980613576 0.01003139  0.00072342  0.0202345   0.006397617
  6   -230.8737142117  -0.002718815545 0.01396318  0.00098592  0.0154286   0.005161076
  7   -230.8767504392  -0.003036227502 0.00462165  0.00033927  0.0039000   0.001346959
  8   -230.8769577597  -0.000207320474 0.00038763  0.00003064  0.0001796   0.000208347
                          ***Energy convergence achieved***
  9   -230.8769586925  -0.000000932808 0.00033867  0.00002607  0.0001277   0.000130180
 10   -230.8769592141  -0.000000521614 0.00013217  0.00000547  0.0000572   0.000046903

            ***Energy convergence in two consecutive cycles with***
                    ***'reasonable' density convergence***
                       *** signaling convergence ***

                    *** KDIIS BlockDiag ( 0.002 sec) ***

               *****************************************************
               *                     SUCCESS                       *
               *           SCF CONVERGED AFTER  11 CYCLES          *
               *****************************************************

Setting up the final grid:

General Integration Accuracy     IntAcc      ...  4.670
Radial Grid Type                 RadialGrid  ... Gauss-Chebyshev
Angular Grid (max. acc.)         AngularGrid ... Lebedev-302
Angular grid pruning method      GridPruning ... 3 (G Style)
Weight generation scheme         WeightScheme... Becke
Basis function cutoff            BFCut       ...    1.0000e-10
Integration weight cutoff        WCut        ...    1.0000e-14
Grids for H and He will be reduced by one unit

# of grid points (after initial pruning)     ...  57636 (   0.0 sec)
# of grid points (after weights+screening)   ...  54496 (   0.1 sec)
nearest neighbour list constructed           ...    0.0 sec
Grid point re-assignment to atoms done       ...    0.0 sec
Grid point division into batches done        ...    0.2 sec
Reduced shell lists constructed in    0.8 sec

Total number of grid points                  ...    54496
Total number of batches                      ...      854
Average number of points per batch           ...       63
Average number of grid points per atom       ...     4541
Average number of shells per batch           ...    29.24 (60.93%)
Average number of basis functions per batch  ...    61.63 (64.20%)
Average number of large shells per batch     ...    21.67 (74.10%)
Average number of large basis fcns per batch ...    46.84 (76.00%)
Maximum spatial batch extension              ...  14.86, 17.71, 17.25 au
Average spatial batch extension              ...   2.69,  2.80,  3.15 au

Final grid set up in    0.9 sec
Final integration                            ... done (   0.7 sec)
Change in XC energy                          ...     0.000752245
Integrated number of electrons               ...    42.000018818
Previous integrated no of electrons          ...    41.997017660

----------------
TOTAL SCF ENERGY
----------------

Total Energy       :         -230.87620701 Eh           -6282.46099 eV

Components:
Nuclear Repulsion  :          187.61574298 Eh            5105.28391 eV
Electronic Energy  :         -418.49194999 Eh          -11387.74490 eV
One Electron Energy:         -679.86742116 Eh          -18500.13306 eV
Two Electron Energy:          261.37547117 Eh            7112.38816 eV

Virial components:
Potential Energy   :         -459.37726697 Eh          -12500.29094 eV
Kinetic Energy     :          228.50105996 Eh            6217.82995 eV
Virial Ratio       :            2.01039447


DFT components:
N(Alpha)           :       21.000009409213 electrons
N(Beta)            :       21.000009409213 electrons
N(Total)           :       42.000018818425 electrons
E(XC)              :      -22.936870369776 Eh       

---------------
SCF CONVERGENCE
---------------

  Last Energy change         ...   -4.0555e-08  Tolerance :   1.0000e-06
  Last MAX-Density change    ...    4.7011e-05  Tolerance :   1.0000e-05
  Last RMS-Density change    ...    3.3273e-06  Tolerance :   1.0000e-06
  Last DIIS Error            ...    3.5232e-05  Tolerance :   1.0000e-06

             **** THE GBW FILE WAS UPDATED (Scan_22.gbw) ****
             **** DENSITY FILE WAS UPDATED (Scan_22.scfp.tmp) ****
             **** ENERGY FILE WAS UPDATED (Scan_22.en.tmp) ****
----------------
ORBITAL ENERGIES
----------------

  NO   OCC          E(Eh)            E(eV) 
   0   2.0000     -10.389584      -282.7149 
   1   2.0000     -10.389263      -282.7062 
   2   2.0000     -10.389176      -282.7038 
   3   2.0000     -10.388471      -282.6847 
   4   2.0000     -10.388379      -282.6822 
   5   2.0000     -10.388060      -282.6735 
   6   2.0000      -1.058301       -28.7978 
   7   2.0000      -0.907090       -24.6832 
   8   2.0000      -0.907067       -24.6826 
   9   2.0000      -0.719499       -19.5786 
  10   2.0000      -0.719283       -19.5727 
  11   2.0000      -0.617952       -16.8153 
  12   2.0000      -0.543923       -14.8009 
  13   2.0000      -0.527868       -14.3640 
  14   2.0000      -0.397073       -10.8049 
  15   2.0000      -0.396863       -10.7992 
  16   2.0000      -0.386410       -10.5147 
  17   2.0000      -0.386294       -10.5116 
  18   2.0000      -0.337889        -9.1944 
  19   2.0000      -0.313114        -8.5203 
  20   2.0000      -0.312978        -8.5166 
  21   0.0000      -0.153045        -4.1646 
  22   0.0000      -0.125076        -3.4035 
  23   0.0000      -0.125021        -3.4020 
  24   0.0000      -0.062883        -1.7111 
  25   0.0000      -0.009473        -0.2578 
  26   0.0000      -0.009255        -0.2518 
  27   0.0000       0.052452         1.4273 
  28   0.0000       0.052546         1.4299 
  29   0.0000       0.260150         7.0790 
  30   0.0000       0.368939        10.0394 
  31   0.0000       0.368983        10.0405 
  32   0.0000       0.481250        13.0955 
  33   0.0000       0.481731        13.1086 
  34   0.0000       0.549498        14.9526 
  35   0.0000       0.565354        15.3841 
  36   0.0000       0.570196        15.5158 
  37   0.0000       0.602488        16.3945 
  38   0.0000       0.602805        16.4032 
  39   0.0000       0.616311        16.7707 
  40   0.0000       0.651517        17.7287 
  41   0.0000       0.651579        17.7304 
  42   0.0000       0.679298        18.4847 
  43   0.0000       0.685132        18.6434 
  44   0.0000       0.685367        18.6498 
  45   0.0000       0.738662        20.1000 
  46   0.0000       0.738760        20.1027 
  47   0.0000       0.744298        20.2534 
  48   0.0000       0.795377        21.6433 
  49   0.0000       0.795565        21.6484 
  50   0.0000       0.836783        22.7700 
  51   0.0000       0.840706        22.8768 
  52   0.0000       0.840835        22.8803 
  53   0.0000       0.848901        23.0998 
  54   0.0000       0.922152        25.0930 
  55   0.0000       0.930657        25.3245 
  56   0.0000       0.931486        25.3470 
  57   0.0000       0.931613        25.3505 
  58   0.0000       0.939300        25.5597 
  59   0.0000       0.939466        25.5642 
  60   0.0000       1.064383        28.9633 
  61   0.0000       1.064482        28.9660 
  62   0.0000       1.105647        30.0862 
  63   0.0000       1.240416        33.7534 
  64   0.0000       1.240641        33.7596 
  65   0.0000       1.294040        35.2126 
  66   0.0000       1.371225        37.3129 
  67   0.0000       1.429724        38.9048 
  68   0.0000       1.557217        42.3740 
  69   0.0000       1.557632        42.3853 
  70   0.0000       1.586616        43.1740 
  71   0.0000       1.586985        43.1840 
  72   0.0000       1.611956        43.8636 
  73   0.0000       1.776811        48.3495 
  74   0.0000       1.777877        48.3785 
  75   0.0000       1.867257        50.8107 
  76   0.0000       1.896460        51.6053 
  77   0.0000       2.194832        59.7244 
  78   0.0000       2.195069        59.7309 
  79   0.0000       2.253935        61.3327 
  80   0.0000       2.254238        61.3409 
  81   0.0000       2.262820        61.5745 
  82   0.0000       2.263942        61.6050 
  83   0.0000       2.408272        65.5324 
  84   0.0000       2.408836        65.5478 
  85   0.0000       2.472557        67.2817 
  86   0.0000       2.485474        67.6332 
  87   0.0000       2.486559        67.6627 
  88   0.0000       2.597590        70.6840 
  89   0.0000       2.798329        76.1464 
  90   0.0000       2.799644        76.1822 
  91   0.0000       2.820330        76.7451 
  92   0.0000       2.870317        78.1053 
  93   0.0000       2.871422        78.1354 
  94   0.0000       3.174127        86.3724 
  95   0.0000       3.466305        94.3230 

                    ********************************
                    * MULLIKEN POPULATION ANALYSIS *
                    ********************************

-----------------------
MULLIKEN ATOMIC CHARGES
-----------------------
   0 C :   -0.005209
   1 H :    0.004873
   2 C :   -0.004457
   3 H :    0.005186
   4 C :   -0.005717
   5 H :    0.005363
   6 C :   -0.005114
   7 H :    0.004838
   8 C :   -0.004520
   9 H :    0.005210
  10 C :   -0.005874
  11 H :    0.005422
Sum of atomic charges:   -0.0000000

--------------------------------
MULLIKEN REDUCED ORBITAL CHARGES
--------------------------------
  0 C s       :     3.165654  s :     3.165654
      pz      :     0.987134  p :     2.802122
      px      :     0.938216
      py      :     0.876773
      dz2     :     0.002778  d :     0.037433
      dxz     :     0.004566
      dyz     :     0.008302
      dx2y2   :     0.009546
      dxy     :     0.012241
  1 H s       :     0.995127  s :     0.995127
  2 C s       :     3.166136  s :     3.166136
      pz      :     0.987216  p :     2.800885
      px      :     0.896188
      py      :     0.917481
      dz2     :     0.002751  d :     0.037436
      dxz     :     0.007132
      dyz     :     0.005770
      dx2y2   :     0.011966
      dxy     :     0.009816
  3 H s       :     0.994814  s :     0.994814
  4 C s       :     3.167099  s :     3.167099
      pz      :     0.986984  p :     2.801167
      px      :     0.888840
      py      :     0.925343
      dz2     :     0.002776  d :     0.037451
      dxz     :     0.007627
      dyz     :     0.005251
      dx2y2   :     0.011174
      dxy     :     0.010623
  5 H s       :     0.994637  s :     0.994637
  6 C s       :     3.165627  s :     3.165627
      pz      :     0.987107  p :     2.802055
      px      :     0.938182
      py      :     0.876766
      dz2     :     0.002778  d :     0.037432
      dxz     :     0.004566
      dyz     :     0.008302
      dx2y2   :     0.009546
      dxy     :     0.012240
  7 H s       :     0.995162  s :     0.995162
  8 C s       :     3.166155  s :     3.166155
      pz      :     0.987234  p :     2.800929
      px      :     0.896186
      py      :     0.917509
      dz2     :     0.002751  d :     0.037436
      dxz     :     0.007133
      dyz     :     0.005770
      dx2y2   :     0.011967
      dxy     :     0.009816
  9 H s       :     0.994790  s :     0.994790
 10 C s       :     3.167144  s :     3.167144
      pz      :     0.987028  p :     2.801278
      px      :     0.888858
      py      :     0.925391
      dz2     :     0.002776  d :     0.037453
      dxz     :     0.007627
      dyz     :     0.005251
      dx2y2   :     0.011175
      dxy     :     0.010624
 11 H s       :     0.994578  s :     0.994578


                     *******************************
                     * LOEWDIN POPULATION ANALYSIS *
                     *******************************

----------------------
LOEWDIN ATOMIC CHARGES
----------------------
   0 C :   -0.008386
   1 H :    0.008013
   2 C :   -0.008154
   3 H :    0.008337
   4 C :   -0.008264
   5 H :    0.008486
   6 C :   -0.008304
   7 H :    0.007979
   8 C :   -0.008209
   9 H :    0.008360
  10 C :   -0.008400
  11 H :    0.008543

-------------------------------
LOEWDIN REDUCED ORBITAL CHARGES
-------------------------------
  0 C s       :     2.958791  s :     2.958791
      pz      :     0.976279  p :     2.964679
      px      :     0.939529
      py      :     1.048872
      dz2     :     0.006333  d :     0.084916
      dxz     :     0.005818
      dyz     :     0.017924
      dx2y2   :     0.020752
      dxy     :     0.034089
  1 H s       :     0.991987  s :     0.991987
  2 C s       :     2.958855  s :     2.958855
      pz      :     0.976359  p :     2.964327
      px      :     1.014282
      py      :     0.973687
      dz2     :     0.006320  d :     0.084973
      dxz     :     0.014107
      dyz     :     0.009674
      dx2y2   :     0.032645
      dxy     :     0.022227
  3 H s       :     0.991663  s :     0.991663
  4 C s       :     2.958985  s :     2.958985
      pz      :     0.976076  p :     2.964342
      px      :     1.029587
      py      :     0.958678
      dz2     :     0.006339  d :     0.084936
      dxz     :     0.015713
      dyz     :     0.008034
      dx2y2   :     0.028934
      dxy     :     0.025916
  5 H s       :     0.991514  s :     0.991514
  6 C s       :     2.958772  s :     2.958772
      pz      :     0.976253  p :     2.964616
      px      :     0.939494
      py      :     1.048869
      dz2     :     0.006333  d :     0.084916
      dxz     :     0.005818
      dyz     :     0.017923
      dx2y2   :     0.020753
      dxy     :     0.034089
  7 H s       :     0.992021  s :     0.992021
  8 C s       :     2.958868  s :     2.958868
      pz      :     0.976376  p :     2.964369
      px      :     1.014285
      py      :     0.973708
      dz2     :     0.006320  d :     0.084973
      dxz     :     0.014107
      dyz     :     0.009674
      dx2y2   :     0.032646
      dxy     :     0.022226
  9 H s       :     0.991640  s :     0.991640
 10 C s       :     2.959017  s :     2.959017
      pz      :     0.976118  p :     2.964446
      px      :     1.029601
      py      :     0.958727
      dz2     :     0.006339  d :     0.084936
      dxz     :     0.015713
      dyz     :     0.008034
      dx2y2   :     0.028934
      dxy     :     0.025917
 11 H s       :     0.991457  s :     0.991457


                      *****************************
                      * MAYER POPULATION ANALYSIS *
                      *****************************

  NA   - Mulliken gross atomic population
  ZA   - Total nuclear charge
  QA   - Mulliken gross atomic charge
  VA   - Mayer's total valence
  BVA  - Mayer's bonded valence
  FA   - Mayer's free valence

  ATOM       NA         ZA         QA         VA         BVA        FA
  0 C      6.0052     6.0000    -0.0052     3.9874     3.9874    -0.0000
  1 H      0.9951     1.0000     0.0049     0.9998     0.9998     0.0000
  2 C      6.0045     6.0000    -0.0045     3.9873     3.9873     0.0000
  3 H      0.9948     1.0000     0.0052     0.9998     0.9998    -0.0000
  4 C      6.0057     6.0000    -0.0057     3.9879     3.9879     0.0000
  5 H      0.9946     1.0000     0.0054     0.9998     0.9998    -0.0000
  6 C      6.0051     6.0000    -0.0051     3.9874     3.9874     0.0000
  7 H      0.9952     1.0000     0.0048     0.9998     0.9998    -0.0000
  8 C      6.0045     6.0000    -0.0045     3.9873     3.9873    -0.0000
  9 H      0.9948     1.0000     0.0052     0.9998     0.9998    -0.0000
 10 C      6.0059     6.0000    -0.0059     3.9879     3.9879    -0.0000
 11 H      0.9946     1.0000     0.0054     0.9998     0.9998     0.0000

  Mayer bond orders larger than 0.1
B(  0-C ,  1-H ) :   0.5858 B(  0-C ,  2-C ) :   1.6026 B(  0-C , 10-C ) :   1.6034 
B(  1-H ,  3-H ) :   0.1444 B(  1-H , 11-H ) :   0.1447 B(  2-C ,  3-H ) :   0.5857 
B(  2-C ,  4-C ) :   1.6032 B(  3-H ,  5-H ) :   0.1448 B(  4-C ,  5-H ) :   0.5853 
B(  4-C ,  6-C ) :   1.6035 B(  5-H ,  7-H ) :   0.1447 B(  6-C ,  7-H ) :   0.5857 
B(  6-C ,  8-C ) :   1.6026 B(  7-H ,  9-H ) :   0.1444 B(  8-C ,  9-H ) :   0.5857 
B(  8-C , 10-C ) :   1.6032 B(  9-H , 11-H ) :   0.1448 B( 10-C , 11-H ) :   0.5853 


-------
TIMINGS
-------

Total SCF time: 0 days 0 hours 0 min 45 sec 

Total time                  ....      45.299 sec
Sum of individual times     ....      45.111 sec  ( 99.6%)

Fock matrix formation       ....      43.548 sec  ( 96.1%)
  XC integration            ....       3.455 sec  (  7.9% of F)
    Basis function eval.    ....       1.668 sec  ( 48.3% of XC)
    Density eval.           ....       0.286 sec  (  8.3% of XC)
    XC-Functional eval.     ....       0.685 sec  ( 19.8% of XC)
    XC-Potential eval.      ....       0.450 sec  ( 13.0% of XC)
Diagonalization             ....       0.032 sec  (  0.1%)
Density matrix formation    ....       0.001 sec  (  0.0%)
Population analysis         ....       0.014 sec  (  0.0%)
Initial guess               ....       0.379 sec  (  0.8%)
Orbital Transformation      ....       0.000 sec  (  0.0%)
Orbital Orthonormalization  ....       0.000 sec  (  0.0%)
DIIS solution               ....       0.000 sec  (  0.0%)
Grid generation             ....       1.137 sec  (  2.5%)


-------------------------------------------------------------------------------
                          DFT DISPERSION CORRECTION                            
                                                                               
                              DFTD3 V3.1  Rev 1                                
                              USING zero damping                               
-------------------------------------------------------------------------------
The omegaB97X-D3 functional is recognized. Fit by Chai et al.
Active option DFTDOPT                   ...         3   

molecular C6(AA) [au] = 2353.970870 


            DFT-D V3
 parameters
 s6 scaling factor         :     1.0000 
 rs6 scaling factor        :     1.2810 
 s8 scaling factor         :     1.0000 
 rs8 scaling factor        :     1.0940 
 Damping factor alpha6     :    14.0000 
 Damping factor alpha8     :    16.0000 
 ad hoc parameters k1-k3   :    16.0000     1.3333    -4.0000 

 Edisp/kcal,au: -2.005155727872  -0.003195418710 
 E6   /kcal   :  -1.034131069 
 E8   /kcal   :  -0.971024659 
 % E8         :  48.426396308 

-------------------------   ----------------
Dispersion correction           -0.003195419
-------------------------   ----------------


-------------------------   --------------------
FINAL SINGLE POINT ENERGY      -230.879402427965
-------------------------   --------------------


                            ***************************************
                            *     ORCA property calculations      *
                            ***************************************

                                    ---------------------
                                    Active property flags
                                    ---------------------
   (+) Dipole Moment


------------------------------------------------------------------------------
                       ORCA ELECTRIC PROPERTIES CALCULATION
------------------------------------------------------------------------------

Dipole Moment Calculation                       ... on
Quadrupole Moment Calculation                   ... off
Polarizability Calculation                      ... off
GBWName                                         ... Scan_22.gbw
Electron density file                           ... Scan_22.scfp.tmp

-------------
DIPOLE MOMENT
-------------
                                X             Y             Z
Electronic contribution:     -0.00002       0.00004      -0.00000
Nuclear contribution   :      0.00004      -0.00007       0.00000
                        -----------------------------------------
Total Dipole Moment    :      0.00002      -0.00003       0.00000
                        -----------------------------------------
Magnitude (a.u.)       :      0.00004
Magnitude (Debye)      :      0.00009


Timings for individual modules:

Sum of individual times         ...       45.679 sec (=   0.761 min)
GTO integral calculation        ...        0.355 sec (=   0.006 min)   0.8 %
SCF iterations                  ...       45.323 sec (=   0.755 min)  99.2 %
                             ****ORCA TERMINATED NORMALLY****
TOTAL RUN TIME: 0 days 0 hours 0 minutes 46 seconds 32 msec
