
                                 *****************
                                 * O   R   C   A *
                                 *****************

           --- An Ab Initio, DFT and Semiempirical electronic structure package ---

                  #######################################################
                  #                        -***-                        #
                  #  Department of molecular theory and spectroscopy    #
                  #              Directorship: Frank Neese              #
                  # Max Planck Institute for Chemical Energy Conversion #
                  #                  D-45470 Muelheim/Ruhr              #
                  #                       Germany                       #
                  #                                                     #
                  #                  All rights reserved                #
                  #                        -***-                        #
                  #######################################################


                         Program Version 4.0.0.2 - RELEASE -


 With contributions from (in alphabetic order):
   Daniel Aravena         : Magnetic Properties
   Michael Atanasov       : Ab Initio Ligand Field Theory
   Ute Becker             : Parallelization
   Martin Brehm           : Molecular dynamics
   Dmytro Bykov           : SCF Hessian
   Vijay G. Chilkuri      : MRCI spin determinant printing
   Dipayan Datta          : RHF DLPNO-CCSD density
   Achintya Kumar Dutta   : EOM-CC, STEOM-CC
   Dmitry Ganyushin       : Spin-Orbit,Spin-Spin,Magnetic field MRCI
   Yang Guo               : DLPNO-NEVPT2, CIM, IAO-localization
   Andreas Hansen         : Spin unrestricted coupled pair/coupled cluster methods
   Lee Huntington         : MR-EOM, pCC
   Robert Izsak           : Overlap fitted RIJCOSX, COSX-SCS-MP3, EOM
   Christian Kollmar      : KDIIS, OOCD, Brueckner-CCSD(T), CCSD density
   Simone Kossmann        : Meta GGA functionals, TD-DFT gradient, OOMP2, MP2 Hessian
   Martin Krupicka        : AUTO-CI
   Dagmar Lenk            : GEPOL surface
   Dimitrios Liakos       : Extrapolation schemes; parallel MDCI
   Dimitrios Manganas     : ROCIS; embedding schemes
   Dimitrios Pantazis     : SARC Basis sets
   Taras Petrenko         : DFT Hessian,TD-DFT gradient, ASA, ECA, R-Raman, ABS, FL, XAS/XES, NRVS
   Peter Pinski           : DLPNO-MP2
   Christoph Reimann      : Effective Core Potentials
   Marius Retegan         : Local ZFS, SOC
   Christoph Riplinger    : Optimizer, TS searches, QM/MM, DLPNO-CCSD(T), (RO)-DLPNO pert. Triples
   Tobias Risthaus        : Range-separated hybrids, TD-DFT gradient, RPA, STAB
   Michael Roemelt        : Restricted open shell CIS
   Masaaki Saitow         : Open-shell DLPNO
   Barbara Sandhoefer     : DKH picture change effects
   Kantharuban Sivalingam : CASSCF convergence, NEVPT2, FIC-MRCI
   Georgi Stoychev        : AutoAux
   Boris Wezisla          : Elementary symmetry handling
   Frank Wennmohs         : Technical directorship


 We gratefully acknowledge several colleagues who have allowed us to
 interface, adapt or use parts of their codes:
   Stefan Grimme, W. Hujo, H. Kruse,             : VdW corrections, initial TS optimization,
                  C. Bannwarth                     DFT functionals, gCP, sTDA/sTD-DF
   Ed Valeev                                     : LibInt (2-el integral package), F12 methods
   Garnet Chan, S. Sharma, J. Yang, R. Olivares  : DMRG
   Ulf Ekstrom                                   : XCFun DFT Library
   Mihaly Kallay                                 : mrcc  (arbitrary order and MRCC methods)
   Jiri Pittner, Ondrej Demel                    : Mk-CCSD
   Frank Weinhold                                : gennbo (NPA and NBO analysis)
   Christopher J. Cramer and Donald G. Truhlar   : smd solvation model


 Your calculation uses the libint2 library for the computation of 2-el integrals
 For citations please refer to: http://libint.valeyev.net

 This ORCA versions uses:
   CBLAS   interface :  Fast vector & matrix operations
   LAPACKE interface :  Fast linear algebra routines
   SCALAPACK package :  Parallel linear algebra routines


Your calculation utilizes the atom-pairwise dispersion correction
with the zero-damping scheme (D30)
Cite in your paper:
S.Grimme, J.Antony, S.Ehrlich and H.Krieg, J.Chem.Phys., 132, (2010), 154104 
   

XCFun DFT library Copyright 2009-2010 Ulf Ekstrom and contributors.
See http://admol.org/xcfun for more information. This is free soft-
ware; see the source code for copying conditions. There is ABSOLUTELY
NO WARRANTY; not even for MERCHANTABILITY or FITNESS FOR A PARTICULAR
PURPOSE. For details see the documentation. Scientific users of this 
library should cite U. Ekstrom, L. Visscher, R. Bast, A. J. Thorvald-
sen and K. Ruud; J.Chem.Theor.Comp. 2010, DOI: 10.1021/ct100117s
XCFun Version 0.99 
Your calculation utilizes the basis: 6-31G(d)
   H-He, Li-Ne : W. J. Hehre, R. Ditchfield and J.A. Pople, J. Chem. Phys. 56, 2257 (1972).
                 Note: He and Ne are unpublished basis sets taken from the Gaussian program.
                 Note: Li and B from J. D. Dill and J. A. Pople, J. Chem. Phys. 62, 2921 (1975).
   Na - Ar     : M. M. Francl, W. J. Pietro, W. J. Hehre, J. S. Binkley, M. S. Gordon, 
                 D. J. DeFrees and J. A. Pople, J. Chem. Phys. 77, 3654 (1982).
   K - Zn      : V. A. Rassolov, J. A. Pople, M. A. Ratner, and T. L. Windus, J. Chem. Phys. 109, 1223 (1998).

================================================================================
                                        WARNINGS
                       Please study these warnings very carefully!
================================================================================

Warning: TCutStore was < 0. Adjusted to Thresh (uncritical)

INFO   : the flag for use of LIBINT has been found!

================================================================================
                                       INPUT FILE
================================================================================
NAME = initial23.inp
|  1> ! WB97X-D3 6-31G(d) VerySlowConv
|  2> ! KDIIS NOSOSCF
|  3> %base "Scan_23"
|  4> 
|  5> %scf
|  6> maxiter 999
|  7> end
|  8> 
|  9> * xyz 0 1
| 10> C          1.460168840898   -2.844847475226    0.000000360024
| 11> H          4.194198142160   -3.054163589988   -0.000000146580
| 12> C          0.883220726170   -1.641868157205   -0.000001625188
| 13> H          2.431509271206    0.621212505664    0.000000642323
| 14> C         -0.447062670265   -1.540026895374   -0.000001853711
| 15> H         -1.632811640354    0.932367388190    0.000000616133
| 16> C         -1.200402379274   -2.641165220166   -0.000000364228
| 17> H         -3.934433828644   -2.431867982792    0.000000199216
| 18> C         -0.623456185625   -3.844145388026    0.000001617039
| 19> H         -2.171727699176   -6.107237107943   -0.000000563898
| 20> C          0.706828841086   -3.945987753275    0.000001845496
| 21> H          1.892578581816   -6.418380323858   -0.000000726626
| 22> **                         ****END OF INPUT****
================================================================================

                       ****************************
                       * Single Point Calculation *
                       ****************************

---------------------------------
CARTESIAN COORDINATES (ANGSTROEM)
---------------------------------
  C      1.460169   -2.844847    0.000000
  H      4.194198   -3.054164   -0.000000
  C      0.883221   -1.641868   -0.000002
  H      2.431509    0.621213    0.000001
  C     -0.447063   -1.540027   -0.000002
  H     -1.632812    0.932367    0.000001
  C     -1.200402   -2.641165   -0.000000
  H     -3.934434   -2.431868    0.000000
  C     -0.623456   -3.844145    0.000002
  H     -2.171728   -6.107237   -0.000001
  C      0.706829   -3.945988    0.000002
  H      1.892579   -6.418380   -0.000001

----------------------------
CARTESIAN COORDINATES (A.U.)
----------------------------
  NO LB      ZA    FRAG     MASS         X           Y           Z
   0 C     6.0000    0    12.011    2.759319   -5.375983    0.000001
   1 H     1.0000    0     1.008    7.925886   -5.771533   -0.000000
   2 C     6.0000    0    12.011    1.669045   -3.102681   -0.000003
   3 H     1.0000    0     1.008    4.594887    1.173922    0.000001
   4 C     6.0000    0    12.011   -0.844826   -2.910229   -0.000004
   5 H     1.0000    0     1.008   -3.085567    1.761919    0.000001
   6 C     6.0000    0    12.011   -2.268432   -4.991079   -0.000001
   7 H     1.0000    0     1.008   -7.435002   -4.595564    0.000000
   8 C     6.0000    0    12.011   -1.178161   -7.264382    0.000003
   9 H     1.0000    0     1.008   -4.103971  -11.541006   -0.000001
  10 C     6.0000    0    12.011    1.335713   -7.456836    0.000003
  11 H     1.0000    0     1.008    3.576455  -12.128981   -0.000001

--------------------------------
INTERNAL COORDINATES (ANGSTROEM)
--------------------------------
 C      0   0   0     0.000000000000     0.00000000     0.00000000
 H      1   0   0     2.742030170523     0.00000000     0.00000000
 C      1   2   0     1.334177037232   120.00034656     0.00000000
 H      3   1   2     2.742030544204   119.99963798     0.00000000
 C      3   1   2     1.334175984435   120.00014675   179.99997645
 H      5   3   1     2.742031019787   119.99996299   179.99984197
 C      5   3   1     1.334176273023   120.00003788     0.00000000
 H      7   5   3     2.742030871401   120.00023479   179.99997508
 C      7   5   3     1.334176972757   119.99990554     0.00000000
 H      9   7   5     2.742030053160   120.00015232   180.00012648
 C      9   7   5     1.334177694181   120.00009848     0.00000000
 H     11   9   7     2.742029808504   120.00003489   180.00016031

---------------------------
INTERNAL COORDINATES (A.U.)
---------------------------
 C      0   0   0     0.000000000000     0.00000000     0.00000000
 H      1   0   0     5.181686073238     0.00000000     0.00000000
 C      1   2   0     2.521229214536   120.00034656     0.00000000
 H      3   1   2     5.181686779392   119.99963798     0.00000000
 C      3   1   2     2.521227225036   120.00014675   179.99997645
 H      5   3   1     5.181687678114   119.99996299   179.99984197
 C      5   3   1     2.521227770389   120.00003788     0.00000000
 H      7   5   3     5.181687397706   120.00023479   179.99997508
 C      7   5   3     2.521229092694   119.99990554     0.00000000
 H      9   7   5     5.181685851455   120.00015232   180.00012648
 C      9   7   5     2.521230455989   120.00009848     0.00000000
 H     11   9   7     5.181685389120   120.00003489   180.00016031

---------------------
BASIS SET INFORMATION
---------------------
There are 2 groups of distinct atoms

 Group   1 Type C   : 10s4p1d contracted to 3s2p1d pattern {631/31/1}
 Group   2 Type H   : 4s contracted to 2s pattern {31}

Atom   0C    basis set group =>   1
Atom   1H    basis set group =>   2
Atom   2C    basis set group =>   1
Atom   3H    basis set group =>   2
Atom   4C    basis set group =>   1
Atom   5H    basis set group =>   2
Atom   6C    basis set group =>   1
Atom   7H    basis set group =>   2
Atom   8C    basis set group =>   1
Atom   9H    basis set group =>   2
Atom  10C    basis set group =>   1
Atom  11H    basis set group =>   2
------------------------------------------------------------------------------
                           ORCA GTO INTEGRAL CALCULATION
------------------------------------------------------------------------------

                         BASIS SET STATISTICS AND STARTUP INFO

 # of primitive gaussian shells          ...  114
 # of primitive gaussian functions       ...  186
 # of contracted shells                  ...   48
 # of contracted basis functions         ...   96
 Highest angular momentum                ...    2
 Maximum contraction depth               ...    6
 Integral package used                   ... LIBINT
 Integral threshhold            Thresh   ...  1.000e-10
 Primitive cut-off              TCut     ...  1.000e-11


------------------------------ INTEGRAL EVALUATION ----------------------------


 * One electron integrals 
 Pre-screening matrix                    ... done
 Shell pair data                         ... done (   0.001 sec)

-------------------------------------------------------------------------------
                                 ORCA SCF
-------------------------------------------------------------------------------

------------
SCF SETTINGS
------------
Hamiltonian:
 Density Functional     Method          .... DFT(GTOs)
 Exchange Functional    Exchange        .... WB97X-D3
 Correlation Functional Correlation     .... WB97X-D3
 Gradients option       PostSCFGGA      .... off
 Hybrid DFT is turned on
   Fraction HF Exchange ScalHFX         ....  0.195728
   Scaling of DF-GGA-X  ScalDFX         ....  0.000000
   Scaling of DF-GGA-C  ScalDFC         ....  1.000000
   Scaling of DF-LDA-C  ScalLDAC        ....  1.000000
   Perturbative correction              ....  0.000000
 Long-range corrected/Screened/Range-Separated Hybrid DFT is turned on
   Amount of maximum screened exact exchange              ....  0.804272
   Range separation parameter mu (erf(mu*r12)/r12)        ....  0.250000


General Settings:
 Integral files         IntName         .... Scan_23
 Hartree-Fock type      HFTyp           .... RHF
 Total Charge           Charge          ....    0
 Multiplicity           Mult            ....    1
 Number of Electrons    NEL             ....   42
 Basis Dimension        Dim             ....   96
 Nuclear Repulsion      ENuc            ....    186.8347199895 Eh

Convergence Acceleration:
 DIIS                   CNVDIIS         .... on
   Start iteration      DIISMaxIt       ....     0
   Startup error        DIISStart       ....  0.200000
   # of expansion vecs  DIISMaxEq       ....     5
   Bias factor          DIISBfac        ....   1.050
   Max. coefficient     DIISMaxC        ....  10.000
 Newton-Raphson         CNVNR           .... off
 SOSCF                  CNVSOSCF        .... off
 Level Shifting         CNVShift        .... off
 Zerner damping         CNVZerner       .... off
 Static damping         CNVDamp         .... off
 Fernandez-Rico         CNVRico         .... off

SCF Procedure:
 Maximum # iterations   MaxIter         ....   999
 SCF integral mode      SCFMode         .... Direct
   Integral package                     .... LIBINT
 Reset frequeny         DirectResetFreq ....    20
 Integral Threshold     Thresh          ....  1.000e-10 Eh
 Primitive CutOff       TCut            ....  1.000e-11 Eh

Convergence Tolerance:
 Convergence Check Mode ConvCheckMode   .... All-Criteria
 Convergence forced     ConvForced      .... 0
 Energy Change          TolE            ....  1.000e-06 Eh
 Max Density Change     TolMaxP         ....  1.000e-05
 RMS Density Change     TolRMSP         ....  1.000e-06
 DIIS Error             TolErr          ....  1.000e-06


Diagonalization of the overlap matrix:
Smallest eigenvalue                        ... 1.072e-03
Time for diagonalization                   ...    0.003 sec
Threshold for overlap eigenvalues          ... 1.000e-08
Number of eigenvalues below threshold      ... 0
Time for construction of square roots      ...    0.071 sec
Total time needed                          ...    0.074 sec

-------------------
DFT GRID GENERATION
-------------------

General Integration Accuracy     IntAcc      ...  4.340
Radial Grid Type                 RadialGrid  ... Gauss-Chebyshev
Angular Grid (max. acc.)         AngularGrid ... Lebedev-110
Angular grid pruning method      GridPruning ... 3 (G Style)
Weight generation scheme         WeightScheme... Becke
Basis function cutoff            BFCut       ...    1.0000e-10
Integration weight cutoff        WCut        ...    1.0000e-14
Grids for H and He will be reduced by one unit

# of grid points (after initial pruning)     ...  14700 (   0.0 sec)
# of grid points (after weights+screening)   ...  14006 (   0.1 sec)
nearest neighbour list constructed           ...    0.0 sec
Grid point re-assignment to atoms done       ...    0.0 sec
Grid point division into batches done        ...    0.0 sec
Reduced shell lists constructed in    0.4 sec

Total number of grid points                  ...    14006
Total number of batches                      ...      224
Average number of points per batch           ...       62
Average number of grid points per atom       ...     1167
Average number of shells per batch           ...    32.77 (68.28%)
Average number of basis functions per batch  ...    69.39 (72.28%)
Average number of large shells per batch     ...    25.29 (77.16%)
Average number of large basis fcns per batch ...    55.32 (79.73%)
Maximum spatial batch extension              ...  16.45, 20.15, 25.60 au
Average spatial batch extension              ...   3.98,  4.38,  5.53 au

Time for grid setup =    0.533 sec

------------------------------
INITIAL GUESS: MODEL POTENTIAL
------------------------------
Loading Hartree-Fock densities                     ... done
Calculating cut-offs                               ... done
Setting up the integral package                    ... done
Initializing the effective Hamiltonian             ... done
Starting the Coulomb interaction                   ... done (   0.2 sec)
Reading the grid                                   ... done
Mapping shells                                     ... done
Starting the XC term evaluation                    ... done (   0.3 sec)
  promolecular density results
     # of electrons  =     41.995079824
     EX              =    -32.051111347
     EC              =     -1.265746451
     EX+EC           =    -33.316857798
Transforming the Hamiltonian                       ... done (   0.0 sec)
Diagonalizing the Hamiltonian                      ... done (   0.0 sec)
Back transforming the eigenvectors                 ... done (   0.0 sec)
Now organizing SCF variables                       ... done
                      ------------------
                      INITIAL GUESS DONE (   1.4 sec)
                      ------------------
--------------
SCF ITERATIONS
--------------
ITER       Energy         Delta-E        Max-DP      RMS-DP      [F,P]   Gradient Norm
               ***  Starting incremental Fock matrix formation  ***
                             ****Resetting KDIIS****
                             ****Turning on KDIIS(Cayley)****
  0   -230.1828974030   0.000000000000 0.02857594  0.00190954  0.2235259   0.131529852
  1   -230.3372226244  -0.154325221394 0.04218388  0.00320140  0.2023437   0.110717953
  2   -230.5655903320  -0.228367707513 0.09415114  0.00558693  0.1564800   0.079267577
  3   -230.7886512395  -0.223060907551 0.10410096  0.00664976  0.0587443   0.027054517
  4   -230.7742493798   0.014401859719 0.07589580  0.00400221  0.0642380   0.034801345
  5   -230.8219854203  -0.047736040486 0.01453665  0.00132729  0.0250923   0.007322447
  6   -230.8250972093  -0.003111789046 0.01327034  0.00075443  0.0243593   0.007825304
  7   -230.8293801311  -0.004282921771 0.01954724  0.00118125  0.0158615   0.005270916
  8   -230.8323023978  -0.002922266703 0.00087894  0.00008242  0.0008714   0.000487196
  9   -230.8323250820  -0.000022684233 0.00098619  0.00008385  0.0006605   0.000386452
 10   -230.8323363384  -0.000011256384 0.00049279  0.00004097  0.0004493   0.000366873
 11   -230.8323410886  -0.000004750196 0.00022126  0.00001481  0.0001687   0.000112727
                          ***Energy convergence achieved***
 12   -230.8323417620  -0.000000673441 0.00018889  0.00001436  0.0000673   0.000037087

            ***Energy convergence in two consecutive cycles with***
                    ***'reasonable' density convergence***
                       *** signaling convergence ***

                    *** KDIIS BlockDiag ( 0.002 sec) ***

               *****************************************************
               *                     SUCCESS                       *
               *           SCF CONVERGED AFTER  13 CYCLES          *
               *****************************************************

Setting up the final grid:

General Integration Accuracy     IntAcc      ...  4.670
Radial Grid Type                 RadialGrid  ... Gauss-Chebyshev
Angular Grid (max. acc.)         AngularGrid ... Lebedev-302
Angular grid pruning method      GridPruning ... 3 (G Style)
Weight generation scheme         WeightScheme... Becke
Basis function cutoff            BFCut       ...    1.0000e-10
Integration weight cutoff        WCut        ...    1.0000e-14
Grids for H and He will be reduced by one unit

# of grid points (after initial pruning)     ...  57636 (   0.0 sec)
# of grid points (after weights+screening)   ...  54558 (   0.1 sec)
nearest neighbour list constructed           ...    0.0 sec
Grid point re-assignment to atoms done       ...    0.0 sec
Grid point division into batches done        ...    0.2 sec
Reduced shell lists constructed in    1.6 sec

Total number of grid points                  ...    54558
Total number of batches                      ...      858
Average number of points per batch           ...       63
Average number of grid points per atom       ...     4546
Average number of shells per batch           ...    28.82 (60.05%)
Average number of basis functions per batch  ...    60.92 (63.45%)
Average number of large shells per batch     ...    21.29 (73.87%)
Average number of large basis fcns per batch ...    46.11 (75.69%)
Maximum spatial batch extension              ...  14.86, 17.02, 17.09 au
Average spatial batch extension              ...   2.68,  2.79,  3.14 au

Final grid set up in    1.8 sec
Final integration                            ... done (   1.5 sec)
Change in XC energy                          ...     0.000812759
Integrated number of electrons               ...    42.000011097
Previous integrated no of electrons          ...    41.996874146

----------------
TOTAL SCF ENERGY
----------------

Total Energy       :         -230.83152921 Eh           -6281.24524 eV

Components:
Nuclear Repulsion  :          186.83471999 Eh            5084.03120 eV
Electronic Energy  :         -417.66624920 Eh          -11365.27644 eV
One Electron Energy:         -678.24186016 Eh          -18455.89929 eV
Two Electron Energy:          260.57561096 Eh            7090.62285 eV

Virial components:
Potential Energy   :         -459.35210679 Eh          -12499.60629 eV
Kinetic Energy     :          228.52057758 Eh            6218.36105 eV
Virial Ratio       :            2.01011266


DFT components:
N(Alpha)           :       21.000005548340 electrons
N(Beta)            :       21.000005548340 electrons
N(Total)           :       42.000011096681 electrons
E(XC)              :      -22.931858262999 Eh       

---------------
SCF CONVERGENCE
---------------

  Last Energy change         ...   -2.0720e-07  Tolerance :   1.0000e-06
  Last MAX-Density change    ...    3.8576e-05  Tolerance :   1.0000e-05
  Last RMS-Density change    ...    2.5743e-06  Tolerance :   1.0000e-06
  Last DIIS Error            ...    2.0683e-05  Tolerance :   1.0000e-06

             **** THE GBW FILE WAS UPDATED (Scan_23.gbw) ****
             **** DENSITY FILE WAS UPDATED (Scan_23.scfp.tmp) ****
             **** ENERGY FILE WAS UPDATED (Scan_23.en.tmp) ****
----------------
ORBITAL ENERGIES
----------------

  NO   OCC          E(Eh)            E(eV) 
   0   2.0000     -10.390373      -282.7364 
   1   2.0000     -10.390025      -282.7270 
   2   2.0000     -10.389997      -282.7262 
   3   2.0000     -10.389228      -282.7053 
   4   2.0000     -10.389196      -282.7044 
   5   2.0000     -10.388848      -282.6949 
   6   2.0000      -1.058350       -28.7992 
   7   2.0000      -0.907681       -24.6993 
   8   2.0000      -0.907642       -24.6982 
   9   2.0000      -0.720238       -19.5987 
  10   2.0000      -0.720028       -19.5930 
  11   2.0000      -0.618999       -16.8438 
  12   2.0000      -0.544904       -14.8276 
  13   2.0000      -0.528805       -14.3895 
  14   2.0000      -0.398137       -10.8339 
  15   2.0000      -0.397948       -10.8287 
  16   2.0000      -0.382752       -10.4152 
  17   2.0000      -0.382606       -10.4112 
  18   2.0000      -0.331673        -9.0253 
  19   2.0000      -0.308097        -8.3838 
  20   2.0000      -0.307992        -8.3809 
  21   0.0000      -0.157449        -4.2844 
  22   0.0000      -0.135538        -3.6882 
  23   0.0000      -0.135451        -3.6858 
  24   0.0000      -0.070108        -1.9077 
  25   0.0000      -0.015767        -0.4290 
  26   0.0000      -0.015510        -0.4220 
  27   0.0000       0.051432         1.3995 
  28   0.0000       0.051539         1.4024 
  29   0.0000       0.259419         7.0591 
  30   0.0000       0.367268         9.9939 
  31   0.0000       0.367304         9.9948 
  32   0.0000       0.481222        13.0947 
  33   0.0000       0.481768        13.1096 
  34   0.0000       0.548434        14.9237 
  35   0.0000       0.561986        15.2924 
  36   0.0000       0.569416        15.4946 
  37   0.0000       0.591246        16.0886 
  38   0.0000       0.591485        16.0951 
  39   0.0000       0.600912        16.3517 
  40   0.0000       0.650589        17.7034 
  41   0.0000       0.650655        17.7052 
  42   0.0000       0.670878        18.2555 
  43   0.0000       0.673968        18.3396 
  44   0.0000       0.674252        18.3473 
  45   0.0000       0.738002        20.0821 
  46   0.0000       0.738108        20.0849 
  47   0.0000       0.744643        20.2628 
  48   0.0000       0.785200        21.3664 
  49   0.0000       0.785343        21.3703 
  50   0.0000       0.831851        22.6358 
  51   0.0000       0.832033        22.6408 
  52   0.0000       0.836691        22.7675 
  53   0.0000       0.844071        22.9683 
  54   0.0000       0.921037        25.0627 
  55   0.0000       0.935878        25.4665 
  56   0.0000       0.935951        25.4685 
  57   0.0000       0.938790        25.5458 
  58   0.0000       0.945192        25.7200 
  59   0.0000       0.945307        25.7231 
  60   0.0000       1.062709        28.9178 
  61   0.0000       1.063121        28.9290 
  62   0.0000       1.107087        30.1254 
  63   0.0000       1.239509        33.7288 
  64   0.0000       1.239649        33.7326 
  65   0.0000       1.293029        35.1851 
  66   0.0000       1.367830        37.2205 
  67   0.0000       1.428498        38.8714 
  68   0.0000       1.556455        42.3533 
  69   0.0000       1.556875        42.3647 
  70   0.0000       1.585782        43.1513 
  71   0.0000       1.586125        43.1607 
  72   0.0000       1.603718        43.6394 
  73   0.0000       1.776511        48.3413 
  74   0.0000       1.777557        48.3698 
  75   0.0000       1.866731        50.7963 
  76   0.0000       1.896269        51.6001 
  77   0.0000       2.193573        59.6902 
  78   0.0000       2.193865        59.6981 
  79   0.0000       2.253547        61.3221 
  80   0.0000       2.253842        61.3302 
  81   0.0000       2.261704        61.5441 
  82   0.0000       2.262819        61.5744 
  83   0.0000       2.407533        65.5123 
  84   0.0000       2.408115        65.5281 
  85   0.0000       2.472670        67.2848 
  86   0.0000       2.483317        67.5745 
  87   0.0000       2.484415        67.6044 
  88   0.0000       2.588368        70.4331 
  89   0.0000       2.798366        76.1474 
  90   0.0000       2.799713        76.1841 
  91   0.0000       2.820046        76.7374 
  92   0.0000       2.870151        78.1008 
  93   0.0000       2.871177        78.1287 
  94   0.0000       3.173990        86.3687 
  95   0.0000       3.466885        94.3387 

                    ********************************
                    * MULLIKEN POPULATION ANALYSIS *
                    ********************************

-----------------------
MULLIKEN ATOMIC CHARGES
-----------------------
   0 C :   -0.002706
   1 H :    0.002235
   2 C :   -0.001998
   3 H :    0.002577
   4 C :   -0.002648
   5 H :    0.002578
   6 C :   -0.002643
   7 H :    0.002215
   8 C :   -0.002054
   9 H :    0.002595
  10 C :   -0.002768
  11 H :    0.002616
Sum of atomic charges:   -0.0000000

--------------------------------
MULLIKEN REDUCED ORBITAL CHARGES
--------------------------------
  0 C s       :     3.159751  s :     3.159751
      pz      :     0.987153  p :     2.805712
      px      :     0.941736
      py      :     0.876823
      dz2     :     0.002760  d :     0.037243
      dxz     :     0.004462
      dyz     :     0.008321
      dx2y2   :     0.009502
      dxy     :     0.012198
  1 H s       :     0.997765  s :     0.997765
  2 C s       :     3.159794  s :     3.159794
      pz      :     0.987390  p :     2.804954
      px      :     0.896638
      py      :     0.920926
      dz2     :     0.002731  d :     0.037249
      dxz     :     0.007114
      dyz     :     0.005707
      dx2y2   :     0.011928
      dxy     :     0.009770
  3 H s       :     0.997423  s :     0.997423
  4 C s       :     3.160830  s :     3.160830
      pz      :     0.987041  p :     2.804547
      px      :     0.889485
      py      :     0.928021
      dz2     :     0.002757  d :     0.037270
      dxz     :     0.007624
      dyz     :     0.005170
      dx2y2   :     0.011139
      dxy     :     0.010580
  5 H s       :     0.997422  s :     0.997422
  6 C s       :     3.159740  s :     3.159740
      pz      :     0.987133  p :     2.805661
      px      :     0.941713
      py      :     0.876815
      dz2     :     0.002760  d :     0.037242
      dxz     :     0.004462
      dyz     :     0.008321
      dx2y2   :     0.009502
      dxy     :     0.012198
  7 H s       :     0.997785  s :     0.997785
  8 C s       :     3.159804  s :     3.159804
      pz      :     0.987408  p :     2.805000
      px      :     0.896645
      py      :     0.920947
      dz2     :     0.002731  d :     0.037250
      dxz     :     0.007114
      dyz     :     0.005707
      dx2y2   :     0.011928
      dxy     :     0.009770
  9 H s       :     0.997405  s :     0.997405
 10 C s       :     3.160851  s :     3.160851
      pz      :     0.987078  p :     2.804644
      px      :     0.889505
      py      :     0.928061
      dz2     :     0.002757  d :     0.037272
      dxz     :     0.007625
      dyz     :     0.005171
      dx2y2   :     0.011139
      dxy     :     0.010580
 11 H s       :     0.997384  s :     0.997384


                     *******************************
                     * LOEWDIN POPULATION ANALYSIS *
                     *******************************

----------------------
LOEWDIN ATOMIC CHARGES
----------------------
   0 C :   -0.004398
   1 H :    0.004183
   2 C :   -0.004416
   3 H :    0.004509
   4 C :   -0.004346
   5 H :    0.004501
   6 C :   -0.004342
   7 H :    0.004163
   8 C :   -0.004466
   9 H :    0.004527
  10 C :   -0.004453
  11 H :    0.004539

-------------------------------
LOEWDIN REDUCED ORBITAL CHARGES
-------------------------------
  0 C s       :     2.956887  s :     2.956887
      pz      :     0.976271  p :     2.963075
      px      :     0.940265
      py      :     1.046538
      dz2     :     0.006305  d :     0.084437
      dxz     :     0.005732
      dyz     :     0.017959
      dx2y2   :     0.020159
      dxy     :     0.034282
  1 H s       :     0.995817  s :     0.995817
  2 C s       :     2.956979  s :     2.956979
      pz      :     0.976480  p :     2.962946
      px      :     1.012852
      py      :     0.973613
      dz2     :     0.006289  d :     0.084491
      dxz     :     0.014104
      dyz     :     0.009627
      dx2y2   :     0.032750
      dxy     :     0.021720
  3 H s       :     0.995491  s :     0.995491
  4 C s       :     2.957111  s :     2.957111
      pz      :     0.976112  p :     2.962774
      px      :     1.027883
      py      :     0.958779
      dz2     :     0.006309  d :     0.084462
      dxz     :     0.015726
      dyz     :     0.007970
      dx2y2   :     0.028830
      dxy     :     0.025626
  5 H s       :     0.995499  s :     0.995499
  6 C s       :     2.956879  s :     2.956879
      pz      :     0.976253  p :     2.963028
      px      :     0.940242
      py      :     1.046533
      dz2     :     0.006305  d :     0.084435
      dxz     :     0.005732
      dyz     :     0.017958
      dx2y2   :     0.020158
      dxy     :     0.034282
  7 H s       :     0.995837  s :     0.995837
  8 C s       :     2.956986  s :     2.956986
      pz      :     0.976496  p :     2.962987
      px      :     1.012862
      py      :     0.973629
      dz2     :     0.006290  d :     0.084493
      dxz     :     0.014105
      dyz     :     0.009627
      dx2y2   :     0.032751
      dxy     :     0.021720
  9 H s       :     0.995473  s :     0.995473
 10 C s       :     2.957125  s :     2.957125
      pz      :     0.976147  p :     2.962862
      px      :     1.027899
      py      :     0.958816
      dz2     :     0.006309  d :     0.084465
      dxz     :     0.015728
      dyz     :     0.007970
      dx2y2   :     0.028831
      dxy     :     0.025627
 11 H s       :     0.995461  s :     0.995461


                      *****************************
                      * MAYER POPULATION ANALYSIS *
                      *****************************

  NA   - Mulliken gross atomic population
  ZA   - Total nuclear charge
  QA   - Mulliken gross atomic charge
  VA   - Mayer's total valence
  BVA  - Mayer's bonded valence
  FA   - Mayer's free valence

  ATOM       NA         ZA         QA         VA         BVA        FA
  0 C      6.0027     6.0000    -0.0027     3.9951     3.9951    -0.0000
  1 H      0.9978     1.0000     0.0022     1.0001     1.0001     0.0000
  2 C      6.0020     6.0000    -0.0020     3.9943     3.9943    -0.0000
  3 H      0.9974     1.0000     0.0026     1.0001     1.0001    -0.0000
  4 C      6.0026     6.0000    -0.0026     3.9943     3.9943    -0.0000
  5 H      0.9974     1.0000     0.0026     1.0001     1.0001    -0.0000
  6 C      6.0026     6.0000    -0.0026     3.9951     3.9951    -0.0000
  7 H      0.9978     1.0000     0.0022     1.0001     1.0001    -0.0000
  8 C      6.0021     6.0000    -0.0021     3.9943     3.9943    -0.0000
  9 H      0.9974     1.0000     0.0026     1.0001     1.0001     0.0000
 10 C      6.0028     6.0000    -0.0028     3.9943     3.9943     0.0000
 11 H      0.9974     1.0000     0.0026     1.0001     1.0001     0.0000

  Mayer bond orders larger than 0.1
B(  0-C ,  1-H ) :   0.5323 B(  0-C ,  2-C ) :   1.6307 B(  0-C , 10-C ) :   1.6312 
B(  1-H ,  3-H ) :   0.1705 B(  1-H , 11-H ) :   0.1710 B(  2-C ,  3-H ) :   0.5324 
B(  2-C ,  4-C ) :   1.6304 B(  3-H ,  5-H ) :   0.1709 B(  4-C ,  5-H ) :   0.5319 
B(  4-C ,  6-C ) :   1.6312 B(  5-H ,  7-H ) :   0.1710 B(  6-C ,  7-H ) :   0.5322 
B(  6-C ,  8-C ) :   1.6307 B(  7-H ,  9-H ) :   0.1705 B(  8-C ,  9-H ) :   0.5324 
B(  8-C , 10-C ) :   1.6304 B(  9-H , 11-H ) :   0.1709 B( 10-C , 11-H ) :   0.5319 


-------
TIMINGS
-------

Total SCF time: 0 days 0 hours 1 min 52 sec 

Total time                  ....     112.148 sec
Sum of individual times     ....     111.187 sec  ( 99.1%)

Fock matrix formation       ....     107.906 sec  ( 96.2%)
  XC integration            ....      11.092 sec  ( 10.3% of F)
    Basis function eval.    ....       5.232 sec  ( 47.2% of XC)
    Density eval.           ....       0.840 sec  (  7.6% of XC)
    XC-Functional eval.     ....       1.966 sec  ( 17.7% of XC)
    XC-Potential eval.      ....       1.498 sec  ( 13.5% of XC)
Diagonalization             ....       0.074 sec  (  0.1%)
Density matrix formation    ....       0.002 sec  (  0.0%)
Population analysis         ....       0.025 sec  (  0.0%)
Initial guess               ....       0.860 sec  (  0.8%)
Orbital Transformation      ....       0.000 sec  (  0.0%)
Orbital Orthonormalization  ....       0.000 sec  (  0.0%)
DIIS solution               ....       0.000 sec  (  0.0%)
Grid generation             ....       2.321 sec  (  2.1%)


-------------------------------------------------------------------------------
                          DFT DISPERSION CORRECTION                            
                                                                               
                              DFTD3 V3.1  Rev 1                                
                              USING zero damping                               
-------------------------------------------------------------------------------
The omegaB97X-D3 functional is recognized. Fit by Chai et al.
Active option DFTDOPT                   ...         3   

molecular C6(AA) [au] = 2353.834872 


            DFT-D V3
 parameters
 s6 scaling factor         :     1.0000 
 rs6 scaling factor        :     1.2810 
 s8 scaling factor         :     1.0000 
 rs8 scaling factor        :     1.0940 
 Damping factor alpha6     :    14.0000 
 Damping factor alpha8     :    16.0000 
 ad hoc parameters k1-k3   :    16.0000     1.3333    -4.0000 

 Edisp/kcal,au: -1.962085226780  -0.003126781505 
 E6   /kcal   :  -1.022528065 
 E8   /kcal   :  -0.939557162 
 % E8         :  47.885644783 

-------------------------   ----------------
Dispersion correction           -0.003126782
-------------------------   ----------------


-------------------------   --------------------
FINAL SINGLE POINT ENERGY      -230.834655991798
-------------------------   --------------------


                            ***************************************
                            *     ORCA property calculations      *
                            ***************************************

                                    ---------------------
                                    Active property flags
                                    ---------------------
   (+) Dipole Moment


------------------------------------------------------------------------------
                       ORCA ELECTRIC PROPERTIES CALCULATION
------------------------------------------------------------------------------

Dipole Moment Calculation                       ... on
Quadrupole Moment Calculation                   ... off
Polarizability Calculation                      ... off
GBWName                                         ... Scan_23.gbw
Electron density file                           ... Scan_23.scfp.tmp

-------------
DIPOLE MOMENT
-------------
                                X             Y             Z
Electronic contribution:     -0.00002       0.00004      -0.00000
Nuclear contribution   :      0.00001      -0.00002       0.00000
                        -----------------------------------------
Total Dipole Moment    :     -0.00001       0.00002      -0.00000
                        -----------------------------------------
Magnitude (a.u.)       :      0.00002
Magnitude (Debye)      :      0.00006


Timings for individual modules:

Sum of individual times         ...      113.654 sec (=   1.894 min)
GTO integral calculation        ...        1.243 sec (=   0.021 min)   1.1 %
SCF iterations                  ...      112.411 sec (=   1.874 min)  98.9 %
                             ****ORCA TERMINATED NORMALLY****
TOTAL RUN TIME: 0 days 0 hours 1 minutes 55 seconds 272 msec
