
                                 *****************
                                 * O   R   C   A *
                                 *****************

           --- An Ab Initio, DFT and Semiempirical electronic structure package ---

                  #######################################################
                  #                        -***-                        #
                  #  Department of molecular theory and spectroscopy    #
                  #              Directorship: Frank Neese              #
                  # Max Planck Institute for Chemical Energy Conversion #
                  #                  D-45470 Muelheim/Ruhr              #
                  #                       Germany                       #
                  #                                                     #
                  #                  All rights reserved                #
                  #                        -***-                        #
                  #######################################################


                         Program Version 4.0.0.2 - RELEASE -


 With contributions from (in alphabetic order):
   Daniel Aravena         : Magnetic Properties
   Michael Atanasov       : Ab Initio Ligand Field Theory
   Ute Becker             : Parallelization
   Martin Brehm           : Molecular dynamics
   Dmytro Bykov           : SCF Hessian
   Vijay G. Chilkuri      : MRCI spin determinant printing
   Dipayan Datta          : RHF DLPNO-CCSD density
   Achintya Kumar Dutta   : EOM-CC, STEOM-CC
   Dmitry Ganyushin       : Spin-Orbit,Spin-Spin,Magnetic field MRCI
   Yang Guo               : DLPNO-NEVPT2, CIM, IAO-localization
   Andreas Hansen         : Spin unrestricted coupled pair/coupled cluster methods
   Lee Huntington         : MR-EOM, pCC
   Robert Izsak           : Overlap fitted RIJCOSX, COSX-SCS-MP3, EOM
   Christian Kollmar      : KDIIS, OOCD, Brueckner-CCSD(T), CCSD density
   Simone Kossmann        : Meta GGA functionals, TD-DFT gradient, OOMP2, MP2 Hessian
   Martin Krupicka        : AUTO-CI
   Dagmar Lenk            : GEPOL surface
   Dimitrios Liakos       : Extrapolation schemes; parallel MDCI
   Dimitrios Manganas     : ROCIS; embedding schemes
   Dimitrios Pantazis     : SARC Basis sets
   Taras Petrenko         : DFT Hessian,TD-DFT gradient, ASA, ECA, R-Raman, ABS, FL, XAS/XES, NRVS
   Peter Pinski           : DLPNO-MP2
   Christoph Reimann      : Effective Core Potentials
   Marius Retegan         : Local ZFS, SOC
   Christoph Riplinger    : Optimizer, TS searches, QM/MM, DLPNO-CCSD(T), (RO)-DLPNO pert. Triples
   Tobias Risthaus        : Range-separated hybrids, TD-DFT gradient, RPA, STAB
   Michael Roemelt        : Restricted open shell CIS
   Masaaki Saitow         : Open-shell DLPNO
   Barbara Sandhoefer     : DKH picture change effects
   Kantharuban Sivalingam : CASSCF convergence, NEVPT2, FIC-MRCI
   Georgi Stoychev        : AutoAux
   Boris Wezisla          : Elementary symmetry handling
   Frank Wennmohs         : Technical directorship


 We gratefully acknowledge several colleagues who have allowed us to
 interface, adapt or use parts of their codes:
   Stefan Grimme, W. Hujo, H. Kruse,             : VdW corrections, initial TS optimization,
                  C. Bannwarth                     DFT functionals, gCP, sTDA/sTD-DF
   Ed Valeev                                     : LibInt (2-el integral package), F12 methods
   Garnet Chan, S. Sharma, J. Yang, R. Olivares  : DMRG
   Ulf Ekstrom                                   : XCFun DFT Library
   Mihaly Kallay                                 : mrcc  (arbitrary order and MRCC methods)
   Jiri Pittner, Ondrej Demel                    : Mk-CCSD
   Frank Weinhold                                : gennbo (NPA and NBO analysis)
   Christopher J. Cramer and Donald G. Truhlar   : smd solvation model


 Your calculation uses the libint2 library for the computation of 2-el integrals
 For citations please refer to: http://libint.valeyev.net

 This ORCA versions uses:
   CBLAS   interface :  Fast vector & matrix operations
   LAPACKE interface :  Fast linear algebra routines
   SCALAPACK package :  Parallel linear algebra routines


Your calculation utilizes the atom-pairwise dispersion correction
with the zero-damping scheme (D30)
Cite in your paper:
S.Grimme, J.Antony, S.Ehrlich and H.Krieg, J.Chem.Phys., 132, (2010), 154104 
   

XCFun DFT library Copyright 2009-2010 Ulf Ekstrom and contributors.
See http://admol.org/xcfun for more information. This is free soft-
ware; see the source code for copying conditions. There is ABSOLUTELY
NO WARRANTY; not even for MERCHANTABILITY or FITNESS FOR A PARTICULAR
PURPOSE. For details see the documentation. Scientific users of this 
library should cite U. Ekstrom, L. Visscher, R. Bast, A. J. Thorvald-
sen and K. Ruud; J.Chem.Theor.Comp. 2010, DOI: 10.1021/ct100117s
XCFun Version 0.99 
Your calculation utilizes the basis: 6-31G(d)
   H-He, Li-Ne : W. J. Hehre, R. Ditchfield and J.A. Pople, J. Chem. Phys. 56, 2257 (1972).
                 Note: He and Ne are unpublished basis sets taken from the Gaussian program.
                 Note: Li and B from J. D. Dill and J. A. Pople, J. Chem. Phys. 62, 2921 (1975).
   Na - Ar     : M. M. Francl, W. J. Pietro, W. J. Hehre, J. S. Binkley, M. S. Gordon, 
                 D. J. DeFrees and J. A. Pople, J. Chem. Phys. 77, 3654 (1982).
   K - Zn      : V. A. Rassolov, J. A. Pople, M. A. Ratner, and T. L. Windus, J. Chem. Phys. 109, 1223 (1998).

================================================================================
                                        WARNINGS
                       Please study these warnings very carefully!
================================================================================

Warning: TCutStore was < 0. Adjusted to Thresh (uncritical)

INFO   : the flag for use of LIBINT has been found!

================================================================================
                                       INPUT FILE
================================================================================
NAME = initial24.inp
|  1> ! WB97X-D3 6-31G(d) VerySlowConv
|  2> ! KDIIS NOSOSCF
|  3> %base "Scan_24"
|  4> 
|  5> %scf
|  6> maxiter 999
|  7> end
|  8> 
|  9> * xyz 0 1
| 10> C          1.459782936974   -2.844817370764   -0.000000595700
| 11> H          4.298167456799   -3.062126137880    0.000000160171
| 12> C          0.883003814217   -1.642184240630   -0.000002615741
| 13> H          2.490391941406    0.707274014745    0.000000985025
| 14> C         -0.446897370960   -1.540372206691   -0.000001867810
| 15> H         -1.677904420820    1.026390968308    0.000000634706
| 16> C         -1.200018738755   -2.641195134320    0.000000586480
| 17> H         -4.038405287538   -2.423911174141   -0.000000104063
| 18> C         -0.623238387862   -3.843827865063    0.000002610042
| 19> H         -2.230604250733   -6.193301234538   -0.000000906640
| 20> C          0.706661715076   -3.945638801804    0.000001860887
| 21> H          1.937670592196   -6.512400817223   -0.000000747358
| 22> **                         ****END OF INPUT****
================================================================================

                       ****************************
                       * Single Point Calculation *
                       ****************************

---------------------------------
CARTESIAN COORDINATES (ANGSTROEM)
---------------------------------
  C      1.459783   -2.844817   -0.000001
  H      4.298167   -3.062126    0.000000
  C      0.883004   -1.642184   -0.000003
  H      2.490392    0.707274    0.000001
  C     -0.446897   -1.540372   -0.000002
  H     -1.677904    1.026391    0.000001
  C     -1.200019   -2.641195    0.000001
  H     -4.038405   -2.423911   -0.000000
  C     -0.623238   -3.843828    0.000003
  H     -2.230604   -6.193301   -0.000001
  C      0.706662   -3.945639    0.000002
  H      1.937671   -6.512401   -0.000001

----------------------------
CARTESIAN COORDINATES (A.U.)
----------------------------
  NO LB      ZA    FRAG     MASS         X           Y           Z
   0 C     6.0000    0    12.011    2.758590   -5.375926   -0.000001
   1 H     1.0000    0     1.008    8.122359   -5.786580    0.000000
   2 C     6.0000    0    12.011    1.668635   -3.103278   -0.000005
   3 H     1.0000    0     1.008    4.706159    1.336554    0.000002
   4 C     6.0000    0    12.011   -0.844514   -2.910882   -0.000004
   5 H     1.0000    0     1.008   -3.170780    1.939598    0.000001
   6 C     6.0000    0    12.011   -2.267707   -4.991135    0.000001
   7 H     1.0000    0     1.008   -7.631480   -4.580528   -0.000000
   8 C     6.0000    0    12.011   -1.177750   -7.263782    0.000005
   9 H     1.0000    0     1.008   -4.215231  -11.703643   -0.000002
  10 C     6.0000    0    12.011    1.335397   -7.456177    0.000004
  11 H     1.0000    0     1.008    3.661667  -12.306654   -0.000001

--------------------------------
INTERNAL COORDINATES (ANGSTROEM)
--------------------------------
 C      0   0   0     0.000000000000     0.00000000     0.00000000
 H      1   0   0     2.846691023390     0.00000000     0.00000000
 C      1   2   0     1.333791813646   120.00029735     0.00000000
 H      3   1   2     2.846691181915   119.99968156     0.00000000
 C      3   1   2     1.333792657271   120.00003348   180.00005465
 H      5   3   1     2.846691334399   119.99994972   179.99984164
 C      5   3   1     1.333792679778   119.99994559     0.00000000
 H      7   5   3     2.846691152841   120.00018268   180.00005316
 C      7   5   3     1.333791984619   119.99996594     0.00000000
 H      9   7   5     2.846691084577   120.00016818   180.00020347
 C      1   2   3     1.333791362214   119.99971286   180.00003922
 H     11   1   2     2.846691079017   120.00003030     0.00000000

---------------------------
INTERNAL COORDINATES (A.U.)
---------------------------
 C      0   0   0     0.000000000000     0.00000000     0.00000000
 H      1   0   0     5.379466422099     0.00000000     0.00000000
 C      1   2   0     2.520501247457   120.00029735     0.00000000
 H      3   1   2     5.379466721667   119.99968156     0.00000000
 C      3   1   2     2.520502841678   120.00003348   180.00005465
 H      5   3   1     5.379467009821   119.99994972   179.99984164
 C      5   3   1     2.520502884209   119.99994559     0.00000000
 H      7   5   3     5.379466666726   120.00018268   180.00005316
 C      7   5   3     2.520501570550   119.99996594     0.00000000
 H      9   7   5     5.379466537725   120.00016818   180.00020347
 C      1   2   3     2.520500394374   119.99971286   180.00003922
 H     11   1   2     5.379466527218   120.00003030     0.00000000

---------------------
BASIS SET INFORMATION
---------------------
There are 2 groups of distinct atoms

 Group   1 Type C   : 10s4p1d contracted to 3s2p1d pattern {631/31/1}
 Group   2 Type H   : 4s contracted to 2s pattern {31}

Atom   0C    basis set group =>   1
Atom   1H    basis set group =>   2
Atom   2C    basis set group =>   1
Atom   3H    basis set group =>   2
Atom   4C    basis set group =>   1
Atom   5H    basis set group =>   2
Atom   6C    basis set group =>   1
Atom   7H    basis set group =>   2
Atom   8C    basis set group =>   1
Atom   9H    basis set group =>   2
Atom  10C    basis set group =>   1
Atom  11H    basis set group =>   2
------------------------------------------------------------------------------
                           ORCA GTO INTEGRAL CALCULATION
------------------------------------------------------------------------------

                         BASIS SET STATISTICS AND STARTUP INFO

 # of primitive gaussian shells          ...  114
 # of primitive gaussian functions       ...  186
 # of contracted shells                  ...   48
 # of contracted basis functions         ...   96
 Highest angular momentum                ...    2
 Maximum contraction depth               ...    6
 Integral package used                   ... LIBINT
 Integral threshhold            Thresh   ...  1.000e-10
 Primitive cut-off              TCut     ...  1.000e-11


------------------------------ INTEGRAL EVALUATION ----------------------------


 * One electron integrals 
 Pre-screening matrix                    ... done
 Shell pair data                         ... done (   0.001 sec)

-------------------------------------------------------------------------------
                                 ORCA SCF
-------------------------------------------------------------------------------

------------
SCF SETTINGS
------------
Hamiltonian:
 Density Functional     Method          .... DFT(GTOs)
 Exchange Functional    Exchange        .... WB97X-D3
 Correlation Functional Correlation     .... WB97X-D3
 Gradients option       PostSCFGGA      .... off
 Hybrid DFT is turned on
   Fraction HF Exchange ScalHFX         ....  0.195728
   Scaling of DF-GGA-X  ScalDFX         ....  0.000000
   Scaling of DF-GGA-C  ScalDFC         ....  1.000000
   Scaling of DF-LDA-C  ScalLDAC        ....  1.000000
   Perturbative correction              ....  0.000000
 Long-range corrected/Screened/Range-Separated Hybrid DFT is turned on
   Amount of maximum screened exact exchange              ....  0.804272
   Range separation parameter mu (erf(mu*r12)/r12)        ....  0.250000


General Settings:
 Integral files         IntName         .... Scan_24
 Hartree-Fock type      HFTyp           .... RHF
 Total Charge           Charge          ....    0
 Multiplicity           Mult            ....    1
 Number of Electrons    NEL             ....   42
 Basis Dimension        Dim             ....   96
 Nuclear Repulsion      ENuc            ....    186.0809952824 Eh

Convergence Acceleration:
 DIIS                   CNVDIIS         .... on
   Start iteration      DIISMaxIt       ....     0
   Startup error        DIISStart       ....  0.200000
   # of expansion vecs  DIISMaxEq       ....     5
   Bias factor          DIISBfac        ....   1.050
   Max. coefficient     DIISMaxC        ....  10.000
 Newton-Raphson         CNVNR           .... off
 SOSCF                  CNVSOSCF        .... off
 Level Shifting         CNVShift        .... off
 Zerner damping         CNVZerner       .... off
 Static damping         CNVDamp         .... off
 Fernandez-Rico         CNVRico         .... off

SCF Procedure:
 Maximum # iterations   MaxIter         ....   999
 SCF integral mode      SCFMode         .... Direct
   Integral package                     .... LIBINT
 Reset frequeny         DirectResetFreq ....    20
 Integral Threshold     Thresh          ....  1.000e-10 Eh
 Primitive CutOff       TCut            ....  1.000e-11 Eh

Convergence Tolerance:
 Convergence Check Mode ConvCheckMode   .... All-Criteria
 Convergence forced     ConvForced      .... 0
 Energy Change          TolE            ....  1.000e-06 Eh
 Max Density Change     TolMaxP         ....  1.000e-05
 RMS Density Change     TolRMSP         ....  1.000e-06
 DIIS Error             TolErr          ....  1.000e-06


Diagonalization of the overlap matrix:
Smallest eigenvalue                        ... 1.097e-03
Time for diagonalization                   ...    0.003 sec
Threshold for overlap eigenvalues          ... 1.000e-08
Number of eigenvalues below threshold      ... 0
Time for construction of square roots      ...    0.023 sec
Total time needed                          ...    0.025 sec

-------------------
DFT GRID GENERATION
-------------------

General Integration Accuracy     IntAcc      ...  4.340
Radial Grid Type                 RadialGrid  ... Gauss-Chebyshev
Angular Grid (max. acc.)         AngularGrid ... Lebedev-110
Angular grid pruning method      GridPruning ... 3 (G Style)
Weight generation scheme         WeightScheme... Becke
Basis function cutoff            BFCut       ...    1.0000e-10
Integration weight cutoff        WCut        ...    1.0000e-14
Grids for H and He will be reduced by one unit

# of grid points (after initial pruning)     ...  14700 (   0.0 sec)
# of grid points (after weights+screening)   ...  14022 (   0.1 sec)
nearest neighbour list constructed           ...    0.0 sec
Grid point re-assignment to atoms done       ...    0.0 sec
Grid point division into batches done        ...    0.0 sec
Reduced shell lists constructed in    0.6 sec

Total number of grid points                  ...    14022
Total number of batches                      ...      226
Average number of points per batch           ...       62
Average number of grid points per atom       ...     1168
Average number of shells per batch           ...    32.31 (67.32%)
Average number of basis functions per batch  ...    68.59 (71.45%)
Average number of large shells per batch     ...    24.67 (76.33%)
Average number of large basis fcns per batch ...    54.18 (78.99%)
Maximum spatial batch extension              ...  16.45, 20.16, 25.60 au
Average spatial batch extension              ...   3.93,  4.52,  5.75 au

Time for grid setup =    0.710 sec

------------------------------
INITIAL GUESS: MODEL POTENTIAL
------------------------------
Loading Hartree-Fock densities                     ... done
Calculating cut-offs                               ... done
Setting up the integral package                    ... done
Initializing the effective Hamiltonian             ... done
Starting the Coulomb interaction                   ... done (   0.1 sec)
Reading the grid                                   ... done
Mapping shells                                     ... done
Starting the XC term evaluation                    ... done (   0.2 sec)
  promolecular density results
     # of electrons  =     41.995117243
     EX              =    -32.049795096
     EC              =     -1.264133025
     EX+EC           =    -33.313928121
Transforming the Hamiltonian                       ... done (   0.0 sec)
Diagonalizing the Hamiltonian                      ... done (   0.0 sec)
Back transforming the eigenvectors                 ... done (   0.0 sec)
Now organizing SCF variables                       ... done
                      ------------------
                      INITIAL GUESS DONE (   1.3 sec)
                      ------------------
--------------
SCF ITERATIONS
--------------
ITER       Energy         Delta-E        Max-DP      RMS-DP      [F,P]   Gradient Norm
               ***  Starting incremental Fock matrix formation  ***
                             ****Resetting KDIIS****
                             ****Turning on KDIIS(Cayley)****
  0   -230.1356365599   0.000000000000 0.02830435  0.00198336  0.2255351   0.130294864
  1   -230.2880667500  -0.152430190101 0.03824352  0.00302508  0.2053394   0.109790456
  2   -230.5007047343  -0.212637984324 0.12214247  0.00705438  0.1648797   0.082069252
  3   -230.7500635318  -0.249358797462 0.06825583  0.00552136  0.0430861   0.022969768
  4   -230.7553415862  -0.005278054381 0.07316086  0.00380280  0.0457521   0.024845286
  5   -230.7773273256  -0.021985739457 0.01597868  0.00146933  0.0357458   0.010453022
  6   -230.7861219937  -0.008794668032 0.01602124  0.00117675  0.0246393   0.007583026
  7   -230.7921772507  -0.006055257012 0.01279956  0.00095923  0.0116116   0.003796604
  8   -230.7939082707  -0.001731019962 0.00115119  0.00009494  0.0004612   0.000304706
  9   -230.7939131581  -0.000004887489 0.00061516  0.00005192  0.0002804   0.000261230
 10   -230.7939152920  -0.000002133878 0.00027824  0.00001511  0.0001713   0.000138038
                          ***Energy convergence achieved***
 11   -230.7939157481  -0.000000456065 0.00010323  0.00000611  0.0000758   0.000072872

            ***Energy convergence in two consecutive cycles with***
                    ***'reasonable' density convergence***
                       *** signaling convergence ***

                    *** KDIIS BlockDiag ( 0.002 sec) ***

               *****************************************************
               *                     SUCCESS                       *
               *           SCF CONVERGED AFTER  12 CYCLES          *
               *****************************************************

Setting up the final grid:

General Integration Accuracy     IntAcc      ...  4.670
Radial Grid Type                 RadialGrid  ... Gauss-Chebyshev
Angular Grid (max. acc.)         AngularGrid ... Lebedev-302
Angular grid pruning method      GridPruning ... 3 (G Style)
Weight generation scheme         WeightScheme... Becke
Basis function cutoff            BFCut       ...    1.0000e-10
Integration weight cutoff        WCut        ...    1.0000e-14
Grids for H and He will be reduced by one unit

# of grid points (after initial pruning)     ...  57636 (   0.1 sec)
# of grid points (after weights+screening)   ...  54608 (   0.1 sec)
nearest neighbour list constructed           ...    0.0 sec
Grid point re-assignment to atoms done       ...    0.0 sec
Grid point division into batches done        ...    0.2 sec
Reduced shell lists constructed in    1.4 sec

Total number of grid points                  ...    54608
Total number of batches                      ...      858
Average number of points per batch           ...       63
Average number of grid points per atom       ...     4551
Average number of shells per batch           ...    28.46 (59.29%)
Average number of basis functions per batch  ...    60.32 (62.84%)
Average number of large shells per batch     ...    20.94 (73.57%)
Average number of large basis fcns per batch ...    45.48 (75.39%)
Maximum spatial batch extension              ...  14.95, 16.22, 17.09 au
Average spatial batch extension              ...   2.69,  2.80,  3.12 au

Final grid set up in    1.7 sec
Final integration                            ... done (   1.5 sec)
Change in XC energy                          ...     0.000896726
Integrated number of electrons               ...    41.999998119
Previous integrated no of electrons          ...    41.996825178

----------------
TOTAL SCF ENERGY
----------------

Total Energy       :         -230.79301916 Eh           -6280.19733 eV

Components:
Nuclear Repulsion  :          186.08099528 Eh            5063.52131 eV
Electronic Energy  :         -416.87401444 Eh          -11343.71864 eV
One Electron Energy:         -676.70061250 Eh          -18413.95981 eV
Two Electron Energy:          259.82659806 Eh            7070.24118 eV

Virial components:
Potential Energy   :         -459.33208551 Eh          -12499.06149 eV
Kinetic Energy     :          228.53906635 Eh            6218.86416 eV
Virial Ratio       :            2.00986244


DFT components:
N(Alpha)           :       20.999999059551 electrons
N(Beta)            :       20.999999059551 electrons
N(Total)           :       41.999998119101 electrons
E(XC)              :      -22.929273785467 Eh       

---------------
SCF CONVERGENCE
---------------

  Last Energy change         ...   -1.3762e-07  Tolerance :   1.0000e-06
  Last MAX-Density change    ...    2.4834e-05  Tolerance :   1.0000e-05
  Last RMS-Density change    ...    2.3550e-06  Tolerance :   1.0000e-06
  Last DIIS Error            ...    1.2670e-05  Tolerance :   1.0000e-06

             **** THE GBW FILE WAS UPDATED (Scan_24.gbw) ****
             **** DENSITY FILE WAS UPDATED (Scan_24.scfp.tmp) ****
             **** ENERGY FILE WAS UPDATED (Scan_24.en.tmp) ****
----------------
ORBITAL ENERGIES
----------------

  NO   OCC          E(Eh)            E(eV) 
   0   2.0000     -10.390397      -282.7371 
   1   2.0000     -10.390060      -282.7279 
   2   2.0000     -10.390015      -282.7267 
   3   2.0000     -10.389254      -282.7060 
   4   2.0000     -10.389208      -282.7047 
   5   2.0000     -10.388868      -282.6955 
   6   2.0000      -1.057496       -28.7759 
   7   2.0000      -0.907508       -24.6945 
   8   2.0000      -0.907470       -24.6935 
   9   2.0000      -0.720296       -19.6003 
  10   2.0000      -0.720085       -19.5945 
  11   2.0000      -0.619278       -16.8514 
  12   2.0000      -0.545159       -14.8345 
  13   2.0000      -0.529716       -14.4143 
  14   2.0000      -0.398553       -10.8452 
  15   2.0000      -0.398361       -10.8399 
  16   2.0000      -0.379623       -10.3301 
  17   2.0000      -0.379441       -10.3251 
  18   2.0000      -0.325792        -8.8653 
  19   2.0000      -0.303319        -8.2537 
  20   2.0000      -0.303226        -8.2512 
  21   0.0000      -0.160738        -4.3739 
  22   0.0000      -0.144783        -3.9398 
  23   0.0000      -0.144685        -3.9371 
  24   0.0000      -0.075815        -2.0630 
  25   0.0000      -0.020752        -0.5647 
  26   0.0000      -0.020420        -0.5557 
  27   0.0000       0.050921         1.3856 
  28   0.0000       0.051018         1.3883 
  29   0.0000       0.259079         7.0499 
  30   0.0000       0.365830         9.9547 
  31   0.0000       0.365852         9.9553 
  32   0.0000       0.481314        13.0972 
  33   0.0000       0.481895        13.1130 
  34   0.0000       0.547574        14.9002 
  35   0.0000       0.559634        15.2284 
  36   0.0000       0.569138        15.4870 
  37   0.0000       0.582171        15.8417 
  38   0.0000       0.582417        15.8484 
  39   0.0000       0.585946        15.9444 
  40   0.0000       0.650080        17.6896 
  41   0.0000       0.650164        17.6919 
  42   0.0000       0.663628        18.0582 
  43   0.0000       0.663941        18.0668 
  44   0.0000       0.665308        18.1040 
  45   0.0000       0.737659        20.0727 
  46   0.0000       0.737763        20.0756 
  47   0.0000       0.744874        20.2690 
  48   0.0000       0.777893        21.1675 
  49   0.0000       0.777986        21.1701 
  50   0.0000       0.824357        22.4319 
  51   0.0000       0.824673        22.4405 
  52   0.0000       0.836751        22.7691 
  53   0.0000       0.841368        22.8948 
  54   0.0000       0.917641        24.9703 
  55   0.0000       0.936532        25.4843 
  56   0.0000       0.936688        25.4886 
  57   0.0000       0.943702        25.6794 
  58   0.0000       0.947538        25.7838 
  59   0.0000       0.947692        25.7880 
  60   0.0000       1.062387        28.9090 
  61   0.0000       1.063054        28.9272 
  62   0.0000       1.108235        30.1566 
  63   0.0000       1.238996        33.7148 
  64   0.0000       1.239085        33.7172 
  65   0.0000       1.292668        35.1753 
  66   0.0000       1.365637        37.1609 
  67   0.0000       1.428033        38.8587 
  68   0.0000       1.556233        42.3472 
  69   0.0000       1.556663        42.3590 
  70   0.0000       1.585550        43.1450 
  71   0.0000       1.585896        43.1544 
  72   0.0000       1.597844        43.4796 
  73   0.0000       1.776798        48.3491 
  74   0.0000       1.777817        48.3769 
  75   0.0000       1.866683        50.7950 
  76   0.0000       1.896549        51.6077 
  77   0.0000       2.192989        59.6743 
  78   0.0000       2.193328        59.6835 
  79   0.0000       2.253634        61.3245 
  80   0.0000       2.253938        61.3328 
  81   0.0000       2.261005        61.5251 
  82   0.0000       2.262115        61.5553 
  83   0.0000       2.407238        65.5043 
  84   0.0000       2.407810        65.5198 
  85   0.0000       2.473111        67.2968 
  86   0.0000       2.481908        67.5362 
  87   0.0000       2.482996        67.5658 
  88   0.0000       2.581593        70.2487 
  89   0.0000       2.798589        76.1535 
  90   0.0000       2.799972        76.1911 
  91   0.0000       2.819959        76.7350 
  92   0.0000       2.870407        78.1077 
  93   0.0000       2.871358        78.1336 
  94   0.0000       3.174134        86.3726 
  95   0.0000       3.467442        94.3539 

                    ********************************
                    * MULLIKEN POPULATION ANALYSIS *
                    ********************************

-----------------------
MULLIKEN ATOMIC CHARGES
-----------------------
   0 C :   -0.000852
   1 H :    0.000302
   2 C :   -0.000165
   3 H :    0.000566
   4 C :    0.000040
   5 H :    0.000121
   6 C :   -0.000827
   7 H :    0.000296
   8 C :   -0.000182
   9 H :    0.000571
  10 C :   -0.000003
  11 H :    0.000133
Sum of atomic charges:   -0.0000000

--------------------------------
MULLIKEN REDUCED ORBITAL CHARGES
--------------------------------
  0 C s       :     3.153665  s :     3.153665
      pz      :     0.987207  p :     2.810182
      px      :     0.946152
      py      :     0.876823
      dz2     :     0.002735  d :     0.037005
      dxz     :     0.004343
      dyz     :     0.008332
      dx2y2   :     0.009422
      dxy     :     0.012174
  1 H s       :     0.999698  s :     0.999698
  2 C s       :     3.153474  s :     3.153474
      pz      :     0.987531  p :     2.809678
      px      :     0.897818
      py      :     0.924328
      dz2     :     0.002704  d :     0.037013
      dxz     :     0.007084
      dyz     :     0.005630
      dx2y2   :     0.011900
      dxy     :     0.009694
  3 H s       :     0.999434  s :     0.999434
  4 C s       :     3.154590  s :     3.154590
      pz      :     0.987180  p :     2.808330
      px      :     0.889917
      py      :     0.931233
      dz2     :     0.002731  d :     0.037040
      dxz     :     0.007612
      dyz     :     0.005075
      dx2y2   :     0.011100
      dxy     :     0.010522
  5 H s       :     0.999879  s :     0.999879
  6 C s       :     3.153661  s :     3.153661
      pz      :     0.987199  p :     2.810161
      px      :     0.946142
      py      :     0.876819
      dz2     :     0.002735  d :     0.037005
      dxz     :     0.004343
      dyz     :     0.008331
      dx2y2   :     0.009422
      dxy     :     0.012174
  7 H s       :     0.999704  s :     0.999704
  8 C s       :     3.153477  s :     3.153477
      pz      :     0.987537  p :     2.809693
      px      :     0.897821
      py      :     0.924335
      dz2     :     0.002704  d :     0.037013
      dxz     :     0.007084
      dyz     :     0.005630
      dx2y2   :     0.011900
      dxy     :     0.009694
  9 H s       :     0.999429  s :     0.999429
 10 C s       :     3.154595  s :     3.154595
      pz      :     0.987194  p :     2.808367
      px      :     0.889925
      py      :     0.931248
      dz2     :     0.002731  d :     0.037041
      dxz     :     0.007612
      dyz     :     0.005076
      dx2y2   :     0.011100
      dxy     :     0.010522
 11 H s       :     0.999867  s :     0.999867


                     *******************************
                     * LOEWDIN POPULATION ANALYSIS *
                     *******************************

----------------------
LOEWDIN ATOMIC CHARGES
----------------------
   0 C :   -0.001381
   1 H :    0.001260
   2 C :   -0.001389
   3 H :    0.001505
   4 C :   -0.001062
   5 H :    0.001079
   6 C :   -0.001358
   7 H :    0.001253
   8 C :   -0.001405
   9 H :    0.001510
  10 C :   -0.001101
  11 H :    0.001090

-------------------------------
LOEWDIN REDUCED ORBITAL CHARGES
-------------------------------
  0 C s       :     2.954687  s :     2.954687
      pz      :     0.976311  p :     2.962810
      px      :     0.942211
      py      :     1.044288
      dz2     :     0.006264  d :     0.083883
      dxz     :     0.005631
      dyz     :     0.017976
      dx2y2   :     0.019516
      dxy     :     0.034497
  1 H s       :     0.998740  s :     0.998740
  2 C s       :     2.954775  s :     2.954775
      pz      :     0.976585  p :     2.962678
      px      :     1.011877
      py      :     0.974216
      dz2     :     0.006247  d :     0.083936
      dxz     :     0.014085
      dyz     :     0.009563
      dx2y2   :     0.032870
      dxy     :     0.021171
  3 H s       :     0.998495  s :     0.998495
  4 C s       :     2.954901  s :     2.954901
      pz      :     0.976230  p :     2.962247
      px      :     1.026359
      py      :     0.959658
      dz2     :     0.006267  d :     0.083915
      dxz     :     0.015723
      dyz     :     0.007890
      dx2y2   :     0.028719
      dxy     :     0.025316
  5 H s       :     0.998921  s :     0.998921
  6 C s       :     2.954685  s :     2.954685
      pz      :     0.976304  p :     2.962791
      px      :     0.942202
      py      :     1.044285
      dz2     :     0.006264  d :     0.083882
      dxz     :     0.005631
      dyz     :     0.017975
      dx2y2   :     0.019515
      dxy     :     0.034496
  7 H s       :     0.998747  s :     0.998747
  8 C s       :     2.954776  s :     2.954776
      pz      :     0.976591  p :     2.962692
      px      :     1.011881
      py      :     0.974221
      dz2     :     0.006247  d :     0.083937
      dxz     :     0.014085
      dyz     :     0.009563
      dx2y2   :     0.032870
      dxy     :     0.021171
  9 H s       :     0.998490  s :     0.998490
 10 C s       :     2.954905  s :     2.954905
      pz      :     0.976243  p :     2.962280
      px      :     1.026365
      py      :     0.959671
      dz2     :     0.006267  d :     0.083916
      dxz     :     0.015723
      dyz     :     0.007890
      dx2y2   :     0.028720
      dxy     :     0.025316
 11 H s       :     0.998910  s :     0.998910


                      *****************************
                      * MAYER POPULATION ANALYSIS *
                      *****************************

  NA   - Mulliken gross atomic population
  ZA   - Total nuclear charge
  QA   - Mulliken gross atomic charge
  VA   - Mayer's total valence
  BVA  - Mayer's bonded valence
  FA   - Mayer's free valence

  ATOM       NA         ZA         QA         VA         BVA        FA
  0 C      6.0009     6.0000    -0.0009     4.0021     4.0021    -0.0000
  1 H      0.9997     1.0000     0.0003     1.0003     1.0003    -0.0000
  2 C      6.0002     6.0000    -0.0002     4.0013     4.0013     0.0000
  3 H      0.9994     1.0000     0.0006     1.0003     1.0003    -0.0000
  4 C      6.0000     6.0000     0.0000     4.0005     4.0005    -0.0000
  5 H      0.9999     1.0000     0.0001     1.0002     1.0002     0.0000
  6 C      6.0008     6.0000    -0.0008     4.0021     4.0021    -0.0000
  7 H      0.9997     1.0000     0.0003     1.0003     1.0003     0.0000
  8 C      6.0002     6.0000    -0.0002     4.0013     4.0013    -0.0000
  9 H      0.9994     1.0000     0.0006     1.0003     1.0003    -0.0000
 10 C      6.0000     6.0000    -0.0000     4.0005     4.0005    -0.0000
 11 H      0.9999     1.0000     0.0001     1.0002     1.0002    -0.0000

  Mayer bond orders larger than 0.1
B(  0-C ,  1-H ) :   0.4749 B(  0-C ,  2-C ) :   1.6607 B(  0-C ,  6-C ) :   0.1004 
B(  0-C , 10-C ) :   1.6606 B(  1-H ,  3-H ) :   0.1992 B(  1-H , 11-H ) :   0.1997 
B(  2-C ,  3-H ) :   0.4751 B(  2-C ,  4-C ) :   1.6597 B(  2-C ,  8-C ) :   0.1002 
B(  3-H ,  5-H ) :   0.1996 B(  4-C ,  5-H ) :   0.4747 B(  4-C ,  6-C ) :   1.6606 
B(  4-C , 10-C ) :   0.1004 B(  5-H ,  7-H ) :   0.1997 B(  6-C ,  7-H ) :   0.4749 
B(  6-C ,  8-C ) :   1.6607 B(  7-H ,  9-H ) :   0.1992 B(  8-C ,  9-H ) :   0.4751 
B(  8-C , 10-C ) :   1.6597 B(  9-H , 11-H ) :   0.1996 B( 10-C , 11-H ) :   0.4747 


-------
TIMINGS
-------

Total SCF time: 0 days 0 hours 1 min 43 sec 

Total time                  ....     103.971 sec
Sum of individual times     ....     102.996 sec  ( 99.1%)

Fock matrix formation       ....      99.414 sec  ( 95.6%)
  XC integration            ....       9.594 sec  (  9.7% of F)
    Basis function eval.    ....       3.928 sec  ( 40.9% of XC)
    Density eval.           ....       1.042 sec  ( 10.9% of XC)
    XC-Functional eval.     ....       1.852 sec  ( 19.3% of XC)
    XC-Potential eval.      ....       1.132 sec  ( 11.8% of XC)
Diagonalization             ....       0.366 sec  (  0.4%)
Density matrix formation    ....       0.002 sec  (  0.0%)
Population analysis         ....       0.046 sec  (  0.0%)
Initial guess               ....       0.755 sec  (  0.7%)
Orbital Transformation      ....       0.000 sec  (  0.0%)
Orbital Orthonormalization  ....       0.000 sec  (  0.0%)
DIIS solution               ....       0.000 sec  (  0.0%)
Grid generation             ....       2.414 sec  (  2.3%)


-------------------------------------------------------------------------------
                          DFT DISPERSION CORRECTION                            
                                                                               
                              DFTD3 V3.1  Rev 1                                
                              USING zero damping                               
-------------------------------------------------------------------------------
The omegaB97X-D3 functional is recognized. Fit by Chai et al.
Active option DFTDOPT                   ...         3   

molecular C6(AA) [au] = 2353.748141 


            DFT-D V3
 parameters
 s6 scaling factor         :     1.0000 
 rs6 scaling factor        :     1.2810 
 s8 scaling factor         :     1.0000 
 rs8 scaling factor        :     1.0940 
 Damping factor alpha6     :    14.0000 
 Damping factor alpha8     :    16.0000 
 ad hoc parameters k1-k3   :    16.0000     1.3333    -4.0000 

 Edisp/kcal,au: -1.913979088173  -0.003050119501 
 E6   /kcal   :  -1.000488861 
 E8   /kcal   :  -0.913490227 
 % E8         :  47.727283578 

-------------------------   ----------------
Dispersion correction           -0.003050120
-------------------------   ----------------


-------------------------   --------------------
FINAL SINGLE POINT ENERGY      -230.796069279081
-------------------------   --------------------


                            ***************************************
                            *     ORCA property calculations      *
                            ***************************************

                                    ---------------------
                                    Active property flags
                                    ---------------------
   (+) Dipole Moment


------------------------------------------------------------------------------
                       ORCA ELECTRIC PROPERTIES CALCULATION
------------------------------------------------------------------------------

Dipole Moment Calculation                       ... on
Quadrupole Moment Calculation                   ... off
Polarizability Calculation                      ... off
GBWName                                         ... Scan_24.gbw
Electron density file                           ... Scan_24.scfp.tmp

-------------
DIPOLE MOMENT
-------------
                                X             Y             Z
Electronic contribution:     -0.00003       0.00006      -0.00000
Nuclear contribution   :      0.00002      -0.00003       0.00000
                        -----------------------------------------
Total Dipole Moment    :     -0.00002       0.00003       0.00000
                        -----------------------------------------
Magnitude (a.u.)       :      0.00003
Magnitude (Debye)      :      0.00008


Timings for individual modules:

Sum of individual times         ...      105.340 sec (=   1.756 min)
GTO integral calculation        ...        1.261 sec (=   0.021 min)   1.2 %
SCF iterations                  ...      104.080 sec (=   1.735 min)  98.8 %
                             ****ORCA TERMINATED NORMALLY****
TOTAL RUN TIME: 0 days 0 hours 1 minutes 46 seconds 899 msec
