
                                 *****************
                                 * O   R   C   A *
                                 *****************

           --- An Ab Initio, DFT and Semiempirical electronic structure package ---

                  #######################################################
                  #                        -***-                        #
                  #  Department of molecular theory and spectroscopy    #
                  #              Directorship: Frank Neese              #
                  # Max Planck Institute for Chemical Energy Conversion #
                  #                  D-45470 Muelheim/Ruhr              #
                  #                       Germany                       #
                  #                                                     #
                  #                  All rights reserved                #
                  #                        -***-                        #
                  #######################################################


                         Program Version 4.0.0.2 - RELEASE -


 With contributions from (in alphabetic order):
   Daniel Aravena         : Magnetic Properties
   Michael Atanasov       : Ab Initio Ligand Field Theory
   Ute Becker             : Parallelization
   Martin Brehm           : Molecular dynamics
   Dmytro Bykov           : SCF Hessian
   Vijay G. Chilkuri      : MRCI spin determinant printing
   Dipayan Datta          : RHF DLPNO-CCSD density
   Achintya Kumar Dutta   : EOM-CC, STEOM-CC
   Dmitry Ganyushin       : Spin-Orbit,Spin-Spin,Magnetic field MRCI
   Yang Guo               : DLPNO-NEVPT2, CIM, IAO-localization
   Andreas Hansen         : Spin unrestricted coupled pair/coupled cluster methods
   Lee Huntington         : MR-EOM, pCC
   Robert Izsak           : Overlap fitted RIJCOSX, COSX-SCS-MP3, EOM
   Christian Kollmar      : KDIIS, OOCD, Brueckner-CCSD(T), CCSD density
   Simone Kossmann        : Meta GGA functionals, TD-DFT gradient, OOMP2, MP2 Hessian
   Martin Krupicka        : AUTO-CI
   Dagmar Lenk            : GEPOL surface
   Dimitrios Liakos       : Extrapolation schemes; parallel MDCI
   Dimitrios Manganas     : ROCIS; embedding schemes
   Dimitrios Pantazis     : SARC Basis sets
   Taras Petrenko         : DFT Hessian,TD-DFT gradient, ASA, ECA, R-Raman, ABS, FL, XAS/XES, NRVS
   Peter Pinski           : DLPNO-MP2
   Christoph Reimann      : Effective Core Potentials
   Marius Retegan         : Local ZFS, SOC
   Christoph Riplinger    : Optimizer, TS searches, QM/MM, DLPNO-CCSD(T), (RO)-DLPNO pert. Triples
   Tobias Risthaus        : Range-separated hybrids, TD-DFT gradient, RPA, STAB
   Michael Roemelt        : Restricted open shell CIS
   Masaaki Saitow         : Open-shell DLPNO
   Barbara Sandhoefer     : DKH picture change effects
   Kantharuban Sivalingam : CASSCF convergence, NEVPT2, FIC-MRCI
   Georgi Stoychev        : AutoAux
   Boris Wezisla          : Elementary symmetry handling
   Frank Wennmohs         : Technical directorship


 We gratefully acknowledge several colleagues who have allowed us to
 interface, adapt or use parts of their codes:
   Stefan Grimme, W. Hujo, H. Kruse,             : VdW corrections, initial TS optimization,
                  C. Bannwarth                     DFT functionals, gCP, sTDA/sTD-DF
   Ed Valeev                                     : LibInt (2-el integral package), F12 methods
   Garnet Chan, S. Sharma, J. Yang, R. Olivares  : DMRG
   Ulf Ekstrom                                   : XCFun DFT Library
   Mihaly Kallay                                 : mrcc  (arbitrary order and MRCC methods)
   Jiri Pittner, Ondrej Demel                    : Mk-CCSD
   Frank Weinhold                                : gennbo (NPA and NBO analysis)
   Christopher J. Cramer and Donald G. Truhlar   : smd solvation model


 Your calculation uses the libint2 library for the computation of 2-el integrals
 For citations please refer to: http://libint.valeyev.net

 This ORCA versions uses:
   CBLAS   interface :  Fast vector & matrix operations
   LAPACKE interface :  Fast linear algebra routines
   SCALAPACK package :  Parallel linear algebra routines


Your calculation utilizes the atom-pairwise dispersion correction
with the zero-damping scheme (D30)
Cite in your paper:
S.Grimme, J.Antony, S.Ehrlich and H.Krieg, J.Chem.Phys., 132, (2010), 154104 
   

XCFun DFT library Copyright 2009-2010 Ulf Ekstrom and contributors.
See http://admol.org/xcfun for more information. This is free soft-
ware; see the source code for copying conditions. There is ABSOLUTELY
NO WARRANTY; not even for MERCHANTABILITY or FITNESS FOR A PARTICULAR
PURPOSE. For details see the documentation. Scientific users of this 
library should cite U. Ekstrom, L. Visscher, R. Bast, A. J. Thorvald-
sen and K. Ruud; J.Chem.Theor.Comp. 2010, DOI: 10.1021/ct100117s
XCFun Version 0.99 
Your calculation utilizes the basis: 6-31G(d)
   H-He, Li-Ne : W. J. Hehre, R. Ditchfield and J.A. Pople, J. Chem. Phys. 56, 2257 (1972).
                 Note: He and Ne are unpublished basis sets taken from the Gaussian program.
                 Note: Li and B from J. D. Dill and J. A. Pople, J. Chem. Phys. 62, 2921 (1975).
   Na - Ar     : M. M. Francl, W. J. Pietro, W. J. Hehre, J. S. Binkley, M. S. Gordon, 
                 D. J. DeFrees and J. A. Pople, J. Chem. Phys. 77, 3654 (1982).
   K - Zn      : V. A. Rassolov, J. A. Pople, M. A. Ratner, and T. L. Windus, J. Chem. Phys. 109, 1223 (1998).

================================================================================
                                        WARNINGS
                       Please study these warnings very carefully!
================================================================================

Warning: TCutStore was < 0. Adjusted to Thresh (uncritical)

INFO   : the flag for use of LIBINT has been found!

================================================================================
                                       INPUT FILE
================================================================================
NAME = initial26.inp
|  1> ! WB97X-D3 6-31G(d) VerySlowConv
|  2> ! KDIIS NOSOSCF
|  3> %base "Scan_26"
|  4> 
|  5> %scf
|  6> maxiter 999
|  7> end
|  8> 
|  9> * xyz 0 1
| 10> C          1.459401641948   -2.844782213668   -0.000001296079
| 11> H          4.504668311293   -3.077943606263    0.000000403577
| 12> C          0.882780724360   -1.642501536428   -0.000004556207
| 13> H          2.607336631412    0.878197007657    0.000001635476
| 14> C         -0.446731388350   -1.540723230234   -0.000003239267
| 15> H         -1.767459729774    1.213127130312    0.000001119783
| 16> C         -1.199638647456   -2.641219936677    0.000001288162
| 17> H         -4.244909324145   -2.408109347074   -0.000000349002
| 18> C         -0.623023710077   -3.843502979957    0.000004547592
| 19> H         -2.347533749264   -6.364232795500   -0.000001550889
| 20> C          0.706493379517   -3.945285160943    0.000003230510
| 21> H          2.027225860536   -6.699133331224   -0.000001233657
| 22> **                         ****END OF INPUT****
================================================================================

                       ****************************
                       * Single Point Calculation *
                       ****************************

---------------------------------
CARTESIAN COORDINATES (ANGSTROEM)
---------------------------------
  C      1.459402   -2.844782   -0.000001
  H      4.504668   -3.077944    0.000000
  C      0.882781   -1.642502   -0.000005
  H      2.607337    0.878197    0.000002
  C     -0.446731   -1.540723   -0.000003
  H     -1.767460    1.213127    0.000001
  C     -1.199639   -2.641220    0.000001
  H     -4.244909   -2.408109   -0.000000
  C     -0.623024   -3.843503    0.000005
  H     -2.347534   -6.364233   -0.000002
  C      0.706493   -3.945285    0.000003
  H      2.027226   -6.699133   -0.000001

----------------------------
CARTESIAN COORDINATES (A.U.)
----------------------------
  NO LB      ZA    FRAG     MASS         X           Y           Z
   0 C     6.0000    0    12.011    2.757869   -5.375859   -0.000002
   1 H     1.0000    0     1.008    8.512589   -5.816470    0.000001
   2 C     6.0000    0    12.011    1.668214   -3.103878   -0.000009
   3 H     1.0000    0     1.008    4.927152    1.659552    0.000003
   4 C     6.0000    0    12.011   -0.844200   -2.911545   -0.000006
   5 H     1.0000    0     1.008   -3.340015    2.292478    0.000002
   6 C     6.0000    0    12.011   -2.266989   -4.991182    0.000002
   7 H     1.0000    0     1.008   -8.021716   -4.550667   -0.000001
   8 C     6.0000    0    12.011   -1.177344   -7.263168    0.000009
   9 H     1.0000    0     1.008   -4.436196  -12.026657   -0.000003
  10 C     6.0000    0    12.011    1.335079   -7.455508    0.000006
  11 H     1.0000    0     1.008    3.830902  -12.659527   -0.000002

--------------------------------
INTERNAL COORDINATES (ANGSTROEM)
--------------------------------
 C      0   0   0     0.000000000000     0.00000000     0.00000000
 H      1   0   0     3.054179648027     0.00000000     0.00000000
 C      1   2   0     1.333405605761   120.00097094     0.00000000
 H      3   1   2     3.054179796073   119.99905634     0.00000000
 C      3   1   2     1.333402145437   120.00028420   180.00010216
 H      5   3   1     3.054179948880   119.99969953   179.99974382
 C      5   3   1     1.333402543018   120.00043627     0.00000000
 H      7   5   3     3.054179765713   120.00070553   180.00010080
 C      7   5   3     1.333405153049   119.99955520     0.00000000
 H      9   7   5     3.054179706281   120.00037343   180.00035674
 C      9   7   5     1.333407403568   120.00015823     0.00000000
 H     11   9   7     3.054179764094   119.99993701   180.00025843

---------------------------
INTERNAL COORDINATES (A.U.)
---------------------------
 C      0   0   0     0.000000000000     0.00000000     0.00000000
 H      1   0   0     5.771563098567     0.00000000     0.00000000
 C      1   2   0     2.519771420324   120.00097094     0.00000000
 H      3   1   2     5.771563378333   119.99905634     0.00000000
 C      3   1   2     2.519764881259   120.00028420   180.00010216
 H      5   3   1     5.771563667096   119.99969953   179.99974382
 C      5   3   1     2.519765632578   120.00043627     0.00000000
 H      7   5   3     5.771563320961   120.00070553   180.00010080
 C      7   5   3     2.519770564822   119.99955520     0.00000000
 H      9   7   5     5.771563208652   120.00037343   180.00035674
 C      9   7   5     2.519774817687   120.00015823     0.00000000
 H     11   9   7     5.771563317901   119.99993701   180.00025843

---------------------
BASIS SET INFORMATION
---------------------
There are 2 groups of distinct atoms

 Group   1 Type C   : 10s4p1d contracted to 3s2p1d pattern {631/31/1}
 Group   2 Type H   : 4s contracted to 2s pattern {31}

Atom   0C    basis set group =>   1
Atom   1H    basis set group =>   2
Atom   2C    basis set group =>   1
Atom   3H    basis set group =>   2
Atom   4C    basis set group =>   1
Atom   5H    basis set group =>   2
Atom   6C    basis set group =>   1
Atom   7H    basis set group =>   2
Atom   8C    basis set group =>   1
Atom   9H    basis set group =>   2
Atom  10C    basis set group =>   1
Atom  11H    basis set group =>   2
------------------------------------------------------------------------------
                           ORCA GTO INTEGRAL CALCULATION
------------------------------------------------------------------------------

                         BASIS SET STATISTICS AND STARTUP INFO

 # of primitive gaussian shells          ...  114
 # of primitive gaussian functions       ...  186
 # of contracted shells                  ...   48
 # of contracted basis functions         ...   96
 Highest angular momentum                ...    2
 Maximum contraction depth               ...    6
 Integral package used                   ... LIBINT
 Integral threshhold            Thresh   ...  1.000e-10
 Primitive cut-off              TCut     ...  1.000e-11


------------------------------ INTEGRAL EVALUATION ----------------------------


 * One electron integrals 
 Pre-screening matrix                    ... done
 Shell pair data                         ... done (   0.001 sec)

-------------------------------------------------------------------------------
                                 ORCA SCF
-------------------------------------------------------------------------------

------------
SCF SETTINGS
------------
Hamiltonian:
 Density Functional     Method          .... DFT(GTOs)
 Exchange Functional    Exchange        .... WB97X-D3
 Correlation Functional Correlation     .... WB97X-D3
 Gradients option       PostSCFGGA      .... off
 Hybrid DFT is turned on
   Fraction HF Exchange ScalHFX         ....  0.195728
   Scaling of DF-GGA-X  ScalDFX         ....  0.000000
   Scaling of DF-GGA-C  ScalDFC         ....  1.000000
   Scaling of DF-LDA-C  ScalLDAC        ....  1.000000
   Perturbative correction              ....  0.000000
 Long-range corrected/Screened/Range-Separated Hybrid DFT is turned on
   Amount of maximum screened exact exchange              ....  0.804272
   Range separation parameter mu (erf(mu*r12)/r12)        ....  0.250000


General Settings:
 Integral files         IntName         .... Scan_26
 Hartree-Fock type      HFTyp           .... RHF
 Total Charge           Charge          ....    0
 Multiplicity           Mult            ....    1
 Number of Electrons    NEL             ....   42
 Basis Dimension        Dim             ....   96
 Nuclear Repulsion      ENuc            ....    184.6625405483 Eh

Convergence Acceleration:
 DIIS                   CNVDIIS         .... on
   Start iteration      DIISMaxIt       ....     0
   Startup error        DIISStart       ....  0.200000
   # of expansion vecs  DIISMaxEq       ....     5
   Bias factor          DIISBfac        ....   1.050
   Max. coefficient     DIISMaxC        ....  10.000
 Newton-Raphson         CNVNR           .... off
 SOSCF                  CNVSOSCF        .... off
 Level Shifting         CNVShift        .... off
 Zerner damping         CNVZerner       .... off
 Static damping         CNVDamp         .... off
 Fernandez-Rico         CNVRico         .... off

SCF Procedure:
 Maximum # iterations   MaxIter         ....   999
 SCF integral mode      SCFMode         .... Direct
   Integral package                     .... LIBINT
 Reset frequeny         DirectResetFreq ....    20
 Integral Threshold     Thresh          ....  1.000e-10 Eh
 Primitive CutOff       TCut            ....  1.000e-11 Eh

Convergence Tolerance:
 Convergence Check Mode ConvCheckMode   .... All-Criteria
 Convergence forced     ConvForced      .... 0
 Energy Change          TolE            ....  1.000e-06 Eh
 Max Density Change     TolMaxP         ....  1.000e-05
 RMS Density Change     TolRMSP         ....  1.000e-06
 DIIS Error             TolErr          ....  1.000e-06


Diagonalization of the overlap matrix:
Smallest eigenvalue                        ... 1.143e-03
Time for diagonalization                   ...    0.002 sec
Threshold for overlap eigenvalues          ... 1.000e-08
Number of eigenvalues below threshold      ... 0
Time for construction of square roots      ...    0.005 sec
Total time needed                          ...    0.008 sec

-------------------
DFT GRID GENERATION
-------------------

General Integration Accuracy     IntAcc      ...  4.340
Radial Grid Type                 RadialGrid  ... Gauss-Chebyshev
Angular Grid (max. acc.)         AngularGrid ... Lebedev-110
Angular grid pruning method      GridPruning ... 3 (G Style)
Weight generation scheme         WeightScheme... Becke
Basis function cutoff            BFCut       ...    1.0000e-10
Integration weight cutoff        WCut        ...    1.0000e-14
Grids for H and He will be reduced by one unit

# of grid points (after initial pruning)     ...  14700 (   0.0 sec)
# of grid points (after weights+screening)   ...  14044 (   0.1 sec)
nearest neighbour list constructed           ...    0.0 sec
Grid point re-assignment to atoms done       ...    0.0 sec
Grid point division into batches done        ...    0.0 sec
Reduced shell lists constructed in    0.2 sec

Total number of grid points                  ...    14044
Total number of batches                      ...      226
Average number of points per batch           ...       62
Average number of grid points per atom       ...     1170
Average number of shells per batch           ...    31.68 (66.00%)
Average number of basis functions per batch  ...    67.43 (70.24%)
Average number of large shells per batch     ...    23.75 (74.97%)
Average number of large basis fcns per batch ...    52.67 (78.11%)
Maximum spatial batch extension              ...  16.45, 20.19, 25.60 au
Average spatial batch extension              ...   3.97,  4.36,  5.49 au

Time for grid setup =    0.267 sec

------------------------------
INITIAL GUESS: MODEL POTENTIAL
------------------------------
Loading Hartree-Fock densities                     ... done
Calculating cut-offs                               ... done
Setting up the integral package                    ... done
Initializing the effective Hamiltonian             ... done
Starting the Coulomb interaction                   ... done (   0.1 sec)
Reading the grid                                   ... done
Mapping shells                                     ... done
Starting the XC term evaluation                    ... done (   0.2 sec)
  promolecular density results
     # of electrons  =     41.994949594
     EX              =    -32.047607745
     EC              =     -1.261862517
     EX+EC           =    -33.309470262
Transforming the Hamiltonian                       ... done (   0.0 sec)
Diagonalizing the Hamiltonian                      ... done (   0.0 sec)
Back transforming the eigenvectors                 ... done (   0.0 sec)
Now organizing SCF variables                       ... done
                      ------------------
                      INITIAL GUESS DONE (   0.7 sec)
                      ------------------
--------------
SCF ITERATIONS
--------------
ITER       Energy         Delta-E        Max-DP      RMS-DP      [F,P]   Gradient Norm
               ***  Starting incremental Fock matrix formation  ***
                             ****Resetting KDIIS****
                             ****Turning on KDIIS(Cayley)****
  0   -230.0752009636   0.000000000000 0.02680292  0.00207253  0.2231364   0.125704478
  1   -230.2188758773  -0.143674913697 0.03492051  0.00311451  0.2055280   0.105877120
  2   -230.4198129414  -0.200937064127 0.06971713  0.00485791  0.1702053   0.079800931
  3   -230.6429618715  -0.223148930168 0.14093998  0.00836565  0.0957534   0.038811038
  4   -230.6338403427   0.009121528849 0.09154449  0.00516997  0.0897110   0.044455691
  5   -230.7056483707  -0.071808028015 0.00927195  0.00089941  0.0464883   0.011575403
  6   -230.7093045557  -0.003656184991 0.01117174  0.00086907  0.0431477   0.011514278
  7   -230.7144684374  -0.005163881721 0.03892674  0.00257962  0.0413364   0.010926687
  8   -230.7290437683  -0.014575330909 0.00833357  0.00084092  0.0105115   0.003245278
  9   -230.7306868602  -0.001643091910 0.01928543  0.00158888  0.0057251   0.002616850
 10   -230.7330266707  -0.002339810499 0.00557714  0.00038664  0.0024240   0.001605676
 11   -230.7332068262  -0.000180155462 0.00164545  0.00012411  0.0014175   0.001128518
 12   -230.7332425981  -0.000035771941 0.00107794  0.00007670  0.0002844   0.000300988
 13   -230.7332475071  -0.000004908967 0.00016617  0.00001426  0.0000992   0.000088499
                          ***Energy convergence achieved***
 14   -230.7332478541  -0.000000346960 0.00017091  0.00001167  0.0000638   0.000056850

            ***Energy convergence in two consecutive cycles with***
                    ***'reasonable' density convergence***
                       *** signaling convergence ***

                    *** KDIIS BlockDiag ( 0.002 sec) ***

               *****************************************************
               *                     SUCCESS                       *
               *           SCF CONVERGED AFTER  15 CYCLES          *
               *****************************************************

Setting up the final grid:

General Integration Accuracy     IntAcc      ...  4.670
Radial Grid Type                 RadialGrid  ... Gauss-Chebyshev
Angular Grid (max. acc.)         AngularGrid ... Lebedev-302
Angular grid pruning method      GridPruning ... 3 (G Style)
Weight generation scheme         WeightScheme... Becke
Basis function cutoff            BFCut       ...    1.0000e-10
Integration weight cutoff        WCut        ...    1.0000e-14
Grids for H and He will be reduced by one unit

# of grid points (after initial pruning)     ...  57636 (   0.0 sec)
# of grid points (after weights+screening)   ...  54698 (   0.1 sec)
nearest neighbour list constructed           ...    0.0 sec
Grid point re-assignment to atoms done       ...    0.0 sec
Grid point division into batches done        ...    0.2 sec
Reduced shell lists constructed in    0.8 sec

Total number of grid points                  ...    54698
Total number of batches                      ...      860
Average number of points per batch           ...       63
Average number of grid points per atom       ...     4558
Average number of shells per batch           ...    27.77 (57.86%)
Average number of basis functions per batch  ...    58.99 (61.45%)
Average number of large shells per batch     ...    20.22 (72.79%)
Average number of large basis fcns per batch ...    44.21 (74.95%)
Maximum spatial batch extension              ...  14.86, 16.85, 17.09 au
Average spatial batch extension              ...   2.72,  2.79,  3.13 au

Final grid set up in    0.9 sec
Final integration                            ... done (   0.8 sec)
Change in XC energy                          ...     0.001012360
Integrated number of electrons               ...    41.999989300
Previous integrated no of electrons          ...    41.997257866

----------------
TOTAL SCF ENERGY
----------------

Total Energy       :         -230.73223562 Eh           -6278.54333 eV

Components:
Nuclear Repulsion  :          184.66254055 Eh            5024.92319 eV
Electronic Energy  :         -415.39477617 Eh          -11303.46652 eV
One Electron Energy:         -673.87060201 Eh          -18336.95131 eV
Two Electron Energy:          258.47582585 Eh            7033.48480 eV

Virial components:
Potential Energy   :         -459.31015906 Eh          -12498.46484 eV
Kinetic Energy     :          228.57792345 Eh            6219.92151 eV
Virial Ratio       :            2.00942485


DFT components:
N(Alpha)           :       20.999994650162 electrons
N(Beta)            :       20.999994650162 electrons
N(Total)           :       41.999989300324 electrons
E(XC)              :      -22.930667943764 Eh       

---------------
SCF CONVERGENCE
---------------

  Last Energy change         ...   -1.2297e-07  Tolerance :   1.0000e-06
  Last MAX-Density change    ...    4.7762e-05  Tolerance :   1.0000e-05
  Last RMS-Density change    ...    4.0437e-06  Tolerance :   1.0000e-06
  Last DIIS Error            ...    2.8497e-05  Tolerance :   1.0000e-06

             **** THE GBW FILE WAS UPDATED (Scan_26.gbw) ****
             **** DENSITY FILE WAS UPDATED (Scan_26.scfp.tmp) ****
             **** ENERGY FILE WAS UPDATED (Scan_26.en.tmp) ****
----------------
ORBITAL ENERGIES
----------------

  NO   OCC          E(Eh)            E(eV) 
   0   2.0000     -10.388484      -282.6850 
   1   2.0000     -10.388146      -282.6758 
   2   2.0000     -10.388101      -282.6746 
   3   2.0000     -10.387332      -282.6537 
   4   2.0000     -10.387286      -282.6524 
   5   2.0000     -10.386941      -282.6430 
   6   2.0000      -1.053677       -28.6720 
   7   2.0000      -0.905331       -24.6353 
   8   2.0000      -0.905290       -24.6342 
   9   2.0000      -0.718716       -19.5573 
  10   2.0000      -0.718517       -19.5518 
  11   2.0000      -0.617988       -16.8163 
  12   2.0000      -0.543928       -14.8010 
  13   2.0000      -0.531085       -14.4515 
  14   2.0000      -0.397765       -10.8237 
  15   2.0000      -0.397557       -10.8181 
  16   2.0000      -0.374682       -10.1956 
  17   2.0000      -0.374453       -10.1894 
  18   2.0000      -0.315027        -8.5723 
  19   2.0000      -0.294484        -8.0133 
  20   2.0000      -0.294431        -8.0119 
  21   0.0000      -0.164921        -4.4877 
  22   0.0000      -0.160039        -4.3549 
  23   0.0000      -0.159944        -4.3523 
  24   0.0000      -0.083123        -2.2619 
  25   0.0000      -0.027133        -0.7383 
  26   0.0000      -0.026791        -0.7290 
  27   0.0000       0.051205         1.3933 
  28   0.0000       0.051286         1.3956 
  29   0.0000       0.259511         7.0616 
  30   0.0000       0.363843         9.9007 
  31   0.0000       0.363909         9.9025 
  32   0.0000       0.482097        13.1185 
  33   0.0000       0.482634        13.1331 
  34   0.0000       0.546503        14.8711 
  35   0.0000       0.557985        15.1835 
  36   0.0000       0.561302        15.2738 
  37   0.0000       0.569842        15.5062 
  38   0.0000       0.570703        15.5296 
  39   0.0000       0.570856        15.5338 
  40   0.0000       0.648470        17.6458 
  41   0.0000       0.648727        17.6528 
  42   0.0000       0.650165        17.6919 
  43   0.0000       0.650271        17.6948 
  44   0.0000       0.660784        17.9808 
  45   0.0000       0.737840        20.0776 
  46   0.0000       0.737955        20.0808 
  47   0.0000       0.745531        20.2869 
  48   0.0000       0.769892        20.9498 
  49   0.0000       0.769940        20.9511 
  50   0.0000       0.813807        22.1448 
  51   0.0000       0.814050        22.1514 
  52   0.0000       0.837420        22.7874 
  53   0.0000       0.840658        22.8755 
  54   0.0000       0.906347        24.6630 
  55   0.0000       0.930406        25.3176 
  56   0.0000       0.930589        25.3226 
  57   0.0000       0.942583        25.6490 
  58   0.0000       0.942721        25.6527 
  59   0.0000       0.942886        25.6572 
  60   0.0000       1.063888        28.9499 
  61   0.0000       1.064590        28.9690 
  62   0.0000       1.110404        30.2156 
  63   0.0000       1.239159        33.7192 
  64   0.0000       1.239264        33.7221 
  65   0.0000       1.293580        35.2001 
  66   0.0000       1.364377        37.1266 
  67   0.0000       1.428950        38.8837 
  68   0.0000       1.557222        42.3742 
  69   0.0000       1.557672        42.3864 
  70   0.0000       1.586660        43.1752 
  71   0.0000       1.587017        43.1849 
  72   0.0000       1.591050        43.2947 
  73   0.0000       1.778642        48.3993 
  74   0.0000       1.779591        48.4251 
  75   0.0000       1.867893        50.8280 
  76   0.0000       1.898430        51.6589 
  77   0.0000       2.193276        59.6821 
  78   0.0000       2.193666        59.6927 
  79   0.0000       2.255133        61.3653 
  80   0.0000       2.255452        61.3740 
  81   0.0000       2.260829        61.5203 
  82   0.0000       2.261909        61.5497 
  83   0.0000       2.407866        65.5214 
  84   0.0000       2.408447        65.5372 
  85   0.0000       2.475028        67.3489 
  86   0.0000       2.480852        67.5074 
  87   0.0000       2.481882        67.5354 
  88   0.0000       2.572466        70.0004 
  89   0.0000       2.799841        76.1876 
  90   0.0000       2.801249        76.2259 
  91   0.0000       2.820587        76.7521 
  92   0.0000       2.872107        78.1540 
  93   0.0000       2.873003        78.1784 
  94   0.0000       3.175430        86.4078 
  95   0.0000       3.468968        94.3954 

                    ********************************
                    * MULLIKEN POPULATION ANALYSIS *
                    ********************************

-----------------------
MULLIKEN ATOMIC CHARGES
-----------------------
   0 C :    0.003014
   1 H :   -0.003059
   2 C :    0.002930
   3 H :   -0.002891
   4 C :    0.003358
   5 H :   -0.003323
   6 C :    0.003028
   7 H :   -0.003061
   8 C :    0.002896
   9 H :   -0.002886
  10 C :    0.003310
  11 H :   -0.003315
Sum of atomic charges:   -0.0000000

--------------------------------
MULLIKEN REDUCED ORBITAL CHARGES
--------------------------------
  0 C s       :     3.142039  s :     3.142039
      pz      :     0.987411  p :     2.818496
      px      :     0.954392
      py      :     0.876692
      dz2     :     0.002667  d :     0.036451
      dxz     :     0.004085
      dyz     :     0.008333
      dx2y2   :     0.009178
      dxy     :     0.012188
  1 H s       :     1.003059  s :     1.003059
  2 C s       :     3.141678  s :     3.141678
      pz      :     0.987857  p :     2.818933
      px      :     0.901215
      py      :     0.929861
      dz2     :     0.002635  d :     0.036459
      dxz     :     0.007005
      dyz     :     0.005456
      dx2y2   :     0.011885
      dxy     :     0.009479
  3 H s       :     1.002891  s :     1.002891
  4 C s       :     3.142421  s :     3.142421
      pz      :     0.987409  p :     2.817715
      px      :     0.891951
      py      :     0.938355
      dz2     :     0.002664  d :     0.036506
      dxz     :     0.007567
      dyz     :     0.004867
      dx2y2   :     0.011029
      dxy     :     0.010379
  5 H s       :     1.003323  s :     1.003323
  6 C s       :     3.142035  s :     3.142035
      pz      :     0.987408  p :     2.818486
      px      :     0.954386
      py      :     0.876692
      dz2     :     0.002667  d :     0.036451
      dxz     :     0.004085
      dyz     :     0.008332
      dx2y2   :     0.009178
      dxy     :     0.012188
  7 H s       :     1.003061  s :     1.003061
  8 C s       :     3.141685  s :     3.141685
      pz      :     0.987867  p :     2.818960
      px      :     0.901220
      py      :     0.929873
      dz2     :     0.002635  d :     0.036460
      dxz     :     0.007005
      dyz     :     0.005456
      dx2y2   :     0.011885
      dxy     :     0.009479
  9 H s       :     1.002886  s :     1.002886
 10 C s       :     3.142432  s :     3.142432
      pz      :     0.987423  p :     2.817751
      px      :     0.891957
      py      :     0.938371
      dz2     :     0.002664  d :     0.036507
      dxz     :     0.007567
      dyz     :     0.004867
      dx2y2   :     0.011029
      dxy     :     0.010379
 11 H s       :     1.003315  s :     1.003315


                     *******************************
                     * LOEWDIN POPULATION ANALYSIS *
                     *******************************

----------------------
LOEWDIN ATOMIC CHARGES
----------------------
   0 C :    0.003401
   1 H :   -0.003344
   2 C :    0.003308
   3 H :   -0.003197
   4 C :    0.003479
   5 H :   -0.003623
   6 C :    0.003413
   7 H :   -0.003347
   8 C :    0.003278
   9 H :   -0.003191
  10 C :    0.003437
  11 H :   -0.003614

-------------------------------
LOEWDIN REDUCED ORBITAL CHARGES
-------------------------------
  0 C s       :     2.949605  s :     2.949605
      pz      :     0.976498  p :     2.964306
      px      :     0.947664
      py      :     1.040144
      dz2     :     0.006163  d :     0.082687
      dxz     :     0.005408
      dyz     :     0.017973
      dx2y2   :     0.018151
      dxy     :     0.034993
  1 H s       :     1.003344  s :     1.003344
  2 C s       :     2.949709  s :     2.949709
      pz      :     0.976860  p :     2.964248
      px      :     1.010829
      py      :     0.976560
      dz2     :     0.006143  d :     0.082736
      dxz     :     0.014014
      dyz     :     0.009410
      dx2y2   :     0.033153
      dxy     :     0.020016
  3 H s       :     1.003197  s :     1.003197
  4 C s       :     2.949848  s :     2.949848
      pz      :     0.976438  p :     2.963943
      px      :     1.024072
      py      :     0.963433
      dz2     :     0.006163  d :     0.082730
      dxz     :     0.015681
      dyz     :     0.007709
      dx2y2   :     0.028511
      dxy     :     0.024666
  5 H s       :     1.003623  s :     1.003623
  6 C s       :     2.949602  s :     2.949602
      pz      :     0.976495  p :     2.964297
      px      :     0.947658
      py      :     1.040144
      dz2     :     0.006163  d :     0.082687
      dxz     :     0.005408
      dyz     :     0.017973
      dx2y2   :     0.018152
      dxy     :     0.034993
  7 H s       :     1.003347  s :     1.003347
  8 C s       :     2.949714  s :     2.949714
      pz      :     0.976869  p :     2.964272
      px      :     1.010834
      py      :     0.976569
      dz2     :     0.006143  d :     0.082736
      dxz     :     0.014014
      dyz     :     0.009410
      dx2y2   :     0.033154
      dxy     :     0.020016
  9 H s       :     1.003191  s :     1.003191
 10 C s       :     2.949856  s :     2.949856
      pz      :     0.976452  p :     2.963976
      px      :     1.024077
      py      :     0.963448
      dz2     :     0.006163  d :     0.082730
      dxz     :     0.015681
      dyz     :     0.007709
      dx2y2   :     0.028511
      dxy     :     0.024666
 11 H s       :     1.003614  s :     1.003614


                      *****************************
                      * MAYER POPULATION ANALYSIS *
                      *****************************

  NA   - Mulliken gross atomic population
  ZA   - Total nuclear charge
  QA   - Mulliken gross atomic charge
  VA   - Mayer's total valence
  BVA  - Mayer's bonded valence
  FA   - Mayer's free valence

  ATOM       NA         ZA         QA         VA         BVA        FA
  0 C      5.9970     6.0000     0.0030     4.0128     4.0128     0.0000
  1 H      1.0031     1.0000    -0.0031     1.0004     1.0004    -0.0000
  2 C      5.9971     6.0000     0.0029     4.0131     4.0131    -0.0000
  3 H      1.0029     1.0000    -0.0029     1.0004     1.0004    -0.0000
  4 C      5.9966     6.0000     0.0034     4.0120     4.0120    -0.0000
  5 H      1.0033     1.0000    -0.0033     1.0004     1.0004    -0.0000
  6 C      5.9970     6.0000     0.0030     4.0128     4.0128    -0.0000
  7 H      1.0031     1.0000    -0.0031     1.0004     1.0004    -0.0000
  8 C      5.9971     6.0000     0.0029     4.0131     4.0131    -0.0000
  9 H      1.0029     1.0000    -0.0029     1.0004     1.0004    -0.0000
 10 C      5.9967     6.0000     0.0033     4.0120     4.0120    -0.0000
 11 H      1.0033     1.0000    -0.0033     1.0004     1.0004     0.0000

  Mayer bond orders larger than 0.1
B(  0-C ,  1-H ) :   0.3512 B(  0-C ,  2-C ) :   1.7236 B(  0-C ,  6-C ) :   0.1098 
B(  0-C , 10-C ) :   1.7231 B(  1-H ,  3-H ) :   0.2625 B(  1-H , 11-H ) :   0.2631 
B(  2-C ,  3-H ) :   0.3515 B(  2-C ,  4-C ) :   1.7230 B(  2-C ,  8-C ) :   0.1096 
B(  3-H ,  5-H ) :   0.2626 B(  4-C ,  5-H ) :   0.3512 B(  4-C ,  6-C ) :   1.7231 
B(  4-C , 10-C ) :   0.1097 B(  5-H ,  7-H ) :   0.2631 B(  6-C ,  7-H ) :   0.3512 
B(  6-C ,  8-C ) :   1.7236 B(  7-H ,  9-H ) :   0.2625 B(  8-C ,  9-H ) :   0.3515 
B(  8-C , 10-C ) :   1.7230 B(  9-H , 11-H ) :   0.2626 B( 10-C , 11-H ) :   0.3512 


-------
TIMINGS
-------

Total SCF time: 0 days 0 hours 1 min 3 sec 

Total time                  ....      63.732 sec
Sum of individual times     ....      63.532 sec  ( 99.7%)

Fock matrix formation       ....      61.948 sec  ( 97.2%)
  XC integration            ....       4.666 sec  (  7.5% of F)
    Basis function eval.    ....       2.255 sec  ( 48.3% of XC)
    Density eval.           ....       0.391 sec  (  8.4% of XC)
    XC-Functional eval.     ....       0.974 sec  ( 20.9% of XC)
    XC-Potential eval.      ....       0.613 sec  ( 13.1% of XC)
Diagonalization             ....       0.019 sec  (  0.0%)
Density matrix formation    ....       0.002 sec  (  0.0%)
Population analysis         ....       0.012 sec  (  0.0%)
Initial guess               ....       0.392 sec  (  0.6%)
Orbital Transformation      ....       0.000 sec  (  0.0%)
Orbital Orthonormalization  ....       0.000 sec  (  0.0%)
DIIS solution               ....       0.000 sec  (  0.0%)
Grid generation             ....       1.159 sec  (  1.8%)


-------------------------------------------------------------------------------
                          DFT DISPERSION CORRECTION                            
                                                                               
                              DFTD3 V3.1  Rev 1                                
                              USING zero damping                               
-------------------------------------------------------------------------------
The omegaB97X-D3 functional is recognized. Fit by Chai et al.
Active option DFTDOPT                   ...         3   

molecular C6(AA) [au] = 2353.669738 


            DFT-D V3
 parameters
 s6 scaling factor         :     1.0000 
 rs6 scaling factor        :     1.2810 
 s8 scaling factor         :     1.0000 
 rs8 scaling factor        :     1.0940 
 Damping factor alpha6     :    14.0000 
 Damping factor alpha8     :    16.0000 
 ad hoc parameters k1-k3   :    16.0000     1.3333    -4.0000 

 Edisp/kcal,au: -1.751005491649  -0.002790404571 
 E6   /kcal   :  -0.936496149 
 E8   /kcal   :  -0.814509342 
 % E8         :  46.516664056 

-------------------------   ----------------
Dispersion correction           -0.002790405
-------------------------   ----------------


-------------------------   --------------------
FINAL SINGLE POINT ENERGY      -230.735026021262
-------------------------   --------------------


                            ***************************************
                            *     ORCA property calculations      *
                            ***************************************

                                    ---------------------
                                    Active property flags
                                    ---------------------
   (+) Dipole Moment


------------------------------------------------------------------------------
                       ORCA ELECTRIC PROPERTIES CALCULATION
------------------------------------------------------------------------------

Dipole Moment Calculation                       ... on
Quadrupole Moment Calculation                   ... off
Polarizability Calculation                      ... off
GBWName                                         ... Scan_26.gbw
Electron density file                           ... Scan_26.scfp.tmp

-------------
DIPOLE MOMENT
-------------
                                X             Y             Z
Electronic contribution:     -0.00006       0.00015      -0.00000
Nuclear contribution   :      0.00004      -0.00007       0.00000
                        -----------------------------------------
Total Dipole Moment    :     -0.00002       0.00008      -0.00000
                        -----------------------------------------
Magnitude (a.u.)       :      0.00008
Magnitude (Debye)      :      0.00021


Timings for individual modules:

Sum of individual times         ...       64.098 sec (=   1.068 min)
GTO integral calculation        ...        0.341 sec (=   0.006 min)   0.5 %
SCF iterations                  ...       63.756 sec (=   1.063 min)  99.5 %
                             ****ORCA TERMINATED NORMALLY****
TOTAL RUN TIME: 0 days 0 hours 1 minutes 4 seconds 431 msec
