
                                 *****************
                                 * O   R   C   A *
                                 *****************

           --- An Ab Initio, DFT and Semiempirical electronic structure package ---

                  #######################################################
                  #                        -***-                        #
                  #  Department of molecular theory and spectroscopy    #
                  #              Directorship: Frank Neese              #
                  # Max Planck Institute for Chemical Energy Conversion #
                  #                  D-45470 Muelheim/Ruhr              #
                  #                       Germany                       #
                  #                                                     #
                  #                  All rights reserved                #
                  #                        -***-                        #
                  #######################################################


                         Program Version 4.0.0.2 - RELEASE -


 With contributions from (in alphabetic order):
   Daniel Aravena         : Magnetic Properties
   Michael Atanasov       : Ab Initio Ligand Field Theory
   Ute Becker             : Parallelization
   Martin Brehm           : Molecular dynamics
   Dmytro Bykov           : SCF Hessian
   Vijay G. Chilkuri      : MRCI spin determinant printing
   Dipayan Datta          : RHF DLPNO-CCSD density
   Achintya Kumar Dutta   : EOM-CC, STEOM-CC
   Dmitry Ganyushin       : Spin-Orbit,Spin-Spin,Magnetic field MRCI
   Yang Guo               : DLPNO-NEVPT2, CIM, IAO-localization
   Andreas Hansen         : Spin unrestricted coupled pair/coupled cluster methods
   Lee Huntington         : MR-EOM, pCC
   Robert Izsak           : Overlap fitted RIJCOSX, COSX-SCS-MP3, EOM
   Christian Kollmar      : KDIIS, OOCD, Brueckner-CCSD(T), CCSD density
   Simone Kossmann        : Meta GGA functionals, TD-DFT gradient, OOMP2, MP2 Hessian
   Martin Krupicka        : AUTO-CI
   Dagmar Lenk            : GEPOL surface
   Dimitrios Liakos       : Extrapolation schemes; parallel MDCI
   Dimitrios Manganas     : ROCIS; embedding schemes
   Dimitrios Pantazis     : SARC Basis sets
   Taras Petrenko         : DFT Hessian,TD-DFT gradient, ASA, ECA, R-Raman, ABS, FL, XAS/XES, NRVS
   Peter Pinski           : DLPNO-MP2
   Christoph Reimann      : Effective Core Potentials
   Marius Retegan         : Local ZFS, SOC
   Christoph Riplinger    : Optimizer, TS searches, QM/MM, DLPNO-CCSD(T), (RO)-DLPNO pert. Triples
   Tobias Risthaus        : Range-separated hybrids, TD-DFT gradient, RPA, STAB
   Michael Roemelt        : Restricted open shell CIS
   Masaaki Saitow         : Open-shell DLPNO
   Barbara Sandhoefer     : DKH picture change effects
   Kantharuban Sivalingam : CASSCF convergence, NEVPT2, FIC-MRCI
   Georgi Stoychev        : AutoAux
   Boris Wezisla          : Elementary symmetry handling
   Frank Wennmohs         : Technical directorship


 We gratefully acknowledge several colleagues who have allowed us to
 interface, adapt or use parts of their codes:
   Stefan Grimme, W. Hujo, H. Kruse,             : VdW corrections, initial TS optimization,
                  C. Bannwarth                     DFT functionals, gCP, sTDA/sTD-DF
   Ed Valeev                                     : LibInt (2-el integral package), F12 methods
   Garnet Chan, S. Sharma, J. Yang, R. Olivares  : DMRG
   Ulf Ekstrom                                   : XCFun DFT Library
   Mihaly Kallay                                 : mrcc  (arbitrary order and MRCC methods)
   Jiri Pittner, Ondrej Demel                    : Mk-CCSD
   Frank Weinhold                                : gennbo (NPA and NBO analysis)
   Christopher J. Cramer and Donald G. Truhlar   : smd solvation model


 Your calculation uses the libint2 library for the computation of 2-el integrals
 For citations please refer to: http://libint.valeyev.net

 This ORCA versions uses:
   CBLAS   interface :  Fast vector & matrix operations
   LAPACKE interface :  Fast linear algebra routines
   SCALAPACK package :  Parallel linear algebra routines


Your calculation utilizes the atom-pairwise dispersion correction
with the zero-damping scheme (D30)
Cite in your paper:
S.Grimme, J.Antony, S.Ehrlich and H.Krieg, J.Chem.Phys., 132, (2010), 154104 
   

XCFun DFT library Copyright 2009-2010 Ulf Ekstrom and contributors.
See http://admol.org/xcfun for more information. This is free soft-
ware; see the source code for copying conditions. There is ABSOLUTELY
NO WARRANTY; not even for MERCHANTABILITY or FITNESS FOR A PARTICULAR
PURPOSE. For details see the documentation. Scientific users of this 
library should cite U. Ekstrom, L. Visscher, R. Bast, A. J. Thorvald-
sen and K. Ruud; J.Chem.Theor.Comp. 2010, DOI: 10.1021/ct100117s
XCFun Version 0.99 
Your calculation utilizes the basis: 6-31G(d)
   H-He, Li-Ne : W. J. Hehre, R. Ditchfield and J.A. Pople, J. Chem. Phys. 56, 2257 (1972).
                 Note: He and Ne are unpublished basis sets taken from the Gaussian program.
                 Note: Li and B from J. D. Dill and J. A. Pople, J. Chem. Phys. 62, 2921 (1975).
   Na - Ar     : M. M. Francl, W. J. Pietro, W. J. Hehre, J. S. Binkley, M. S. Gordon, 
                 D. J. DeFrees and J. A. Pople, J. Chem. Phys. 77, 3654 (1982).
   K - Zn      : V. A. Rassolov, J. A. Pople, M. A. Ratner, and T. L. Windus, J. Chem. Phys. 109, 1223 (1998).

================================================================================
                                        WARNINGS
                       Please study these warnings very carefully!
================================================================================

Warning: TCutStore was < 0. Adjusted to Thresh (uncritical)

INFO   : the flag for use of LIBINT has been found!

================================================================================
                                       INPUT FILE
================================================================================
NAME = initial28.inp
|  1> ! WB97X-D3 6-31G(d) VerySlowConv
|  2> ! KDIIS NOSOSCF
|  3> %base "Scan_28"
|  4> 
|  5> %scf
|  6> maxiter 999
|  7> end
|  8> 
|  9> * xyz 0 1
| 10> C          1.459511775430   -2.844796533506   -0.000001822948
| 11> H          4.710056165575   -3.093665425278    0.000000591246
| 12> C          0.882852958803   -1.642402634786   -0.000006931332
| 13> H          2.723653404894    1.048215655041    0.000002432130
| 14> C         -0.446784976624   -1.540606976037   -0.000005094932
| 15> H         -1.856543898186    1.398874264313    0.000001738722
| 16> C         -1.199753937730   -2.641216554951    0.000001812770
| 17> H         -4.450300890743   -2.392384290632   -0.000000534142
| 18> C         -0.623083011049   -3.843607588635    0.000006921134
| 19> H         -2.463852074603   -6.534247386317   -0.000002341245
| 20> C          0.706547123183   -3.945395774332    0.000005084283
| 21> H          2.116307361050   -6.884876754881   -0.000001855685
| 22> **                         ****END OF INPUT****
================================================================================

                       ****************************
                       * Single Point Calculation *
                       ****************************

---------------------------------
CARTESIAN COORDINATES (ANGSTROEM)
---------------------------------
  C      1.459512   -2.844797   -0.000002
  H      4.710056   -3.093665    0.000001
  C      0.882853   -1.642403   -0.000007
  H      2.723653    1.048216    0.000002
  C     -0.446785   -1.540607   -0.000005
  H     -1.856544    1.398874    0.000002
  C     -1.199754   -2.641217    0.000002
  H     -4.450301   -2.392384   -0.000001
  C     -0.623083   -3.843608    0.000007
  H     -2.463852   -6.534247   -0.000002
  C      0.706547   -3.945396    0.000005
  H      2.116307   -6.884877   -0.000002

----------------------------
CARTESIAN COORDINATES (A.U.)
----------------------------
  NO LB      ZA    FRAG     MASS         X           Y           Z
   0 C     6.0000    0    12.011    2.758078   -5.375886   -0.000003
   1 H     1.0000    0     1.008    8.900716   -5.846180    0.000001
   2 C     6.0000    0    12.011    1.668350   -3.103691   -0.000013
   3 H     1.0000    0     1.008    5.146959    1.980841    0.000005
   4 C     6.0000    0    12.011   -0.844301   -2.911325   -0.000010
   5 H     1.0000    0     1.008   -3.508360    2.643489    0.000003
   6 C     6.0000    0    12.011   -2.267206   -4.991176    0.000003
   7 H     1.0000    0     1.008   -8.409850   -4.520951   -0.000001
   8 C     6.0000    0    12.011   -1.177456   -7.263366    0.000013
   9 H     1.0000    0     1.008   -4.656006  -12.347938   -0.000004
  10 C     6.0000    0    12.011    1.335181   -7.455718    0.000010
  11 H     1.0000    0     1.008    3.999241  -13.010532   -0.000004

--------------------------------
INTERNAL COORDINATES (ANGSTROEM)
--------------------------------
 C      0   0   0     0.000000000000     0.00000000     0.00000000
 H      1   0   0     3.260057446979     0.00000000     0.00000000
 C      1   2   0     1.333524082459   120.00016680     0.00000000
 H      3   1   2     3.260057217898   119.99979917     0.00000000
 C      3   1   2     1.333528925622   119.99997950   180.00014010
 H      5   3   1     3.260056775478   120.00008167   179.99960788
 C      5   3   1     1.333530540195   119.99955517     0.00000000
 H      7   5   3     3.260057206479   120.00001316   180.00013874
 C      7   5   3     1.333526735986   119.99994295     0.00000000
 H      9   7   5     3.260057248929   119.99994544   180.00053068
 C      1   2   3     1.333519574842   119.99946588   180.00013824
 H     11   1   2     3.260057110440   120.00024231     0.00000000

---------------------------
INTERNAL COORDINATES (A.U.)
---------------------------
 C      0   0   0     0.000000000000     0.00000000     0.00000000
 H      1   0   0     6.160615755640     0.00000000     0.00000000
 C      1   2   0     2.519995308837   120.00016680     0.00000000
 H      3   1   2     6.160615322740   119.99979917     0.00000000
 C      3   1   2     2.520004461087   119.99997950   180.00014010
 H      5   3   1     6.160614486688   120.00008167   179.99960788
 C      5   3   1     2.520007512190   119.99955517     0.00000000
 H      7   5   3     6.160615301161   120.00001316   180.00013874
 C      7   5   3     2.520000323275   119.99994295     0.00000000
 H      9   7   5     6.160615381380   119.99994544   180.00053068
 C      1   2   3     2.519986790675   119.99946588   180.00013824
 H     11   1   2     6.160615119674   120.00024231     0.00000000

---------------------
BASIS SET INFORMATION
---------------------
There are 2 groups of distinct atoms

 Group   1 Type C   : 10s4p1d contracted to 3s2p1d pattern {631/31/1}
 Group   2 Type H   : 4s contracted to 2s pattern {31}

Atom   0C    basis set group =>   1
Atom   1H    basis set group =>   2
Atom   2C    basis set group =>   1
Atom   3H    basis set group =>   2
Atom   4C    basis set group =>   1
Atom   5H    basis set group =>   2
Atom   6C    basis set group =>   1
Atom   7H    basis set group =>   2
Atom   8C    basis set group =>   1
Atom   9H    basis set group =>   2
Atom  10C    basis set group =>   1
Atom  11H    basis set group =>   2
------------------------------------------------------------------------------
                           ORCA GTO INTEGRAL CALCULATION
------------------------------------------------------------------------------

                         BASIS SET STATISTICS AND STARTUP INFO

 # of primitive gaussian shells          ...  114
 # of primitive gaussian functions       ...  186
 # of contracted shells                  ...   48
 # of contracted basis functions         ...   96
 Highest angular momentum                ...    2
 Maximum contraction depth               ...    6
 Integral package used                   ... LIBINT
 Integral threshhold            Thresh   ...  1.000e-10
 Primitive cut-off              TCut     ...  1.000e-11


------------------------------ INTEGRAL EVALUATION ----------------------------


 * One electron integrals 
 Pre-screening matrix                    ... done
 Shell pair data                         ... done (   0.001 sec)

-------------------------------------------------------------------------------
                                 ORCA SCF
-------------------------------------------------------------------------------

------------
SCF SETTINGS
------------
Hamiltonian:
 Density Functional     Method          .... DFT(GTOs)
 Exchange Functional    Exchange        .... WB97X-D3
 Correlation Functional Correlation     .... WB97X-D3
 Gradients option       PostSCFGGA      .... off
 Hybrid DFT is turned on
   Fraction HF Exchange ScalHFX         ....  0.195728
   Scaling of DF-GGA-X  ScalDFX         ....  0.000000
   Scaling of DF-GGA-C  ScalDFC         ....  1.000000
   Scaling of DF-LDA-C  ScalLDAC        ....  1.000000
   Perturbative correction              ....  0.000000
 Long-range corrected/Screened/Range-Separated Hybrid DFT is turned on
   Amount of maximum screened exact exchange              ....  0.804272
   Range separation parameter mu (erf(mu*r12)/r12)        ....  0.250000


General Settings:
 Integral files         IntName         .... Scan_28
 Hartree-Fock type      HFTyp           .... RHF
 Total Charge           Charge          ....    0
 Multiplicity           Mult            ....    1
 Number of Electrons    NEL             ....   42
 Basis Dimension        Dim             ....   96
 Nuclear Repulsion      ENuc            ....    183.3339564552 Eh

Convergence Acceleration:
 DIIS                   CNVDIIS         .... on
   Start iteration      DIISMaxIt       ....     0
   Startup error        DIISStart       ....  0.200000
   # of expansion vecs  DIISMaxEq       ....     5
   Bias factor          DIISBfac        ....   1.050
   Max. coefficient     DIISMaxC        ....  10.000
 Newton-Raphson         CNVNR           .... off
 SOSCF                  CNVSOSCF        .... off
 Level Shifting         CNVShift        .... off
 Zerner damping         CNVZerner       .... off
 Static damping         CNVDamp         .... off
 Fernandez-Rico         CNVRico         .... off

SCF Procedure:
 Maximum # iterations   MaxIter         ....   999
 SCF integral mode      SCFMode         .... Direct
   Integral package                     .... LIBINT
 Reset frequeny         DirectResetFreq ....    20
 Integral Threshold     Thresh          ....  1.000e-10 Eh
 Primitive CutOff       TCut            ....  1.000e-11 Eh

Convergence Tolerance:
 Convergence Check Mode ConvCheckMode   .... All-Criteria
 Convergence forced     ConvForced      .... 0
 Energy Change          TolE            ....  1.000e-06 Eh
 Max Density Change     TolMaxP         ....  1.000e-05
 RMS Density Change     TolRMSP         ....  1.000e-06
 DIIS Error             TolErr          ....  1.000e-06


Diagonalization of the overlap matrix:
Smallest eigenvalue                        ... 1.183e-03
Time for diagonalization                   ...    0.002 sec
Threshold for overlap eigenvalues          ... 1.000e-08
Number of eigenvalues below threshold      ... 0
Time for construction of square roots      ...    0.006 sec
Total time needed                          ...    0.008 sec

-------------------
DFT GRID GENERATION
-------------------

General Integration Accuracy     IntAcc      ...  4.340
Radial Grid Type                 RadialGrid  ... Gauss-Chebyshev
Angular Grid (max. acc.)         AngularGrid ... Lebedev-110
Angular grid pruning method      GridPruning ... 3 (G Style)
Weight generation scheme         WeightScheme... Becke
Basis function cutoff            BFCut       ...    1.0000e-10
Integration weight cutoff        WCut        ...    1.0000e-14
Grids for H and He will be reduced by one unit

# of grid points (after initial pruning)     ...  14700 (   0.0 sec)
# of grid points (after weights+screening)   ...  14066 (   0.0 sec)
nearest neighbour list constructed           ...    0.0 sec
Grid point re-assignment to atoms done       ...    0.0 sec
Grid point division into batches done        ...    0.0 sec
Reduced shell lists constructed in    0.2 sec

Total number of grid points                  ...    14066
Total number of batches                      ...      226
Average number of points per batch           ...       62
Average number of grid points per atom       ...     1172
Average number of shells per batch           ...    31.02 (64.63%)
Average number of basis functions per batch  ...    65.98 (68.73%)
Average number of large shells per batch     ...    23.17 (74.68%)
Average number of large basis fcns per batch ...    51.58 (78.17%)
Maximum spatial batch extension              ...  16.45, 20.22, 25.60 au
Average spatial batch extension              ...   4.05,  4.42,  5.58 au

Time for grid setup =    0.238 sec

------------------------------
INITIAL GUESS: MODEL POTENTIAL
------------------------------
Loading Hartree-Fock densities                     ... done
Calculating cut-offs                               ... done
Setting up the integral package                    ... done
Initializing the effective Hamiltonian             ... done
Starting the Coulomb interaction                   ... done (   0.1 sec)
Reading the grid                                   ... done
Mapping shells                                     ... done
Starting the XC term evaluation                    ... done (   0.2 sec)
  promolecular density results
     # of electrons  =     41.994905443
     EX              =    -32.045626817
     EC              =     -1.260228759
     EX+EC           =    -33.305855575
Transforming the Hamiltonian                       ... done (   0.0 sec)
Diagonalizing the Hamiltonian                      ... done (   0.0 sec)
Back transforming the eigenvectors                 ... done (   0.0 sec)
Now organizing SCF variables                       ... done
                      ------------------
                      INITIAL GUESS DONE (   0.6 sec)
                      ------------------
--------------
SCF ITERATIONS
--------------
ITER       Energy         Delta-E        Max-DP      RMS-DP      [F,P]   Gradient Norm
               ***  Starting incremental Fock matrix formation  ***
                             ****Resetting KDIIS****
                             ****Turning on KDIIS(Cayley)****
  0   -230.0391796041   0.000000000000 0.02717590  0.00209633  0.2131558   0.119790155
  1   -230.1658486439  -0.126669039754 0.03577854  0.00301697  0.1999387   0.101714903
  2   -230.3418122700  -0.175963626156 0.07588628  0.00536100  0.1745413   0.079045537
  3   -230.5848359600  -0.243023689922 0.13428748  0.00842557  0.1013885   0.038446812
  4   -230.5946633547  -0.009827394683 0.08750979  0.00508342  0.0852592   0.040292395
  5   -230.6497047346  -0.055041379946 0.00560687  0.00042050  0.0553563   0.013238552
  6   -230.6514793729  -0.001774638258 0.02599182  0.00201452  0.0499116   0.011875545
  7   -230.6621936628  -0.010714289985 0.01349270  0.00094040  0.0390281   0.009576717
  8   -230.6658169350  -0.003623272112 0.00692105  0.00062122  0.0296069   0.007137167
  9   -230.6669749617  -0.001158026792 0.01175782  0.00094963  0.0254621   0.007595968
 10   -230.6718219707  -0.004847008906 0.02480307  0.00230768  0.0211731   0.008140906
 11   -230.6816203497  -0.009798379008 0.01915473  0.00182864  0.0161353   0.009872701
 12   -230.6874630742  -0.005842724508 0.02337576  0.00159932  0.0050398   0.003141415
 13   -230.6899372507  -0.002474176562 0.00742910  0.00050430  0.0053025   0.003196872
 14   -230.6901938733  -0.000256622617 0.01110320  0.00069440  0.0033019   0.002761813
 15   -230.6906287578  -0.000434884426 0.00070995  0.00004663  0.0003099   0.000198286
 16   -230.6906311555  -0.000002397752 0.00043349  0.00002759  0.0001441   0.000133503
                          ***Energy convergence achieved***
 17   -230.6906318754  -0.000000719873 0.00016535  0.00000899  0.0000844   0.000067923

            ***Energy convergence in two consecutive cycles with***
                    ***'reasonable' density convergence***
                       *** signaling convergence ***

                    *** KDIIS BlockDiag ( 0.001 sec) ***

               *****************************************************
               *                     SUCCESS                       *
               *           SCF CONVERGED AFTER  18 CYCLES          *
               *****************************************************

Setting up the final grid:

General Integration Accuracy     IntAcc      ...  4.670
Radial Grid Type                 RadialGrid  ... Gauss-Chebyshev
Angular Grid (max. acc.)         AngularGrid ... Lebedev-302
Angular grid pruning method      GridPruning ... 3 (G Style)
Weight generation scheme         WeightScheme... Becke
Basis function cutoff            BFCut       ...    1.0000e-10
Integration weight cutoff        WCut        ...    1.0000e-14
Grids for H and He will be reduced by one unit

# of grid points (after initial pruning)     ...  57636 (   0.0 sec)
# of grid points (after weights+screening)   ...  54792 (   0.1 sec)
nearest neighbour list constructed           ...    0.0 sec
Grid point re-assignment to atoms done       ...    0.0 sec
Grid point division into batches done        ...    0.2 sec
Reduced shell lists constructed in    0.7 sec

Total number of grid points                  ...    54792
Total number of batches                      ...      862
Average number of points per batch           ...       63
Average number of grid points per atom       ...     4566
Average number of shells per batch           ...    27.22 (56.70%)
Average number of basis functions per batch  ...    57.83 (60.24%)
Average number of large shells per batch     ...    19.72 (72.46%)
Average number of large basis fcns per batch ...    43.36 (74.98%)
Maximum spatial batch extension              ...  15.29, 17.08, 18.01 au
Average spatial batch extension              ...   2.78,  2.83,  3.17 au

Final grid set up in    0.8 sec
Final integration                            ... done (   0.7 sec)
Change in XC energy                          ...     0.000943557
Integrated number of electrons               ...    41.999983854
Previous integrated no of electrons          ...    41.998509040

----------------
TOTAL SCF ENERGY
----------------

Total Energy       :         -230.68968839 Eh           -6277.38556 eV

Components:
Nuclear Repulsion  :          183.33395646 Eh            4988.77058 eV
Electronic Energy  :         -414.02364484 Eh          -11266.15614 eV
One Electron Energy:         -671.30360061 Eh          -18267.09965 eV
Two Electron Energy:          257.27995577 Eh            7000.94352 eV

Virial components:
Potential Energy   :         -459.30823060 Eh          -12498.41236 eV
Kinetic Energy     :          228.61854221 Eh            6221.02680 eV
Virial Ratio       :            2.00905940


DFT components:
N(Alpha)           :       20.999991926796 electrons
N(Beta)            :       20.999991926796 electrons
N(Total)           :       41.999983853593 electrons
E(XC)              :      -22.937650287512 Eh       

---------------
SCF CONVERGENCE
---------------

  Last Energy change         ...   -6.8743e-08  Tolerance :   1.0000e-06
  Last MAX-Density change    ...    9.8176e-05  Tolerance :   1.0000e-05
  Last RMS-Density change    ...    5.5279e-06  Tolerance :   1.0000e-06
  Last DIIS Error            ...    5.2407e-05  Tolerance :   1.0000e-06

             **** THE GBW FILE WAS UPDATED (Scan_28.gbw) ****
             **** DENSITY FILE WAS UPDATED (Scan_28.scfp.tmp) ****
             **** ENERGY FILE WAS UPDATED (Scan_28.en.tmp) ****
----------------
ORBITAL ENERGIES
----------------

  NO   OCC          E(Eh)            E(eV) 
   0   2.0000     -10.384455      -282.5754 
   1   2.0000     -10.384102      -282.5658 
   2   2.0000     -10.384001      -282.5630 
   3   2.0000     -10.383296      -282.5438 
   4   2.0000     -10.383196      -282.5411 
   5   2.0000     -10.382834      -282.5313 
   6   2.0000      -1.047833       -28.5130 
   7   2.0000      -0.901219       -24.5234 
   8   2.0000      -0.901170       -24.5221 
   9   2.0000      -0.715240       -19.4627 
  10   2.0000      -0.715052       -19.4575 
  11   2.0000      -0.614622       -16.7247 
  12   2.0000      -0.540752       -14.7146 
  13   2.0000      -0.531111       -14.4523 
  14   2.0000      -0.395119       -10.7517 
  15   2.0000      -0.394882       -10.7453 
  16   2.0000      -0.370849       -10.0913 
  17   2.0000      -0.370536       -10.0828 
  18   2.0000      -0.305955        -8.3254 
  19   2.0000      -0.286914        -7.8073 
  20   2.0000      -0.286866        -7.8060 
  21   0.0000      -0.171173        -4.6579 
  22   0.0000      -0.171066        -4.6549 
  23   0.0000      -0.167130        -4.5478 
  24   0.0000      -0.085723        -2.3326 
  25   0.0000      -0.029506        -0.8029 
  26   0.0000      -0.029047        -0.7904 
  27   0.0000       0.053090         1.4447 
  28   0.0000       0.053137         1.4459 
  29   0.0000       0.261329         7.1111 
  30   0.0000       0.363328         9.8867 
  31   0.0000       0.363456         9.8901 
  32   0.0000       0.483800        13.1649 
  33   0.0000       0.484281        13.1780 
  34   0.0000       0.545309        14.8386 
  35   0.0000       0.546664        14.8755 
  36   0.0000       0.559888        15.2353 
  37   0.0000       0.566798        15.4234 
  38   0.0000       0.567076        15.4309 
  39   0.0000       0.572060        15.5666 
  40   0.0000       0.641565        17.4579 
  41   0.0000       0.641829        17.4651 
  42   0.0000       0.651701        17.7337 
  43   0.0000       0.651832        17.7372 
  44   0.0000       0.662749        18.0343 
  45   0.0000       0.739301        20.1174 
  46   0.0000       0.739419        20.1206 
  47   0.0000       0.746888        20.3239 
  48   0.0000       0.767564        20.8865 
  49   0.0000       0.767702        20.8902 
  50   0.0000       0.808499        22.0004 
  51   0.0000       0.808801        22.0086 
  52   0.0000       0.839124        22.8337 
  53   0.0000       0.843418        22.9506 
  54   0.0000       0.892798        24.2943 
  55   0.0000       0.919356        25.0169 
  56   0.0000       0.919630        25.0244 
  57   0.0000       0.929045        25.2806 
  58   0.0000       0.929304        25.2876 
  59   0.0000       0.931771        25.3548 
  60   0.0000       1.066282        29.0150 
  61   0.0000       1.067064        29.0363 
  62   0.0000       1.113093        30.2888 
  63   0.0000       1.240751        33.7626 
  64   0.0000       1.240928        33.7674 
  65   0.0000       1.296336        35.2751 
  66   0.0000       1.366418        37.1821 
  67   0.0000       1.431973        38.9660 
  68   0.0000       1.559818        42.4448 
  69   0.0000       1.560290        42.4576 
  70   0.0000       1.587015        43.1849 
  71   0.0000       1.589522        43.2531 
  72   0.0000       1.589915        43.2638 
  73   0.0000       1.781413        48.4747 
  74   0.0000       1.782281        48.4983 
  75   0.0000       1.870510        50.8992 
  76   0.0000       1.901713        51.7482 
  77   0.0000       2.194462        59.7143 
  78   0.0000       2.194912        59.7266 
  79   0.0000       2.258059        61.4449 
  80   0.0000       2.258398        61.4541 
  81   0.0000       2.262011        61.5524 
  82   0.0000       2.263053        61.5808 
  83   0.0000       2.409915        65.5771 
  84   0.0000       2.410483        65.5926 
  85   0.0000       2.478006        67.4300 
  86   0.0000       2.481522        67.5256 
  87   0.0000       2.482486        67.5519 
  88   0.0000       2.566383        69.8348 
  89   0.0000       2.801908        76.2438 
  90   0.0000       2.803324        76.2823 
  91   0.0000       2.822114        76.7936 
  92   0.0000       2.874966        78.2318 
  93   0.0000       2.875844        78.2557 
  94   0.0000       3.177919        86.4756 
  95   0.0000       3.470830        94.4461 

                    ********************************
                    * MULLIKEN POPULATION ANALYSIS *
                    ********************************

-----------------------
MULLIKEN ATOMIC CHARGES
-----------------------
   0 C :    0.004890
   1 H :   -0.004628
   2 C :    0.005265
   3 H :   -0.004938
   4 C :    0.004866
   5 H :   -0.005739
   6 C :    0.004859
   7 H :   -0.004625
   8 C :    0.005567
   9 H :   -0.004956
  10 C :    0.005201
  11 H :   -0.005760
Sum of atomic charges:   -0.0000000

--------------------------------
MULLIKEN REDUCED ORBITAL CHARGES
--------------------------------
  0 C s       :     3.132485  s :     3.132485
      pz      :     0.987523  p :     2.826742
      px      :     0.961747
      py      :     0.877472
      dz2     :     0.002591  d :     0.035883
      dxz     :     0.003839
      dyz     :     0.008311
      dx2y2   :     0.008890
      dxy     :     0.012252
  1 H s       :     1.004628  s :     1.004628
  2 C s       :     3.132469  s :     3.132469
      pz      :     0.988184  p :     2.826375
      px      :     0.903487
      py      :     0.934704
      dz2     :     0.002557  d :     0.035891
      dxz     :     0.006914
      dyz     :     0.005281
      dx2y2   :     0.011912
      dxy     :     0.009227
  3 H s       :     1.004938  s :     1.004938
  4 C s       :     3.133277  s :     3.133277
      pz      :     0.987882  p :     2.825902
      px      :     0.893828
      py      :     0.944192
      dz2     :     0.002588  d :     0.035956
      dxz     :     0.007508
      dyz     :     0.004663
      dx2y2   :     0.010971
      dxy     :     0.010227
  5 H s       :     1.005739  s :     1.005739
  6 C s       :     3.132494  s :     3.132494
      pz      :     0.987531  p :     2.826765
      px      :     0.961761
      py      :     0.877472
      dz2     :     0.002591  d :     0.035883
      dxz     :     0.003839
      dyz     :     0.008311
      dx2y2   :     0.008890
      dxy     :     0.012252
  7 H s       :     1.004625  s :     1.004625
  8 C s       :     3.132425  s :     3.132425
      pz      :     0.988084  p :     2.826124
      px      :     0.903425
      py      :     0.934615
      dz2     :     0.002557  d :     0.035885
      dxz     :     0.006912
      dyz     :     0.005280
      dx2y2   :     0.011910
      dxy     :     0.009226
  9 H s       :     1.004956  s :     1.004956
 10 C s       :     3.133222  s :     3.133222
      pz      :     0.987770  p :     2.825627
      px      :     0.893771
      py      :     0.944086
      dz2     :     0.002588  d :     0.035950
      dxz     :     0.007505
      dyz     :     0.004662
      dx2y2   :     0.010969
      dxy     :     0.010226
 11 H s       :     1.005760  s :     1.005760


                     *******************************
                     * LOEWDIN POPULATION ANALYSIS *
                     *******************************

----------------------
LOEWDIN ATOMIC CHARGES
----------------------
   0 C :    0.005742
   1 H :   -0.005432
   2 C :    0.005898
   3 H :   -0.005742
   4 C :    0.005824
   5 H :   -0.006541
   6 C :    0.005715
   7 H :   -0.005429
   8 C :    0.006166
   9 H :   -0.005759
  10 C :    0.006119
  11 H :   -0.006561

-------------------------------
LOEWDIN REDUCED ORBITAL CHARGES
-------------------------------
  0 C s       :     2.944866  s :     2.944866
      pz      :     0.976645  p :     2.967858
      px      :     0.954543
      py      :     1.036670
      dz2     :     0.006058  d :     0.081534
      dxz     :     0.005190
      dyz     :     0.017927
      dx2y2   :     0.016861
      dxy     :     0.035496
  1 H s       :     1.005432  s :     1.005432
  2 C s       :     2.944978  s :     2.944978
      pz      :     0.977173  p :     2.967545
      px      :     1.010495
      py      :     0.979877
      dz2     :     0.006036  d :     0.081580
      dxz     :     0.013918
      dyz     :     0.009245
      dx2y2   :     0.033451
      dxy     :     0.018930
  3 H s       :     1.005742  s :     1.005742
  4 C s       :     2.945187  s :     2.945187
      pz      :     0.976869  p :     2.967403
      px      :     1.022453
      py      :     0.968080
      dz2     :     0.006055  d :     0.081585
      dxz     :     0.015609
      dyz     :     0.007522
      dx2y2   :     0.028335
      dxy     :     0.024065
  5 H s       :     1.006541  s :     1.006541
  6 C s       :     2.944873  s :     2.944873
      pz      :     0.976653  p :     2.967879
      px      :     0.954559
      py      :     1.036667
      dz2     :     0.006058  d :     0.081533
      dxz     :     0.005191
      dyz     :     0.017927
      dx2y2   :     0.016860
      dxy     :     0.035497
  7 H s       :     1.005429  s :     1.005429
  8 C s       :     2.944947  s :     2.944947
      pz      :     0.977080  p :     2.967316
      px      :     1.010433
      py      :     0.979803
      dz2     :     0.006035  d :     0.081571
      dxz     :     0.013914
      dyz     :     0.009244
      dx2y2   :     0.033447
      dxy     :     0.018929
  9 H s       :     1.005759  s :     1.005759
 10 C s       :     2.945150  s :     2.945150
      pz      :     0.976766  p :     2.967154
      px      :     1.022402
      py      :     0.967986
      dz2     :     0.006055  d :     0.081577
      dxz     :     0.015605
      dyz     :     0.007522
      dx2y2   :     0.028332
      dxy     :     0.024064
 11 H s       :     1.006561  s :     1.006561


                      *****************************
                      * MAYER POPULATION ANALYSIS *
                      *****************************

  NA   - Mulliken gross atomic population
  ZA   - Total nuclear charge
  QA   - Mulliken gross atomic charge
  VA   - Mayer's total valence
  BVA  - Mayer's bonded valence
  FA   - Mayer's free valence

  ATOM       NA         ZA         QA         VA         BVA        FA
  0 C      5.9951     6.0000     0.0049     4.0196     4.0196    -0.0000
  1 H      1.0046     1.0000    -0.0046     1.0005     1.0005    -0.0000
  2 C      5.9947     6.0000     0.0053     4.0193     4.0193    -0.0000
  3 H      1.0049     1.0000    -0.0049     1.0005     1.0005     0.0000
  4 C      5.9951     6.0000     0.0049     4.0188     4.0188     0.0000
  5 H      1.0057     1.0000    -0.0057     1.0005     1.0005     0.0000
  6 C      5.9951     6.0000     0.0049     4.0196     4.0196    -0.0000
  7 H      1.0046     1.0000    -0.0046     1.0005     1.0005     0.0000
  8 C      5.9944     6.0000     0.0056     4.0193     4.0193    -0.0000
  9 H      1.0050     1.0000    -0.0050     1.0005     1.0005    -0.0000
 10 C      5.9948     6.0000     0.0052     4.0188     4.0188    -0.0000
 11 H      1.0058     1.0000    -0.0058     1.0005     1.0005    -0.0000

  Mayer bond orders larger than 0.1
B(  0-C ,  1-H ) :   0.2292 B(  0-C ,  2-C ) :   1.7834 B(  0-C ,  6-C ) :   0.1220 
B(  0-C , 10-C ) :   1.7832 B(  1-H ,  3-H ) :   0.3257 B(  1-H , 11-H ) :   0.3262 
B(  2-C ,  3-H ) :   0.2297 B(  2-C ,  4-C ) :   1.7825 B(  2-C ,  8-C ) :   0.1217 
B(  3-H ,  5-H ) :   0.3254 B(  4-C ,  5-H ) :   0.2296 B(  4-C ,  6-C ) :   1.7832 
B(  4-C , 10-C ) :   0.1217 B(  5-H ,  7-H ) :   0.3262 B(  6-C ,  7-H ) :   0.2292 
B(  6-C ,  8-C ) :   1.7834 B(  7-H ,  9-H ) :   0.3257 B(  8-C ,  9-H ) :   0.2297 
B(  8-C , 10-C ) :   1.7825 B(  9-H , 11-H ) :   0.3254 B( 10-C , 11-H ) :   0.2296 


-------
TIMINGS
-------

Total SCF time: 0 days 0 hours 1 min 1 sec 

Total time                  ....      61.685 sec
Sum of individual times     ....      61.459 sec  ( 99.6%)

Fock matrix formation       ....      60.025 sec  ( 97.3%)
  XC integration            ....       4.557 sec  (  7.6% of F)
    Basis function eval.    ....       2.147 sec  ( 47.1% of XC)
    Density eval.           ....       0.349 sec  (  7.7% of XC)
    XC-Functional eval.     ....       0.962 sec  ( 21.1% of XC)
    XC-Potential eval.      ....       0.590 sec  ( 12.9% of XC)
Diagonalization             ....       0.020 sec  (  0.0%)
Density matrix formation    ....       0.002 sec  (  0.0%)
Population analysis         ....       0.012 sec  (  0.0%)
Initial guess               ....       0.347 sec  (  0.6%)
Orbital Transformation      ....       0.000 sec  (  0.0%)
Orbital Orthonormalization  ....       0.000 sec  (  0.0%)
DIIS solution               ....       0.000 sec  (  0.0%)
Grid generation             ....       1.052 sec  (  1.7%)


-------------------------------------------------------------------------------
                          DFT DISPERSION CORRECTION                            
                                                                               
                              DFTD3 V3.1  Rev 1                                
                              USING zero damping                               
-------------------------------------------------------------------------------
The omegaB97X-D3 functional is recognized. Fit by Chai et al.
Active option DFTDOPT                   ...         3   

molecular C6(AA) [au] = 2353.740768 


            DFT-D V3
 parameters
 s6 scaling factor         :     1.0000 
 rs6 scaling factor        :     1.2810 
 s8 scaling factor         :     1.0000 
 rs8 scaling factor        :     1.0940 
 Damping factor alpha6     :    14.0000 
 Damping factor alpha8     :    16.0000 
 ad hoc parameters k1-k3   :    16.0000     1.3333    -4.0000 

 Edisp/kcal,au: -1.508914573534  -0.002404608177 
 E6   /kcal   :  -0.867695539 
 E8   /kcal   :  -0.641219034 
 % E8         :  42.495383483 

-------------------------   ----------------
Dispersion correction           -0.002404608
-------------------------   ----------------


-------------------------   --------------------
FINAL SINGLE POINT ENERGY      -230.692092995148
-------------------------   --------------------


                            ***************************************
                            *     ORCA property calculations      *
                            ***************************************

                                    ---------------------
                                    Active property flags
                                    ---------------------
   (+) Dipole Moment


------------------------------------------------------------------------------
                       ORCA ELECTRIC PROPERTIES CALCULATION
------------------------------------------------------------------------------

Dipole Moment Calculation                       ... on
Quadrupole Moment Calculation                   ... off
Polarizability Calculation                      ... off
GBWName                                         ... Scan_28.gbw
Electron density file                           ... Scan_28.scfp.tmp

-------------
DIPOLE MOMENT
-------------
                                X             Y             Z
Electronic contribution:     -0.00003      -0.00105      -0.00000
Nuclear contribution   :      0.00003      -0.00005       0.00000
                        -----------------------------------------
Total Dipole Moment    :      0.00000      -0.00110       0.00000
                        -----------------------------------------
Magnitude (a.u.)       :      0.00110
Magnitude (Debye)      :      0.00279


Timings for individual modules:

Sum of individual times         ...       62.030 sec (=   1.034 min)
GTO integral calculation        ...        0.323 sec (=   0.005 min)   0.5 %
SCF iterations                  ...       61.707 sec (=   1.028 min)  99.5 %
                             ****ORCA TERMINATED NORMALLY****
TOTAL RUN TIME: 0 days 0 hours 1 minutes 2 seconds 347 msec
