
                                 *****************
                                 * O   R   C   A *
                                 *****************

           --- An Ab Initio, DFT and Semiempirical electronic structure package ---

                  #######################################################
                  #                        -***-                        #
                  #  Department of molecular theory and spectroscopy    #
                  #              Directorship: Frank Neese              #
                  # Max Planck Institute for Chemical Energy Conversion #
                  #                  D-45470 Muelheim/Ruhr              #
                  #                       Germany                       #
                  #                                                     #
                  #                  All rights reserved                #
                  #                        -***-                        #
                  #######################################################


                         Program Version 4.0.0.2 - RELEASE -


 With contributions from (in alphabetic order):
   Daniel Aravena         : Magnetic Properties
   Michael Atanasov       : Ab Initio Ligand Field Theory
   Ute Becker             : Parallelization
   Martin Brehm           : Molecular dynamics
   Dmytro Bykov           : SCF Hessian
   Vijay G. Chilkuri      : MRCI spin determinant printing
   Dipayan Datta          : RHF DLPNO-CCSD density
   Achintya Kumar Dutta   : EOM-CC, STEOM-CC
   Dmitry Ganyushin       : Spin-Orbit,Spin-Spin,Magnetic field MRCI
   Yang Guo               : DLPNO-NEVPT2, CIM, IAO-localization
   Andreas Hansen         : Spin unrestricted coupled pair/coupled cluster methods
   Lee Huntington         : MR-EOM, pCC
   Robert Izsak           : Overlap fitted RIJCOSX, COSX-SCS-MP3, EOM
   Christian Kollmar      : KDIIS, OOCD, Brueckner-CCSD(T), CCSD density
   Simone Kossmann        : Meta GGA functionals, TD-DFT gradient, OOMP2, MP2 Hessian
   Martin Krupicka        : AUTO-CI
   Dagmar Lenk            : GEPOL surface
   Dimitrios Liakos       : Extrapolation schemes; parallel MDCI
   Dimitrios Manganas     : ROCIS; embedding schemes
   Dimitrios Pantazis     : SARC Basis sets
   Taras Petrenko         : DFT Hessian,TD-DFT gradient, ASA, ECA, R-Raman, ABS, FL, XAS/XES, NRVS
   Peter Pinski           : DLPNO-MP2
   Christoph Reimann      : Effective Core Potentials
   Marius Retegan         : Local ZFS, SOC
   Christoph Riplinger    : Optimizer, TS searches, QM/MM, DLPNO-CCSD(T), (RO)-DLPNO pert. Triples
   Tobias Risthaus        : Range-separated hybrids, TD-DFT gradient, RPA, STAB
   Michael Roemelt        : Restricted open shell CIS
   Masaaki Saitow         : Open-shell DLPNO
   Barbara Sandhoefer     : DKH picture change effects
   Kantharuban Sivalingam : CASSCF convergence, NEVPT2, FIC-MRCI
   Georgi Stoychev        : AutoAux
   Boris Wezisla          : Elementary symmetry handling
   Frank Wennmohs         : Technical directorship


 We gratefully acknowledge several colleagues who have allowed us to
 interface, adapt or use parts of their codes:
   Stefan Grimme, W. Hujo, H. Kruse,             : VdW corrections, initial TS optimization,
                  C. Bannwarth                     DFT functionals, gCP, sTDA/sTD-DF
   Ed Valeev                                     : LibInt (2-el integral package), F12 methods
   Garnet Chan, S. Sharma, J. Yang, R. Olivares  : DMRG
   Ulf Ekstrom                                   : XCFun DFT Library
   Mihaly Kallay                                 : mrcc  (arbitrary order and MRCC methods)
   Jiri Pittner, Ondrej Demel                    : Mk-CCSD
   Frank Weinhold                                : gennbo (NPA and NBO analysis)
   Christopher J. Cramer and Donald G. Truhlar   : smd solvation model


 Your calculation uses the libint2 library for the computation of 2-el integrals
 For citations please refer to: http://libint.valeyev.net

 This ORCA versions uses:
   CBLAS   interface :  Fast vector & matrix operations
   LAPACKE interface :  Fast linear algebra routines
   SCALAPACK package :  Parallel linear algebra routines


Your calculation utilizes the atom-pairwise dispersion correction
with the zero-damping scheme (D30)
Cite in your paper:
S.Grimme, J.Antony, S.Ehrlich and H.Krieg, J.Chem.Phys., 132, (2010), 154104 
   

XCFun DFT library Copyright 2009-2010 Ulf Ekstrom and contributors.
See http://admol.org/xcfun for more information. This is free soft-
ware; see the source code for copying conditions. There is ABSOLUTELY
NO WARRANTY; not even for MERCHANTABILITY or FITNESS FOR A PARTICULAR
PURPOSE. For details see the documentation. Scientific users of this 
library should cite U. Ekstrom, L. Visscher, R. Bast, A. J. Thorvald-
sen and K. Ruud; J.Chem.Theor.Comp. 2010, DOI: 10.1021/ct100117s
XCFun Version 0.99 
Your calculation utilizes the basis: 6-31G(d)
   H-He, Li-Ne : W. J. Hehre, R. Ditchfield and J.A. Pople, J. Chem. Phys. 56, 2257 (1972).
                 Note: He and Ne are unpublished basis sets taken from the Gaussian program.
                 Note: Li and B from J. D. Dill and J. A. Pople, J. Chem. Phys. 62, 2921 (1975).
   Na - Ar     : M. M. Francl, W. J. Pietro, W. J. Hehre, J. S. Binkley, M. S. Gordon, 
                 D. J. DeFrees and J. A. Pople, J. Chem. Phys. 77, 3654 (1982).
   K - Zn      : V. A. Rassolov, J. A. Pople, M. A. Ratner, and T. L. Windus, J. Chem. Phys. 109, 1223 (1998).

================================================================================
                                        WARNINGS
                       Please study these warnings very carefully!
================================================================================

Warning: TCutStore was < 0. Adjusted to Thresh (uncritical)

INFO   : the flag for use of LIBINT has been found!

================================================================================
                                       INPUT FILE
================================================================================
NAME = initial30.inp
|  1> ! WB97X-D3 6-31G(d) VerySlowConv
|  2> ! KDIIS NOSOSCF
|  3> %base "Scan_30"
|  4> 
|  5> %scf
|  6> maxiter 999
|  7> end
|  8> 
|  9> * xyz 0 1
| 10> C          1.459463564031   -2.844776257367   -0.000002033876
| 11> H          4.914601874160   -3.109338405729    0.000000679782
| 12> C          0.882806153724   -1.642427750294   -0.000010238748
| 13> H          2.839507096776    1.217518735416    0.000003493838
| 14> C         -0.446772106419   -1.540649608835   -0.000008161494
| 15> H         -1.945253233486    1.583854342135    0.000002709712
| 16> C         -1.199701260937   -2.641205230983    0.000002021552
| 17> H         -4.654847067770   -2.376739354902   -0.000000619992
| 18> C         -0.623073547988   -3.843558280660    0.000010226037
| 19> H         -2.579673521147   -6.703573788143   -0.000003395670
| 20> C          0.706523936258   -3.945360846675    0.000008148988
| 21> H          2.205028112797   -7.069853553963   -0.000002830130
| 22> **                         ****END OF INPUT****
================================================================================

                       ****************************
                       * Single Point Calculation *
                       ****************************

---------------------------------
CARTESIAN COORDINATES (ANGSTROEM)
---------------------------------
  C      1.459464   -2.844776   -0.000002
  H      4.914602   -3.109338    0.000001
  C      0.882806   -1.642428   -0.000010
  H      2.839507    1.217519    0.000003
  C     -0.446772   -1.540650   -0.000008
  H     -1.945253    1.583854    0.000003
  C     -1.199701   -2.641205    0.000002
  H     -4.654847   -2.376739   -0.000001
  C     -0.623074   -3.843558    0.000010
  H     -2.579674   -6.703574   -0.000003
  C      0.706524   -3.945361    0.000008
  H      2.205028   -7.069854   -0.000003

----------------------------
CARTESIAN COORDINATES (A.U.)
----------------------------
  NO LB      ZA    FRAG     MASS         X           Y           Z
   0 C     6.0000    0    12.011    2.757986   -5.375848   -0.000004
   1 H     1.0000    0     1.008    9.287252   -5.875798    0.000001
   2 C     6.0000    0    12.011    1.668262   -3.103739   -0.000019
   3 H     1.0000    0     1.008    5.365891    2.300777    0.000007
   4 C     6.0000    0    12.011   -0.844277   -2.911406   -0.000015
   5 H     1.0000    0     1.008   -3.675996    2.993051    0.000005
   6 C     6.0000    0    12.011   -2.267107   -4.991155    0.000004
   7 H     1.0000    0     1.008   -8.796386   -4.491386   -0.000001
   8 C     6.0000    0    12.011   -1.177438   -7.263273    0.000019
   9 H     1.0000    0     1.008   -4.874876  -12.667919   -0.000006
  10 C     6.0000    0    12.011    1.335137   -7.455651    0.000015
  11 H     1.0000    0     1.008    4.166899  -13.360087   -0.000005

--------------------------------
INTERNAL COORDINATES (ANGSTROEM)
--------------------------------
 C      0   0   0     0.000000000000     0.00000000     0.00000000
 H      1   0   0     3.465252353361     0.00000000     0.00000000
 C      1   2   0     1.333482546339   120.00143533     0.00000000
 H      3   1   2     3.465252152709   119.99827699     0.00000000
 C      3   1   2     1.333468087330   120.00021366   180.00015486
 H      5   3   1     3.465251885206   119.99932325   179.99938537
 C      5   3   1     1.333463531286   120.00000734     0.00000000
 H      7   5   3     3.465252479415   120.00038229   180.00015350
 C      7   5   3     1.333473800071   120.00101394     0.00000000
 H      9   7   5     3.465252106008   120.00153419   180.00076531
 C      9   7   5     1.333489119777   119.99996206     0.00000000
 H     11   9   7     3.465251714540   120.00073061   180.00061668

---------------------------
INTERNAL COORDINATES (A.U.)
---------------------------
 C      0   0   0     0.000000000000     0.00000000     0.00000000
 H      1   0   0     6.548377932779     0.00000000     0.00000000
 C      1   2   0     2.519916816944   120.00143533     0.00000000
 H      3   1   2     6.548377553601   119.99827699     0.00000000
 C      3   1   2     2.519889493378   120.00021366   180.00015486
 H      5   3   1     6.548377048093   119.99932325   179.99938537
 C      5   3   1     2.519880883701   120.00000734     0.00000000
 H      7   5   3     6.548378170987   120.00038229   180.00015350
 C      7   5   3     2.519900288893   120.00101394     0.00000000
 H      9   7   5     6.548377465349   120.00153419   180.00076531
 C      9   7   5     2.519929238943   119.99996206     0.00000000
 H     11   9   7     6.548376725581   120.00073061   180.00061668

---------------------
BASIS SET INFORMATION
---------------------
There are 2 groups of distinct atoms

 Group   1 Type C   : 10s4p1d contracted to 3s2p1d pattern {631/31/1}
 Group   2 Type H   : 4s contracted to 2s pattern {31}

Atom   0C    basis set group =>   1
Atom   1H    basis set group =>   2
Atom   2C    basis set group =>   1
Atom   3H    basis set group =>   2
Atom   4C    basis set group =>   1
Atom   5H    basis set group =>   2
Atom   6C    basis set group =>   1
Atom   7H    basis set group =>   2
Atom   8C    basis set group =>   1
Atom   9H    basis set group =>   2
Atom  10C    basis set group =>   1
Atom  11H    basis set group =>   2
------------------------------------------------------------------------------
                           ORCA GTO INTEGRAL CALCULATION
------------------------------------------------------------------------------

                         BASIS SET STATISTICS AND STARTUP INFO

 # of primitive gaussian shells          ...  114
 # of primitive gaussian functions       ...  186
 # of contracted shells                  ...   48
 # of contracted basis functions         ...   96
 Highest angular momentum                ...    2
 Maximum contraction depth               ...    6
 Integral package used                   ... LIBINT
 Integral threshhold            Thresh   ...  1.000e-10
 Primitive cut-off              TCut     ...  1.000e-11


------------------------------ INTEGRAL EVALUATION ----------------------------


 * One electron integrals 
 Pre-screening matrix                    ... done
 Shell pair data                         ... done (   0.001 sec)

-------------------------------------------------------------------------------
                                 ORCA SCF
-------------------------------------------------------------------------------

------------
SCF SETTINGS
------------
Hamiltonian:
 Density Functional     Method          .... DFT(GTOs)
 Exchange Functional    Exchange        .... WB97X-D3
 Correlation Functional Correlation     .... WB97X-D3
 Gradients option       PostSCFGGA      .... off
 Hybrid DFT is turned on
   Fraction HF Exchange ScalHFX         ....  0.195728
   Scaling of DF-GGA-X  ScalDFX         ....  0.000000
   Scaling of DF-GGA-C  ScalDFC         ....  1.000000
   Scaling of DF-LDA-C  ScalLDAC        ....  1.000000
   Perturbative correction              ....  0.000000
 Long-range corrected/Screened/Range-Separated Hybrid DFT is turned on
   Amount of maximum screened exact exchange              ....  0.804272
   Range separation parameter mu (erf(mu*r12)/r12)        ....  0.250000


General Settings:
 Integral files         IntName         .... Scan_30
 Hartree-Fock type      HFTyp           .... RHF
 Total Charge           Charge          ....    0
 Multiplicity           Mult            ....    1
 Number of Electrons    NEL             ....   42
 Basis Dimension        Dim             ....   96
 Nuclear Repulsion      ENuc            ....    182.1500818225 Eh

Convergence Acceleration:
 DIIS                   CNVDIIS         .... on
   Start iteration      DIISMaxIt       ....     0
   Startup error        DIISStart       ....  0.200000
   # of expansion vecs  DIISMaxEq       ....     5
   Bias factor          DIISBfac        ....   1.050
   Max. coefficient     DIISMaxC        ....  10.000
 Newton-Raphson         CNVNR           .... off
 SOSCF                  CNVSOSCF        .... off
 Level Shifting         CNVShift        .... off
 Zerner damping         CNVZerner       .... off
 Static damping         CNVDamp         .... off
 Fernandez-Rico         CNVRico         .... off

SCF Procedure:
 Maximum # iterations   MaxIter         ....   999
 SCF integral mode      SCFMode         .... Direct
   Integral package                     .... LIBINT
 Reset frequeny         DirectResetFreq ....    20
 Integral Threshold     Thresh          ....  1.000e-10 Eh
 Primitive CutOff       TCut            ....  1.000e-11 Eh

Convergence Tolerance:
 Convergence Check Mode ConvCheckMode   .... All-Criteria
 Convergence forced     ConvForced      .... 0
 Energy Change          TolE            ....  1.000e-06 Eh
 Max Density Change     TolMaxP         ....  1.000e-05
 RMS Density Change     TolRMSP         ....  1.000e-06
 DIIS Error             TolErr          ....  1.000e-06


Diagonalization of the overlap matrix:
Smallest eigenvalue                        ... 1.213e-03
Time for diagonalization                   ...    0.002 sec
Threshold for overlap eigenvalues          ... 1.000e-08
Number of eigenvalues below threshold      ... 0
Time for construction of square roots      ...    0.006 sec
Total time needed                          ...    0.008 sec

-------------------
DFT GRID GENERATION
-------------------

General Integration Accuracy     IntAcc      ...  4.340
Radial Grid Type                 RadialGrid  ... Gauss-Chebyshev
Angular Grid (max. acc.)         AngularGrid ... Lebedev-110
Angular grid pruning method      GridPruning ... 3 (G Style)
Weight generation scheme         WeightScheme... Becke
Basis function cutoff            BFCut       ...    1.0000e-10
Integration weight cutoff        WCut        ...    1.0000e-14
Grids for H and He will be reduced by one unit

# of grid points (after initial pruning)     ...  14700 (   0.0 sec)
# of grid points (after weights+screening)   ...  14086 (   0.0 sec)
nearest neighbour list constructed           ...    0.0 sec
Grid point re-assignment to atoms done       ...    0.0 sec
Grid point division into batches done        ...    0.0 sec
Reduced shell lists constructed in    0.2 sec

Total number of grid points                  ...    14086
Total number of batches                      ...      224
Average number of points per batch           ...       62
Average number of grid points per atom       ...     1174
Average number of shells per batch           ...    30.60 (63.74%)
Average number of basis functions per batch  ...    65.22 (67.94%)
Average number of large shells per batch     ...    22.70 (74.19%)
Average number of large basis fcns per batch ...    50.54 (77.49%)
Maximum spatial batch extension              ...  16.45, 20.25, 25.60 au
Average spatial batch extension              ...   4.10,  4.46,  5.61 au

Time for grid setup =    0.239 sec

------------------------------
INITIAL GUESS: MODEL POTENTIAL
------------------------------
Loading Hartree-Fock densities                     ... done
Calculating cut-offs                               ... done
Setting up the integral package                    ... done
Initializing the effective Hamiltonian             ... done
Starting the Coulomb interaction                   ... done (   0.1 sec)
Reading the grid                                   ... done
Mapping shells                                     ... done
Starting the XC term evaluation                    ... done (   0.2 sec)
  promolecular density results
     # of electrons  =     41.995198186
     EX              =    -32.044572335
     EC              =     -1.259419622
     EX+EC           =    -33.303991957
Transforming the Hamiltonian                       ... done (   0.0 sec)
Diagonalizing the Hamiltonian                      ... done (   0.0 sec)
Back transforming the eigenvectors                 ... done (   0.0 sec)
Now organizing SCF variables                       ... done
                      ------------------
                      INITIAL GUESS DONE (   0.6 sec)
                      ------------------
--------------
SCF ITERATIONS
--------------
ITER       Energy         Delta-E        Max-DP      RMS-DP      [F,P]   Gradient Norm
               ***  Starting incremental Fock matrix formation  ***
                             ****Resetting KDIIS****
                             ****Turning on KDIIS(Cayley)****
  0   -230.0089523742   0.000000000000 0.02842549  0.00216515  0.1971778   0.114038630
  1   -230.1261733393  -0.117220965098 0.03583498  0.00282557  0.1875049   0.096782133
  2   -230.2690654884  -0.142892149073 0.05315905  0.00487600  0.1742714   0.079509324
  3   -230.4910652968  -0.221999808425 0.15210022  0.00917233  0.1263065   0.045568395
  4   -230.5548441031  -0.063778806327 0.10110223  0.00590369  0.0803933   0.038673994
  5   -230.5821981228  -0.027354019670 0.02628002  0.00153515  0.0816161   0.020367888
  6   -230.6055085870  -0.023310464189 0.02486179  0.00189877  0.0569461   0.013416542
  7   -230.5913327785   0.014175808530 0.02741468  0.00189546  0.0736947   0.017913027
  8   -230.6064067036  -0.015073925102 0.00639748  0.00052617  0.0533882   0.011930078
  9   -230.6054170238   0.000989679779 0.02776303  0.00215918  0.0496527   0.010995719
 10   -230.5958581491   0.009558874686 0.03705492  0.00166988  0.0333574   0.011470419
 11   -230.5939722315   0.001885917595 0.00894901  0.00065361  0.0576707   0.017045241
 12   -230.5989746037  -0.005002372177 0.01880834  0.00130062  0.0522660   0.013378292
 13   -230.5983590284   0.000615575258 0.03428443  0.00306501  0.0574837   0.015562968
 14   -230.5743556991   0.024003329364 0.03882755  0.00302353  0.0493814   0.016651501
 15   -230.6044869241  -0.030131225028 0.07847161  0.00669443  0.0413895   0.012466915
 16   -230.6526874693  -0.048200545218 0.04044950  0.00411464  0.0128475   0.007944930
 17   -230.6616284655  -0.008940996149 0.00914365  0.00076485  0.0032196   0.002966715
 18   -230.6621227334  -0.000494267938 0.00254835  0.00019218  0.0016769   0.001795083
 19   -230.6622506391  -0.000127905741 0.00440486  0.00031790  0.0011281   0.000785964
               *** Restarting incremental Fock matrix formation ***
                             ****Resetting KDIIS****
 20   -230.6623283147  -0.000077675552 0.00017360  0.00001076  0.0005748   0.000523032
 21   -230.6623327371  -0.000004422411 0.00029876  0.00001906  0.0005718   0.000430699
 22   -230.6623383179  -0.000005580830 0.00069963  0.00004568  0.0005362   0.000387601
 23   -230.6623500185  -0.000011700552 0.00191728  0.00011584  0.0004091   0.000254662
 24   -230.6623636532  -0.000013634683 0.00025352  0.00001446  0.0001116   0.000105277
                          ***Energy convergence achieved***
 25   -230.6623641263  -0.000000473092 0.00021563  0.00000816  0.0000528   0.000048145
 26   -230.6623642672  -0.000000140975 0.00013026  0.00000345  0.0000296   0.000020714
 27   -230.6623643071  -0.000000039903 0.00016654  0.00000411  0.0000238   0.000011715

            ***Energy convergence in two consecutive cycles with***
                    ***'reasonable' density convergence***
                       *** signaling convergence ***

                    *** KDIIS BlockDiag ( 0.002 sec) ***

               *****************************************************
               *                     SUCCESS                       *
               *           SCF CONVERGED AFTER  28 CYCLES          *
               *****************************************************

Setting up the final grid:

General Integration Accuracy     IntAcc      ...  4.670
Radial Grid Type                 RadialGrid  ... Gauss-Chebyshev
Angular Grid (max. acc.)         AngularGrid ... Lebedev-302
Angular grid pruning method      GridPruning ... 3 (G Style)
Weight generation scheme         WeightScheme... Becke
Basis function cutoff            BFCut       ...    1.0000e-10
Integration weight cutoff        WCut        ...    1.0000e-14
Grids for H and He will be reduced by one unit

# of grid points (after initial pruning)     ...  57636 (   0.0 sec)
# of grid points (after weights+screening)   ...  54876 (   0.1 sec)
nearest neighbour list constructed           ...    0.0 sec
Grid point re-assignment to atoms done       ...    0.0 sec
Grid point division into batches done        ...    0.2 sec
Reduced shell lists constructed in    0.7 sec

Total number of grid points                  ...    54876
Total number of batches                      ...      864
Average number of points per batch           ...       63
Average number of grid points per atom       ...     4573
Average number of shells per batch           ...    26.64 (55.49%)
Average number of basis functions per batch  ...    56.68 (59.04%)
Average number of large shells per batch     ...    19.19 (72.03%)
Average number of large basis fcns per batch ...    42.50 (74.98%)
Maximum spatial batch extension              ...  14.48, 16.73, 17.08 au
Average spatial batch extension              ...   2.79,  2.87,  3.13 au

Final grid set up in    0.8 sec
Final integration                            ... done (   0.7 sec)
Change in XC energy                          ...     0.000905206
Integrated number of electrons               ...    42.000008308
Previous integrated no of electrons          ...    42.000013862

----------------
TOTAL SCF ENERGY
----------------

Total Energy       :         -230.66145913 Eh           -6276.61740 eV

Components:
Nuclear Repulsion  :          182.15008182 Eh            4956.55571 eV
Electronic Energy  :         -412.81154096 Eh          -11233.17311 eV
One Electron Energy:         -669.08417172 Eh          -18206.70592 eV
Two Electron Energy:          256.27263076 Eh            6973.53281 eV

Virial components:
Potential Energy   :         -459.33292453 Eh          -12499.08432 eV
Kinetic Energy     :          228.67146540 Eh            6222.46692 eV
Virial Ratio       :            2.00870241


DFT components:
N(Alpha)           :       21.000004153905 electrons
N(Beta)            :       21.000004153905 electrons
N(Total)           :       42.000008307810 electrons
E(XC)              :      -22.948759657776 Eh       

---------------
SCF CONVERGENCE
---------------

  Last Energy change         ...   -3.3367e-08  Tolerance :   1.0000e-06
  Last MAX-Density change    ...    9.3859e-05  Tolerance :   1.0000e-05
  Last RMS-Density change    ...    2.4364e-06  Tolerance :   1.0000e-06
  Last DIIS Error            ...    1.6665e-05  Tolerance :   1.0000e-06

             **** THE GBW FILE WAS UPDATED (Scan_30.gbw) ****
             **** DENSITY FILE WAS UPDATED (Scan_30.scfp.tmp) ****
             **** ENERGY FILE WAS UPDATED (Scan_30.en.tmp) ****
----------------
ORBITAL ENERGIES
----------------

  NO   OCC          E(Eh)            E(eV) 
   0   2.0000     -10.378683      -282.4183 
   1   2.0000     -10.378347      -282.4092 
   2   2.0000     -10.378298      -282.4079 
   3   2.0000     -10.377524      -282.3868 
   4   2.0000     -10.377475      -282.3854 
   5   2.0000     -10.377125      -282.3759 
   6   2.0000      -1.041302       -28.3353 
   7   2.0000      -0.896014       -24.3818 
   8   2.0000      -0.895967       -24.3805 
   9   2.0000      -0.710542       -19.3348 
  10   2.0000      -0.710353       -19.3297 
  11   2.0000      -0.609928       -16.5970 
  12   2.0000      -0.536412       -14.5965 
  13   2.0000      -0.529582       -14.4107 
  14   2.0000      -0.391130       -10.6432 
  15   2.0000      -0.390918       -10.6374 
  16   2.0000      -0.367254        -9.9935 
  17   2.0000      -0.366958        -9.9854 
  18   2.0000      -0.298850        -8.1321 
  19   2.0000      -0.280842        -7.6421 
  20   2.0000      -0.280819        -7.6415 
  21   0.0000      -0.178660        -4.8616 
  22   0.0000      -0.178591        -4.8597 
  23   0.0000      -0.168544        -4.5863 
  24   0.0000      -0.084802        -2.3076 
  25   0.0000      -0.028605        -0.7784 
  26   0.0000      -0.028235        -0.7683 
  27   0.0000       0.056435         1.5357 
  28   0.0000       0.056496         1.5373 
  29   0.0000       0.264689         7.2026 
  30   0.0000       0.364862         9.9284 
  31   0.0000       0.365007         9.9324 
  32   0.0000       0.486936        13.2502 
  33   0.0000       0.487332        13.2610 
  34   0.0000       0.539420        14.6784 
  35   0.0000       0.548146        14.9158 
  36   0.0000       0.564180        15.3521 
  37   0.0000       0.568872        15.4798 
  38   0.0000       0.569044        15.4845 
  39   0.0000       0.575420        15.6580 
  40   0.0000       0.642760        17.4904 
  41   0.0000       0.642908        17.4944 
  42   0.0000       0.654461        17.8088 
  43   0.0000       0.654568        17.8117 
  44   0.0000       0.668842        18.2001 
  45   0.0000       0.742039        20.1919 
  46   0.0000       0.742123        20.1942 
  47   0.0000       0.750016        20.4090 
  48   0.0000       0.769376        20.9358 
  49   0.0000       0.769525        20.9398 
  50   0.0000       0.808385        21.9973 
  51   0.0000       0.808587        22.0028 
  52   0.0000       0.842018        22.9125 
  53   0.0000       0.848531        23.0897 
  54   0.0000       0.880177        23.9508 
  55   0.0000       0.906903        24.6781 
  56   0.0000       0.907128        24.6842 
  57   0.0000       0.912156        24.8210 
  58   0.0000       0.912296        24.8248 
  59   0.0000       0.916430        24.9373 
  60   0.0000       1.069769        29.1099 
  61   0.0000       1.070372        29.1263 
  62   0.0000       1.117398        30.4060 
  63   0.0000       1.243592        33.8399 
  64   0.0000       1.243805        33.8457 
  65   0.0000       1.300562        35.3901 
  66   0.0000       1.370349        37.2891 
  67   0.0000       1.436299        39.0837 
  68   0.0000       1.563976        42.5580 
  69   0.0000       1.564437        42.5705 
  70   0.0000       1.584430        43.1145 
  71   0.0000       1.593847        43.3708 
  72   0.0000       1.594220        43.3809 
  73   0.0000       1.785508        48.5862 
  74   0.0000       1.786355        48.6092 
  75   0.0000       1.874711        51.0135 
  76   0.0000       1.906446        51.8770 
  77   0.0000       2.197256        59.7904 
  78   0.0000       2.197778        59.8046 
  79   0.0000       2.262485        61.5653 
  80   0.0000       2.262811        61.5742 
  81   0.0000       2.265056        61.6353 
  82   0.0000       2.266101        61.6637 
  83   0.0000       2.413735        65.6811 
  84   0.0000       2.414278        65.6958 
  85   0.0000       2.482550        67.5536 
  86   0.0000       2.484018        67.5936 
  87   0.0000       2.484949        67.6189 
  88   0.0000       2.563027        69.7435 
  89   0.0000       2.805960        76.3540 
  90   0.0000       2.807381        76.3927 
  91   0.0000       2.825681        76.8907 
  92   0.0000       2.879572        78.3571 
  93   0.0000       2.880412        78.3800 
  94   0.0000       3.182246        86.5933 
  95   0.0000       3.474847        94.5554 

                    ********************************
                    * MULLIKEN POPULATION ANALYSIS *
                    ********************************

-----------------------
MULLIKEN ATOMIC CHARGES
-----------------------
   0 C :    0.005215
   1 H :   -0.005187
   2 C :    0.005598
   3 H :   -0.005204
   4 C :    0.004964
   5 H :   -0.005455
   6 C :    0.005232
   7 H :   -0.005194
   8 C :    0.005685
   9 H :   -0.005194
  10 C :    0.005002
  11 H :   -0.005461
Sum of atomic charges:   -0.0000000

--------------------------------
MULLIKEN REDUCED ORBITAL CHARGES
--------------------------------
  0 C s       :     3.127679  s :     3.127679
      pz      :     0.987824  p :     2.831666
      px      :     0.965165
      py      :     0.878678
      dz2     :     0.002522  d :     0.035441
      dxz     :     0.003643
      dyz     :     0.008289
      dx2y2   :     0.008644
      dxy     :     0.012342
  1 H s       :     1.005187  s :     1.005187
  2 C s       :     3.127444  s :     3.127444
      pz      :     0.988389  p :     2.831514
      px      :     0.905657
      py      :     0.937469
      dz2     :     0.002487  d :     0.035444
      dxz     :     0.006837
      dyz     :     0.005142
      dx2y2   :     0.011960
      dxy     :     0.009018
  3 H s       :     1.005204  s :     1.005204
  4 C s       :     3.127898  s :     3.127898
      pz      :     0.987948  p :     2.831618
      px      :     0.895672
      py      :     0.947998
      dz2     :     0.002519  d :     0.035521
      dxz     :     0.007453
      dyz     :     0.004502
      dx2y2   :     0.010936
      dxy     :     0.010110
  5 H s       :     1.005455  s :     1.005455
  6 C s       :     3.127664  s :     3.127664
      pz      :     0.987818  p :     2.831662
      px      :     0.965159
      py      :     0.878685
      dz2     :     0.002522  d :     0.035442
      dxz     :     0.003644
      dyz     :     0.008290
      dx2y2   :     0.008644
      dxy     :     0.012342
  7 H s       :     1.005194  s :     1.005194
  8 C s       :     3.127435  s :     3.127435
      pz      :     0.988359  p :     2.831438
      px      :     0.905634
      py      :     0.937445
      dz2     :     0.002487  d :     0.035442
      dxz     :     0.006836
      dyz     :     0.005142
      dx2y2   :     0.011960
      dxy     :     0.009018
  9 H s       :     1.005194  s :     1.005194
 10 C s       :     3.127911  s :     3.127911
      pz      :     0.987932  p :     2.831569
      px      :     0.895653
      py      :     0.947984
      dz2     :     0.002519  d :     0.035517
      dxz     :     0.007452
      dyz     :     0.004502
      dx2y2   :     0.010935
      dxy     :     0.010110
 11 H s       :     1.005461  s :     1.005461


                     *******************************
                     * LOEWDIN POPULATION ANALYSIS *
                     *******************************

----------------------
LOEWDIN ATOMIC CHARGES
----------------------
   0 C :    0.006078
   1 H :   -0.005993
   2 C :    0.006129
   3 H :   -0.006014
   4 C :    0.006004
   5 H :   -0.006269
   6 C :    0.006090
   7 H :   -0.006001
   8 C :    0.006206
   9 H :   -0.006004
  10 C :    0.006047
  11 H :   -0.006274

-------------------------------
LOEWDIN REDUCED ORBITAL CHARGES
-------------------------------
  0 C s       :     2.941445  s :     2.941445
      pz      :     0.976921  p :     2.971739
      px      :     0.960403
      py      :     1.034416
      dz2     :     0.005981  d :     0.080738
      dxz     :     0.005018
      dyz     :     0.017895
      dx2y2   :     0.015902
      dxy     :     0.035943
  1 H s       :     1.005993  s :     1.005993
  2 C s       :     2.941554  s :     2.941554
      pz      :     0.977369  p :     2.971546
      px      :     1.010877
      py      :     0.983300
      dz2     :     0.005957  d :     0.080771
      dxz     :     0.013839
      dyz     :     0.009118
      dx2y2   :     0.033727
      dxy     :     0.018131
  3 H s       :     1.006014  s :     1.006014
  4 C s       :     2.941739  s :     2.941739
      pz      :     0.976940  p :     2.971468
      px      :     1.021738
      py      :     0.972790
      dz2     :     0.005977  d :     0.080789
      dxz     :     0.015549
      dyz     :     0.007378
      dx2y2   :     0.028241
      dxy     :     0.023644
  5 H s       :     1.006269  s :     1.006269
  6 C s       :     2.941434  s :     2.941434
      pz      :     0.976914  p :     2.971734
      px      :     0.960396
      py      :     1.034424
      dz2     :     0.005981  d :     0.080741
      dxz     :     0.005018
      dyz     :     0.017896
      dx2y2   :     0.015903
      dxy     :     0.035944
  7 H s       :     1.006001  s :     1.006001
  8 C s       :     2.941548  s :     2.941548
      pz      :     0.977342  p :     2.971477
      px      :     1.010857
      py      :     0.983279
      dz2     :     0.005956  d :     0.080768
      dxz     :     0.013837
      dyz     :     0.009118
      dx2y2   :     0.033726
      dxy     :     0.018129
  9 H s       :     1.006004  s :     1.006004
 10 C s       :     2.941748  s :     2.941748
      pz      :     0.976926  p :     2.971424
      px      :     1.021716
      py      :     0.972781
      dz2     :     0.005976  d :     0.080781
      dxz     :     0.015546
      dyz     :     0.007377
      dx2y2   :     0.028238
      dxy     :     0.023643
 11 H s       :     1.006274  s :     1.006274


                      *****************************
                      * MAYER POPULATION ANALYSIS *
                      *****************************

  NA   - Mulliken gross atomic population
  ZA   - Total nuclear charge
  QA   - Mulliken gross atomic charge
  VA   - Mayer's total valence
  BVA  - Mayer's bonded valence
  FA   - Mayer's free valence

  ATOM       NA         ZA         QA         VA         BVA        FA
  0 C      5.9948     6.0000     0.0052     4.0201     4.0201    -0.0000
  1 H      1.0052     1.0000    -0.0052     1.0004     1.0004    -0.0000
  2 C      5.9944     6.0000     0.0056     4.0198     4.0198    -0.0000
  3 H      1.0052     1.0000    -0.0052     1.0004     1.0004     0.0000
  4 C      5.9950     6.0000     0.0050     4.0197     4.0197    -0.0000
  5 H      1.0055     1.0000    -0.0055     1.0004     1.0004     0.0000
  6 C      5.9948     6.0000     0.0052     4.0201     4.0201    -0.0000
  7 H      1.0052     1.0000    -0.0052     1.0004     1.0004     0.0000
  8 C      5.9943     6.0000     0.0057     4.0197     4.0197    -0.0000
  9 H      1.0052     1.0000    -0.0052     1.0004     1.0004    -0.0000
 10 C      5.9950     6.0000     0.0050     4.0197     4.0197     0.0000
 11 H      1.0055     1.0000    -0.0055     1.0004     1.0004    -0.0000

  Mayer bond orders larger than 0.1
B(  0-C ,  1-H ) :   0.1300 B(  0-C ,  2-C ) :   1.8295 B(  0-C ,  6-C ) :   0.1336 
B(  0-C , 10-C ) :   1.8295 B(  1-H ,  3-H ) :   0.3775 B(  1-H , 11-H ) :   0.3770 
B(  2-C ,  3-H ) :   0.1303 B(  2-C ,  4-C ) :   1.8290 B(  2-C ,  8-C ) :   0.1333 
B(  3-H ,  5-H ) :   0.3771 B(  4-C ,  5-H ) :   0.1303 B(  4-C ,  6-C ) :   1.8295 
B(  4-C , 10-C ) :   0.1332 B(  5-H ,  7-H ) :   0.3769 B(  6-C ,  7-H ) :   0.1300 
B(  6-C ,  8-C ) :   1.8295 B(  7-H ,  9-H ) :   0.3777 B(  8-C ,  9-H ) :   0.1303 
B(  8-C , 10-C ) :   1.8289 B(  9-H , 11-H ) :   0.3770 B( 10-C , 11-H ) :   0.1304 


-------
TIMINGS
-------

Total SCF time: 0 days 0 hours 1 min 34 sec 

Total time                  ....      94.057 sec
Sum of individual times     ....      93.722 sec  ( 99.6%)

Fock matrix formation       ....      92.255 sec  ( 98.1%)
  XC integration            ....       6.674 sec  (  7.2% of F)
    Basis function eval.    ....       3.157 sec  ( 47.3% of XC)
    Density eval.           ....       0.516 sec  (  7.7% of XC)
    XC-Functional eval.     ....       1.419 sec  ( 21.3% of XC)
    XC-Potential eval.      ....       0.808 sec  ( 12.1% of XC)
Diagonalization             ....       0.031 sec  (  0.0%)
Density matrix formation    ....       0.003 sec  (  0.0%)
Population analysis         ....       0.012 sec  (  0.0%)
Initial guess               ....       0.346 sec  (  0.4%)
Orbital Transformation      ....       0.000 sec  (  0.0%)
Orbital Orthonormalization  ....       0.000 sec  (  0.0%)
DIIS solution               ....       0.000 sec  (  0.0%)
Grid generation             ....       1.075 sec  (  1.1%)


-------------------------------------------------------------------------------
                          DFT DISPERSION CORRECTION                            
                                                                               
                              DFTD3 V3.1  Rev 1                                
                              USING zero damping                               
-------------------------------------------------------------------------------
The omegaB97X-D3 functional is recognized. Fit by Chai et al.
Active option DFTDOPT                   ...         3   

molecular C6(AA) [au] = 2353.742614 


            DFT-D V3
 parameters
 s6 scaling factor         :     1.0000 
 rs6 scaling factor        :     1.2810 
 s8 scaling factor         :     1.0000 
 rs8 scaling factor        :     1.0940 
 Damping factor alpha6     :    14.0000 
 Damping factor alpha8     :    16.0000 
 ad hoc parameters k1-k3   :    16.0000     1.3333    -4.0000 

 Edisp/kcal,au: -1.264617772350  -0.002015296485 
 E6   /kcal   :  -0.796572000 
 E8   /kcal   :  -0.468045773 
 % E8         :  37.010848886 

-------------------------   ----------------
Dispersion correction           -0.002015296
-------------------------   ----------------


-------------------------   --------------------
FINAL SINGLE POINT ENERGY      -230.663474430730
-------------------------   --------------------


                            ***************************************
                            *     ORCA property calculations      *
                            ***************************************

                                    ---------------------
                                    Active property flags
                                    ---------------------
   (+) Dipole Moment


------------------------------------------------------------------------------
                       ORCA ELECTRIC PROPERTIES CALCULATION
------------------------------------------------------------------------------

Dipole Moment Calculation                       ... on
Quadrupole Moment Calculation                   ... off
Polarizability Calculation                      ... off
GBWName                                         ... Scan_30.gbw
Electron density file                           ... Scan_30.scfp.tmp

-------------
DIPOLE MOMENT
-------------
                                X             Y             Z
Electronic contribution:     -0.00023      -0.00017      -0.00000
Nuclear contribution   :      0.00010      -0.00013       0.00000
                        -----------------------------------------
Total Dipole Moment    :     -0.00013      -0.00030       0.00000
                        -----------------------------------------
Magnitude (a.u.)       :      0.00033
Magnitude (Debye)      :      0.00084


Timings for individual modules:

Sum of individual times         ...       94.407 sec (=   1.573 min)
GTO integral calculation        ...        0.326 sec (=   0.005 min)   0.3 %
SCF iterations                  ...       94.082 sec (=   1.568 min)  99.7 %
                             ****ORCA TERMINATED NORMALLY****
TOTAL RUN TIME: 0 days 0 hours 1 minutes 34 seconds 729 msec
