
                                 *****************
                                 * O   R   C   A *
                                 *****************

           --- An Ab Initio, DFT and Semiempirical electronic structure package ---

                  #######################################################
                  #                        -***-                        #
                  #  Department of molecular theory and spectroscopy    #
                  #              Directorship: Frank Neese              #
                  # Max Planck Institute for Chemical Energy Conversion #
                  #                  D-45470 Muelheim/Ruhr              #
                  #                       Germany                       #
                  #                                                     #
                  #                  All rights reserved                #
                  #                        -***-                        #
                  #######################################################


                         Program Version 4.0.0.2 - RELEASE -


 With contributions from (in alphabetic order):
   Daniel Aravena         : Magnetic Properties
   Michael Atanasov       : Ab Initio Ligand Field Theory
   Ute Becker             : Parallelization
   Martin Brehm           : Molecular dynamics
   Dmytro Bykov           : SCF Hessian
   Vijay G. Chilkuri      : MRCI spin determinant printing
   Dipayan Datta          : RHF DLPNO-CCSD density
   Achintya Kumar Dutta   : EOM-CC, STEOM-CC
   Dmitry Ganyushin       : Spin-Orbit,Spin-Spin,Magnetic field MRCI
   Yang Guo               : DLPNO-NEVPT2, CIM, IAO-localization
   Andreas Hansen         : Spin unrestricted coupled pair/coupled cluster methods
   Lee Huntington         : MR-EOM, pCC
   Robert Izsak           : Overlap fitted RIJCOSX, COSX-SCS-MP3, EOM
   Christian Kollmar      : KDIIS, OOCD, Brueckner-CCSD(T), CCSD density
   Simone Kossmann        : Meta GGA functionals, TD-DFT gradient, OOMP2, MP2 Hessian
   Martin Krupicka        : AUTO-CI
   Dagmar Lenk            : GEPOL surface
   Dimitrios Liakos       : Extrapolation schemes; parallel MDCI
   Dimitrios Manganas     : ROCIS; embedding schemes
   Dimitrios Pantazis     : SARC Basis sets
   Taras Petrenko         : DFT Hessian,TD-DFT gradient, ASA, ECA, R-Raman, ABS, FL, XAS/XES, NRVS
   Peter Pinski           : DLPNO-MP2
   Christoph Reimann      : Effective Core Potentials
   Marius Retegan         : Local ZFS, SOC
   Christoph Riplinger    : Optimizer, TS searches, QM/MM, DLPNO-CCSD(T), (RO)-DLPNO pert. Triples
   Tobias Risthaus        : Range-separated hybrids, TD-DFT gradient, RPA, STAB
   Michael Roemelt        : Restricted open shell CIS
   Masaaki Saitow         : Open-shell DLPNO
   Barbara Sandhoefer     : DKH picture change effects
   Kantharuban Sivalingam : CASSCF convergence, NEVPT2, FIC-MRCI
   Georgi Stoychev        : AutoAux
   Boris Wezisla          : Elementary symmetry handling
   Frank Wennmohs         : Technical directorship


 We gratefully acknowledge several colleagues who have allowed us to
 interface, adapt or use parts of their codes:
   Stefan Grimme, W. Hujo, H. Kruse,             : VdW corrections, initial TS optimization,
                  C. Bannwarth                     DFT functionals, gCP, sTDA/sTD-DF
   Ed Valeev                                     : LibInt (2-el integral package), F12 methods
   Garnet Chan, S. Sharma, J. Yang, R. Olivares  : DMRG
   Ulf Ekstrom                                   : XCFun DFT Library
   Mihaly Kallay                                 : mrcc  (arbitrary order and MRCC methods)
   Jiri Pittner, Ondrej Demel                    : Mk-CCSD
   Frank Weinhold                                : gennbo (NPA and NBO analysis)
   Christopher J. Cramer and Donald G. Truhlar   : smd solvation model


 Your calculation uses the libint2 library for the computation of 2-el integrals
 For citations please refer to: http://libint.valeyev.net

 This ORCA versions uses:
   CBLAS   interface :  Fast vector & matrix operations
   LAPACKE interface :  Fast linear algebra routines
   SCALAPACK package :  Parallel linear algebra routines


Your calculation utilizes the atom-pairwise dispersion correction
with the zero-damping scheme (D30)
Cite in your paper:
S.Grimme, J.Antony, S.Ehrlich and H.Krieg, J.Chem.Phys., 132, (2010), 154104 
   

XCFun DFT library Copyright 2009-2010 Ulf Ekstrom and contributors.
See http://admol.org/xcfun for more information. This is free soft-
ware; see the source code for copying conditions. There is ABSOLUTELY
NO WARRANTY; not even for MERCHANTABILITY or FITNESS FOR A PARTICULAR
PURPOSE. For details see the documentation. Scientific users of this 
library should cite U. Ekstrom, L. Visscher, R. Bast, A. J. Thorvald-
sen and K. Ruud; J.Chem.Theor.Comp. 2010, DOI: 10.1021/ct100117s
XCFun Version 0.99 
Your calculation utilizes the basis: 6-31G(d)
   H-He, Li-Ne : W. J. Hehre, R. Ditchfield and J.A. Pople, J. Chem. Phys. 56, 2257 (1972).
                 Note: He and Ne are unpublished basis sets taken from the Gaussian program.
                 Note: Li and B from J. D. Dill and J. A. Pople, J. Chem. Phys. 62, 2921 (1975).
   Na - Ar     : M. M. Francl, W. J. Pietro, W. J. Hehre, J. S. Binkley, M. S. Gordon, 
                 D. J. DeFrees and J. A. Pople, J. Chem. Phys. 77, 3654 (1982).
   K - Zn      : V. A. Rassolov, J. A. Pople, M. A. Ratner, and T. L. Windus, J. Chem. Phys. 109, 1223 (1998).

================================================================================
                                        WARNINGS
                       Please study these warnings very carefully!
================================================================================

Warning: TCutStore was < 0. Adjusted to Thresh (uncritical)

INFO   : the flag for use of LIBINT has been found!

================================================================================
                                       INPUT FILE
================================================================================
NAME = initial31.inp
|  1> ! WB97X-D3 6-31G(d) VerySlowConv
|  2> ! KDIIS NOSOSCF
|  3> %base "Scan_31"
|  4> 
|  5> %scf
|  6> maxiter 999
|  7> end
|  8> 
|  9> * xyz 0 1
| 10> C          1.459456932067   -2.844777418998   -0.000001722336
| 11> H          5.016741335061   -3.117161498987    0.000000611195
| 12> C          0.882806799215   -1.642428652739   -0.000012214936
| 13> H          2.897358315218    1.302065500937    0.000004112449
| 14> C         -0.446773746715   -1.540644334595   -0.000010477836
| 15> H         -1.989555502338    1.676230712072    0.000003414285
| 16> C         -1.199701339439   -2.641207129846    0.000001710729
| 17> H         -4.756993617613   -2.368924507796   -0.000000549903
| 18> C         -0.623068095920   -3.843558868735    0.000012204156
| 19> H         -2.637514172424   -6.788125119033   -0.000004016457
| 20> C          0.706524012252   -3.945357505325    0.000010466710
| 21> H          2.249329080639   -7.162221176955   -0.000003538056
| 22> **                         ****END OF INPUT****
================================================================================

                       ****************************
                       * Single Point Calculation *
                       ****************************

---------------------------------
CARTESIAN COORDINATES (ANGSTROEM)
---------------------------------
  C      1.459457   -2.844777   -0.000002
  H      5.016741   -3.117161    0.000001
  C      0.882807   -1.642429   -0.000012
  H      2.897358    1.302066    0.000004
  C     -0.446774   -1.540644   -0.000010
  H     -1.989556    1.676231    0.000003
  C     -1.199701   -2.641207    0.000002
  H     -4.756994   -2.368925   -0.000001
  C     -0.623068   -3.843559    0.000012
  H     -2.637514   -6.788125   -0.000004
  C      0.706524   -3.945358    0.000010
  H      2.249329   -7.162221   -0.000004

----------------------------
CARTESIAN COORDINATES (A.U.)
----------------------------
  NO LB      ZA    FRAG     MASS         X           Y           Z
   0 C     6.0000    0    12.011    2.757974   -5.375850   -0.000003
   1 H     1.0000    0     1.008    9.480267   -5.890582    0.000001
   2 C     6.0000    0    12.011    1.668263   -3.103740   -0.000023
   3 H     1.0000    0     1.008    5.475214    2.460547    0.000008
   4 C     6.0000    0    12.011   -0.844280   -2.911396   -0.000020
   5 H     1.0000    0     1.008   -3.759715    3.167617    0.000006
   6 C     6.0000    0    12.011   -2.267107   -4.991158    0.000003
   7 H     1.0000    0     1.008   -8.989415   -4.476619   -0.000001
   8 C     6.0000    0    12.011   -1.177428   -7.263274    0.000023
   9 H     1.0000    0     1.008   -4.984179  -12.827697   -0.000008
  10 C     6.0000    0    12.011    1.335137   -7.455645    0.000020
  11 H     1.0000    0     1.008    4.250616  -13.534637   -0.000007

--------------------------------
INTERNAL COORDINATES (ANGSTROEM)
--------------------------------
 C      0   0   0     0.000000000000     0.00000000     0.00000000
 H      1   0   0     3.567697494298     0.00000000     0.00000000
 C      1   2   0     1.333479632973   120.00115721     0.00000000
 H      3   1   2     3.567697244993   119.99849404     0.00000000
 C      3   1   2     1.333470837903   120.00018403   180.00012945
 H      5   3   1     3.567696821697   119.99958568   179.99922180
 C      5   3   1     1.333468569680   119.99952080     0.00000000
 H      7   5   3     3.567697601904   120.00018188   180.00012812
 C      7   5   3     1.333475009759   120.00100474     0.00000000
 H      9   7   5     3.567697212180   120.00125492   180.00090554
 C      9   7   5     1.333483459413   120.00004997     0.00000000
 H     11   9   7     3.567696646450   120.00057776   180.00078033

---------------------------
INTERNAL COORDINATES (A.U.)
---------------------------
 C      0   0   0     0.000000000000     0.00000000     0.00000000
 H      1   0   0     6.741971192901     0.00000000     0.00000000
 C      1   2   0     2.519911311480   120.00115721     0.00000000
 H      3   1   2     6.741970721782   119.99849404     0.00000000
 C      3   1   2     2.519894691208   120.00018403   180.00012945
 H      5   3   1     6.741969921868   119.99958568   179.99922180
 C      5   3   1     2.519890404887   119.99952080     0.00000000
 H      7   5   3     6.741971396246   120.00018188   180.00012812
 C      7   5   3     2.519902574872   120.00100474     0.00000000
 H      9   7   5     6.741970659775   120.00125492   180.00090554
 C      9   7   5     2.519918542404   120.00004997     0.00000000
 H     11   9   7     6.741969590700   120.00057776   180.00078033

---------------------
BASIS SET INFORMATION
---------------------
There are 2 groups of distinct atoms

 Group   1 Type C   : 10s4p1d contracted to 3s2p1d pattern {631/31/1}
 Group   2 Type H   : 4s contracted to 2s pattern {31}

Atom   0C    basis set group =>   1
Atom   1H    basis set group =>   2
Atom   2C    basis set group =>   1
Atom   3H    basis set group =>   2
Atom   4C    basis set group =>   1
Atom   5H    basis set group =>   2
Atom   6C    basis set group =>   1
Atom   7H    basis set group =>   2
Atom   8C    basis set group =>   1
Atom   9H    basis set group =>   2
Atom  10C    basis set group =>   1
Atom  11H    basis set group =>   2
------------------------------------------------------------------------------
                           ORCA GTO INTEGRAL CALCULATION
------------------------------------------------------------------------------

                         BASIS SET STATISTICS AND STARTUP INFO

 # of primitive gaussian shells          ...  114
 # of primitive gaussian functions       ...  186
 # of contracted shells                  ...   48
 # of contracted basis functions         ...   96
 Highest angular momentum                ...    2
 Maximum contraction depth               ...    6
 Integral package used                   ... LIBINT
 Integral threshhold            Thresh   ...  1.000e-10
 Primitive cut-off              TCut     ...  1.000e-11


------------------------------ INTEGRAL EVALUATION ----------------------------


 * One electron integrals 
 Pre-screening matrix                    ... done
 Shell pair data                         ... done (   0.001 sec)

-------------------------------------------------------------------------------
                                 ORCA SCF
-------------------------------------------------------------------------------

------------
SCF SETTINGS
------------
Hamiltonian:
 Density Functional     Method          .... DFT(GTOs)
 Exchange Functional    Exchange        .... WB97X-D3
 Correlation Functional Correlation     .... WB97X-D3
 Gradients option       PostSCFGGA      .... off
 Hybrid DFT is turned on
   Fraction HF Exchange ScalHFX         ....  0.195728
   Scaling of DF-GGA-X  ScalDFX         ....  0.000000
   Scaling of DF-GGA-C  ScalDFC         ....  1.000000
   Scaling of DF-LDA-C  ScalLDAC        ....  1.000000
   Perturbative correction              ....  0.000000
 Long-range corrected/Screened/Range-Separated Hybrid DFT is turned on
   Amount of maximum screened exact exchange              ....  0.804272
   Range separation parameter mu (erf(mu*r12)/r12)        ....  0.250000


General Settings:
 Integral files         IntName         .... Scan_31
 Hartree-Fock type      HFTyp           .... RHF
 Total Charge           Charge          ....    0
 Multiplicity           Mult            ....    1
 Number of Electrons    NEL             ....   42
 Basis Dimension        Dim             ....   96
 Nuclear Repulsion      ENuc            ....    181.5959705771 Eh

Convergence Acceleration:
 DIIS                   CNVDIIS         .... on
   Start iteration      DIISMaxIt       ....     0
   Startup error        DIISStart       ....  0.200000
   # of expansion vecs  DIISMaxEq       ....     5
   Bias factor          DIISBfac        ....   1.050
   Max. coefficient     DIISMaxC        ....  10.000
 Newton-Raphson         CNVNR           .... off
 SOSCF                  CNVSOSCF        .... off
 Level Shifting         CNVShift        .... off
 Zerner damping         CNVZerner       .... off
 Static damping         CNVDamp         .... off
 Fernandez-Rico         CNVRico         .... off

SCF Procedure:
 Maximum # iterations   MaxIter         ....   999
 SCF integral mode      SCFMode         .... Direct
   Integral package                     .... LIBINT
 Reset frequeny         DirectResetFreq ....    20
 Integral Threshold     Thresh          ....  1.000e-10 Eh
 Primitive CutOff       TCut            ....  1.000e-11 Eh

Convergence Tolerance:
 Convergence Check Mode ConvCheckMode   .... All-Criteria
 Convergence forced     ConvForced      .... 0
 Energy Change          TolE            ....  1.000e-06 Eh
 Max Density Change     TolMaxP         ....  1.000e-05
 RMS Density Change     TolRMSP         ....  1.000e-06
 DIIS Error             TolErr          ....  1.000e-06


Diagonalization of the overlap matrix:
Smallest eigenvalue                        ... 1.225e-03
Time for diagonalization                   ...    0.002 sec
Threshold for overlap eigenvalues          ... 1.000e-08
Number of eigenvalues below threshold      ... 0
Time for construction of square roots      ...    0.007 sec
Total time needed                          ...    0.009 sec

-------------------
DFT GRID GENERATION
-------------------

General Integration Accuracy     IntAcc      ...  4.340
Radial Grid Type                 RadialGrid  ... Gauss-Chebyshev
Angular Grid (max. acc.)         AngularGrid ... Lebedev-110
Angular grid pruning method      GridPruning ... 3 (G Style)
Weight generation scheme         WeightScheme... Becke
Basis function cutoff            BFCut       ...    1.0000e-10
Integration weight cutoff        WCut        ...    1.0000e-14
Grids for H and He will be reduced by one unit

# of grid points (after initial pruning)     ...  14700 (   0.0 sec)
# of grid points (after weights+screening)   ...  14090 (   0.0 sec)
nearest neighbour list constructed           ...    0.0 sec
Grid point re-assignment to atoms done       ...    0.0 sec
Grid point division into batches done        ...    0.0 sec
Reduced shell lists constructed in    0.2 sec

Total number of grid points                  ...    14090
Total number of batches                      ...      224
Average number of points per batch           ...       62
Average number of grid points per atom       ...     1174
Average number of shells per batch           ...    30.20 (62.91%)
Average number of basis functions per batch  ...    64.61 (67.31%)
Average number of large shells per batch     ...    22.26 (73.71%)
Average number of large basis fcns per batch ...    49.72 (76.94%)
Maximum spatial batch extension              ...  16.45, 20.26, 37.27 au
Average spatial batch extension              ...   4.09,  4.53,  5.64 au

Time for grid setup =    0.240 sec

------------------------------
INITIAL GUESS: MODEL POTENTIAL
------------------------------
Loading Hartree-Fock densities                     ... done
Calculating cut-offs                               ... done
Setting up the integral package                    ... done
Initializing the effective Hamiltonian             ... done
Starting the Coulomb interaction                   ... done (   0.1 sec)
Reading the grid                                   ... done
Mapping shells                                     ... done
Starting the XC term evaluation                    ... done (   0.2 sec)
  promolecular density results
     # of electrons  =     41.995391537
     EX              =    -32.044172076
     EC              =     -1.259152093
     EX+EC           =    -33.303324170
Transforming the Hamiltonian                       ... done (   0.0 sec)
Diagonalizing the Hamiltonian                      ... done (   0.0 sec)
Back transforming the eigenvectors                 ... done (   0.0 sec)
Now organizing SCF variables                       ... done
                      ------------------
                      INITIAL GUESS DONE (   0.6 sec)
                      ------------------
--------------
SCF ITERATIONS
--------------
ITER       Energy         Delta-E        Max-DP      RMS-DP      [F,P]   Gradient Norm
               ***  Starting incremental Fock matrix formation  ***
                             ****Resetting KDIIS****
                             ****Turning on KDIIS(Cayley)****
  0   -229.9924221179   0.000000000000 0.02910428  0.00218292  0.1870369   0.111498477
  1   -230.1029679976  -0.110545879700 0.03803380  0.00298805  0.1796895   0.094901939
  2   -230.2446989693  -0.141730971673 0.08249152  0.00627103  0.1695407   0.077135978
  3   -230.5209851508  -0.276286181519 0.24097080  0.01234242  0.1042124   0.035330776
  4   -230.2664801685   0.254504982259 0.18224071  0.01036005  0.1882627   0.082556564
  5   -230.5817294993  -0.315249330774 0.01200453  0.00136432  0.0574578   0.014284703
  6   -230.5888062167  -0.007076717396 0.09392221  0.00913331  0.0599120   0.014916436
  7   -230.6354453327  -0.046639115998 0.04927251  0.00433114  0.0140199   0.008729911
  8   -230.6392822995  -0.003836966796 0.03088498  0.00293913  0.0104017   0.005329744
  9   -230.6435642723  -0.004281972810 0.03397699  0.00254659  0.0076187   0.005452871
 10   -230.6471059410  -0.003541668655 0.00738043  0.00062512  0.0140054   0.006855938
 11   -230.6492906029  -0.002184661898 0.02914039  0.00168553  0.0082581   0.004407105
 12   -230.6520218078  -0.002731204971 0.00573014  0.00048332  0.0023143   0.002356495
 13   -230.6521507830  -0.000128975154 0.00243672  0.00015207  0.0017640   0.001479934
 14   -230.6522197894  -0.000069006425 0.00192457  0.00010124  0.0004372   0.000208456
 15   -230.6522286360  -0.000008846618 0.00054518  0.00002961  0.0001584   0.000081693
                          ***Energy convergence achieved***
 16   -230.6522296001  -0.000000964055 0.00022740  0.00001436  0.0001118   0.000074030
 17   -230.6522300033  -0.000000403177 0.00013126  0.00000776  0.0000707   0.000056117
 18   -230.6522301732  -0.000000169925 0.00015704  0.00000844  0.0000516   0.000030324

            ***Energy convergence in two consecutive cycles with***
                    ***'reasonable' density convergence***
                       *** signaling convergence ***

                    *** KDIIS BlockDiag ( 0.001 sec) ***

               *****************************************************
               *                     SUCCESS                       *
               *           SCF CONVERGED AFTER  19 CYCLES          *
               *****************************************************

Setting up the final grid:

General Integration Accuracy     IntAcc      ...  4.670
Radial Grid Type                 RadialGrid  ... Gauss-Chebyshev
Angular Grid (max. acc.)         AngularGrid ... Lebedev-302
Angular grid pruning method      GridPruning ... 3 (G Style)
Weight generation scheme         WeightScheme... Becke
Basis function cutoff            BFCut       ...    1.0000e-10
Integration weight cutoff        WCut        ...    1.0000e-14
Grids for H and He will be reduced by one unit

# of grid points (after initial pruning)     ...  57636 (   0.0 sec)
# of grid points (after weights+screening)   ...  54932 (   0.1 sec)
nearest neighbour list constructed           ...    0.0 sec
Grid point re-assignment to atoms done       ...    0.0 sec
Grid point division into batches done        ...    0.2 sec
Reduced shell lists constructed in    0.7 sec

Total number of grid points                  ...    54932
Total number of batches                      ...      866
Average number of points per batch           ...       63
Average number of grid points per atom       ...     4578
Average number of shells per batch           ...    26.28 (54.75%)
Average number of basis functions per batch  ...    56.02 (58.35%)
Average number of large shells per batch     ...    18.79 (71.51%)
Average number of large basis fcns per batch ...    41.93 (74.85%)
Maximum spatial batch extension              ...  14.43, 16.37, 16.52 au
Average spatial batch extension              ...   2.76,  2.86,  3.17 au

Final grid set up in    0.8 sec
Final integration                            ... done (   0.7 sec)
Change in XC energy                          ...     0.000912266
Integrated number of electrons               ...    42.000013815
Previous integrated no of electrons          ...    42.000556522

----------------
TOTAL SCF ENERGY
----------------

Total Energy       :         -230.65131803 Eh           -6276.34145 eV

Components:
Nuclear Repulsion  :          181.59597058 Eh            4941.47758 eV
Electronic Energy  :         -412.24728860 Eh          -11217.81903 eV
One Electron Energy:         -668.05881523 Eh          -18178.80455 eV
Two Electron Energy:          255.81152662 Eh            6960.98553 eV

Virial components:
Potential Energy   :         -459.34781290 Eh          -12499.48945 eV
Kinetic Energy     :          228.69649488 Eh            6223.14800 eV
Virial Ratio       :            2.00854767


DFT components:
N(Alpha)           :       21.000006907369 electrons
N(Beta)            :       21.000006907369 electrons
N(Total)           :       42.000013814737 electrons
E(XC)              :      -22.954113668487 Eh       

---------------
SCF CONVERGENCE
---------------

  Last Energy change         ...   -1.1964e-07  Tolerance :   1.0000e-06
  Last MAX-Density change    ...    7.4161e-05  Tolerance :   1.0000e-05
  Last RMS-Density change    ...    4.4741e-06  Tolerance :   1.0000e-06
  Last DIIS Error            ...    4.0601e-05  Tolerance :   1.0000e-06

             **** THE GBW FILE WAS UPDATED (Scan_31.gbw) ****
             **** DENSITY FILE WAS UPDATED (Scan_31.scfp.tmp) ****
             **** ENERGY FILE WAS UPDATED (Scan_31.en.tmp) ****
----------------
ORBITAL ENERGIES
----------------

  NO   OCC          E(Eh)            E(eV) 
   0   2.0000     -10.375656      -282.3360 
   1   2.0000     -10.375321      -282.3268 
   2   2.0000     -10.375278      -282.3257 
   3   2.0000     -10.374495      -282.3044 
   4   2.0000     -10.374453      -282.3032 
   5   2.0000     -10.374102      -282.2937 
   6   2.0000      -1.038131       -28.2490 
   7   2.0000      -0.893344       -24.3091 
   8   2.0000      -0.893274       -24.3072 
   9   2.0000      -0.708056       -19.2672 
  10   2.0000      -0.707849       -19.2616 
  11   2.0000      -0.607402       -16.5283 
  12   2.0000      -0.534084       -14.5332 
  13   2.0000      -0.528330       -14.3766 
  14   2.0000      -0.388920       -10.5830 
  15   2.0000      -0.388738       -10.5781 
  16   2.0000      -0.365475        -9.9451 
  17   2.0000      -0.365172        -9.9368 
  18   2.0000      -0.296100        -8.0573 
  19   2.0000      -0.278471        -7.5776 
  20   2.0000      -0.278451        -7.5770 
  21   0.0000      -0.181301        -4.9335 
  22   0.0000      -0.181264        -4.9324 
  23   0.0000      -0.169231        -4.6050 
  24   0.0000      -0.083608        -2.2751 
  25   0.0000      -0.027454        -0.7471 
  26   0.0000      -0.027095        -0.7373 
  27   0.0000       0.058361         1.5881 
  28   0.0000       0.058447         1.5904 
  29   0.0000       0.266626         7.2553 
  30   0.0000       0.366110         9.9624 
  31   0.0000       0.366255         9.9663 
  32   0.0000       0.488749        13.2995 
  33   0.0000       0.489121        13.3096 
  34   0.0000       0.539120        14.6702 
  35   0.0000       0.549267        14.9463 
  36   0.0000       0.566683        15.4202 
  37   0.0000       0.571096        15.5403 
  38   0.0000       0.571295        15.5457 
  39   0.0000       0.577292        15.7089 
  40   0.0000       0.645224        17.5574 
  41   0.0000       0.645362        17.5612 
  42   0.0000       0.656099        17.8533 
  43   0.0000       0.656176        17.8555 
  44   0.0000       0.672527        18.3004 
  45   0.0000       0.743669        20.2363 
  46   0.0000       0.743720        20.2376 
  47   0.0000       0.751911        20.4605 
  48   0.0000       0.771167        20.9845 
  49   0.0000       0.771363        20.9898 
  50   0.0000       0.809779        22.0352 
  51   0.0000       0.809989        22.0409 
  52   0.0000       0.843683        22.9578 
  53   0.0000       0.851131        23.1604 
  54   0.0000       0.874734        23.8027 
  55   0.0000       0.900746        24.5105 
  56   0.0000       0.900962        24.5164 
  57   0.0000       0.903614        24.5886 
  58   0.0000       0.903738        24.5920 
  59   0.0000       0.908722        24.7276 
  60   0.0000       1.071636        29.1607 
  61   0.0000       1.072188        29.1757 
  62   0.0000       1.119811        30.4716 
  63   0.0000       1.245194        33.8835 
  64   0.0000       1.245381        33.8885 
  65   0.0000       1.302890        35.4534 
  66   0.0000       1.372621        37.3509 
  67   0.0000       1.438661        39.1480 
  68   0.0000       1.566275        42.6205 
  69   0.0000       1.566716        42.6325 
  70   0.0000       1.583189        43.0808 
  71   0.0000       1.596210        43.4351 
  72   0.0000       1.596558        43.4446 
  73   0.0000       1.787650        48.6444 
  74   0.0000       1.788515        48.6680 
  75   0.0000       1.877005        51.0759 
  76   0.0000       1.908940        51.9449 
  77   0.0000       2.198826        59.8331 
  78   0.0000       2.199369        59.8479 
  79   0.0000       2.264862        61.6300 
  80   0.0000       2.265176        61.6386 
  81   0.0000       2.266864        61.6845 
  82   0.0000       2.267937        61.7137 
  83   0.0000       2.415916        65.7404 
  84   0.0000       2.416424        65.7542 
  85   0.0000       2.484954        67.6190 
  86   0.0000       2.485567        67.6357 
  87   0.0000       2.486500        67.6611 
  88   0.0000       2.562019        69.7161 
  89   0.0000       2.808203        76.4151 
  90   0.0000       2.809643        76.4543 
  91   0.0000       2.827744        76.9468 
  92   0.0000       2.882042        78.4243 
  93   0.0000       2.882838        78.4460 
  94   0.0000       3.184633        86.6583 
  95   0.0000       3.477064        94.6157 

                    ********************************
                    * MULLIKEN POPULATION ANALYSIS *
                    ********************************

-----------------------
MULLIKEN ATOMIC CHARGES
-----------------------
   0 C :    0.004539
   1 H :   -0.004632
   2 C :    0.005004
   3 H :   -0.004640
   4 C :    0.004500
   5 H :   -0.004777
   6 C :    0.004542
   7 H :   -0.004632
   8 C :    0.005009
   9 H :   -0.004639
  10 C :    0.004502
  11 H :   -0.004775
Sum of atomic charges:   -0.0000000

--------------------------------
MULLIKEN REDUCED ORBITAL CHARGES
--------------------------------
  0 C s       :     3.126415  s :     3.126415
      pz      :     0.987929  p :     2.833765
      px      :     0.966546
      py      :     0.879290
      dz2     :     0.002495  d :     0.035281
      dxz     :     0.003573
      dyz     :     0.008278
      dx2y2   :     0.008552
      dxy     :     0.012384
  1 H s       :     1.004632  s :     1.004632
  2 C s       :     3.126295  s :     3.126295
      pz      :     0.988473  p :     2.833419
      px      :     0.906340
      py      :     0.938606
      dz2     :     0.002460  d :     0.035282
      dxz     :     0.006806
      dyz     :     0.005090
      dx2y2   :     0.011985
      dxy     :     0.008941
  3 H s       :     1.004640  s :     1.004640
  4 C s       :     3.126834  s :     3.126834
      pz      :     0.987982  p :     2.833307
      px      :     0.896326
      py      :     0.948999
      dz2     :     0.002492  d :     0.035359
      dxz     :     0.007429
      dyz     :     0.004442
      dx2y2   :     0.010926
      dxy     :     0.010069
  5 H s       :     1.004777  s :     1.004777
  6 C s       :     3.126407  s :     3.126407
      pz      :     0.987930  p :     2.833769
      px      :     0.966544
      py      :     0.879295
      dz2     :     0.002495  d :     0.035281
      dxz     :     0.003573
      dyz     :     0.008278
      dx2y2   :     0.008552
      dxy     :     0.012384
  7 H s       :     1.004632  s :     1.004632
  8 C s       :     3.126298  s :     3.126298
      pz      :     0.988471  p :     2.833413
      px      :     0.906336
      py      :     0.938606
      dz2     :     0.002460  d :     0.035281
      dxz     :     0.006806
      dyz     :     0.005090
      dx2y2   :     0.011985
      dxy     :     0.008941
  9 H s       :     1.004639  s :     1.004639
 10 C s       :     3.126844  s :     3.126844
      pz      :     0.987978  p :     2.833297
      px      :     0.896319
      py      :     0.948999
      dz2     :     0.002492  d :     0.035357
      dxz     :     0.007429
      dyz     :     0.004442
      dx2y2   :     0.010925
      dxy     :     0.010069
 11 H s       :     1.004775  s :     1.004775


                     *******************************
                     * LOEWDIN POPULATION ANALYSIS *
                     *******************************

----------------------
LOEWDIN ATOMIC CHARGES
----------------------
   0 C :    0.005350
   1 H :   -0.005365
   2 C :    0.005382
   3 H :   -0.005374
   4 C :    0.005515
   5 H :   -0.005514
   6 C :    0.005350
   7 H :   -0.005365
   8 C :    0.005387
   9 H :   -0.005373
  10 C :    0.005520
  11 H :   -0.005512

-------------------------------
LOEWDIN REDUCED ORBITAL CHARGES
-------------------------------
  0 C s       :     2.940394  s :     2.940394
      pz      :     0.977015  p :     2.973781
      px      :     0.963065
      py      :     1.033701
      dz2     :     0.005953  d :     0.080475
      dxz     :     0.004954
      dyz     :     0.017879
      dx2y2   :     0.015572
      dxy     :     0.036116
  1 H s       :     1.005365  s :     1.005365
  2 C s       :     2.940518  s :     2.940518
      pz      :     0.977453  p :     2.973599
      px      :     1.011219
      py      :     0.984927
      dz2     :     0.005929  d :     0.080502
      dxz     :     0.013808
      dyz     :     0.009071
      dx2y2   :     0.033838
      dxy     :     0.017857
  3 H s       :     1.005374  s :     1.005374
  4 C s       :     2.940677  s :     2.940677
      pz      :     0.976975  p :     2.973287
      px      :     1.021586
      py      :     0.974726
      dz2     :     0.005949  d :     0.080521
      dxz     :     0.015523
      dyz     :     0.007324
      dx2y2   :     0.028218
      dxy     :     0.023507
  5 H s       :     1.005514  s :     1.005514
  6 C s       :     2.940388  s :     2.940388
      pz      :     0.977015  p :     2.973785
      px      :     0.963063
      py      :     1.033707
      dz2     :     0.005953  d :     0.080477
      dxz     :     0.004955
      dyz     :     0.017880
      dx2y2   :     0.015573
      dxy     :     0.036117
  7 H s       :     1.005365  s :     1.005365
  8 C s       :     2.940519  s :     2.940519
      pz      :     0.977452  p :     2.973593
      px      :     1.011216
      py      :     0.984926
      dz2     :     0.005928  d :     0.080501
      dxz     :     0.013807
      dyz     :     0.009071
      dx2y2   :     0.033838
      dxy     :     0.017856
  9 H s       :     1.005373  s :     1.005373
 10 C s       :     2.940684  s :     2.940684
      pz      :     0.976972  p :     2.973278
      px      :     1.021579
      py      :     0.974727
      dz2     :     0.005949  d :     0.080518
      dxz     :     0.015522
      dyz     :     0.007323
      dx2y2   :     0.028217
      dxy     :     0.023506
 11 H s       :     1.005512  s :     1.005512


                      *****************************
                      * MAYER POPULATION ANALYSIS *
                      *****************************

  NA   - Mulliken gross atomic population
  ZA   - Total nuclear charge
  QA   - Mulliken gross atomic charge
  VA   - Mayer's total valence
  BVA  - Mayer's bonded valence
  FA   - Mayer's free valence

  ATOM       NA         ZA         QA         VA         BVA        FA
  0 C      5.9955     6.0000     0.0045     4.0191     4.0191    -0.0000
  1 H      1.0046     1.0000    -0.0046     1.0003     1.0003    -0.0000
  2 C      5.9950     6.0000     0.0050     4.0187     4.0187    -0.0000
  3 H      1.0046     1.0000    -0.0046     1.0003     1.0003     0.0000
  4 C      5.9955     6.0000     0.0045     4.0188     4.0188     0.0000
  5 H      1.0048     1.0000    -0.0048     1.0003     1.0003     0.0000
  6 C      5.9955     6.0000     0.0045     4.0191     4.0191    -0.0000
  7 H      1.0046     1.0000    -0.0046     1.0003     1.0003     0.0000
  8 C      5.9950     6.0000     0.0050     4.0187     4.0187    -0.0000
  9 H      1.0046     1.0000    -0.0046     1.0003     1.0003    -0.0000
 10 C      5.9955     6.0000     0.0045     4.0188     4.0188    -0.0000
 11 H      1.0048     1.0000    -0.0048     1.0003     1.0003    -0.0000

  Mayer bond orders larger than 0.1
B(  0-C ,  2-C ) :   1.8456 B(  0-C ,  6-C ) :   0.1382 B(  0-C , 10-C ) :   1.8458 
B(  1-H ,  3-H ) :   0.3961 B(  1-H , 11-H ) :   0.3960 B(  2-C ,  4-C ) :   1.8452 
B(  2-C ,  8-C ) :   0.1380 B(  3-H ,  5-H ) :   0.3956 B(  4-C ,  6-C ) :   1.8458 
B(  4-C , 10-C ) :   0.1379 B(  5-H ,  7-H ) :   0.3960 B(  6-C ,  8-C ) :   1.8456 
B(  7-H ,  9-H ) :   0.3961 B(  8-C , 10-C ) :   1.8452 B(  9-H , 11-H ) :   0.3956 


-------
TIMINGS
-------

Total SCF time: 0 days 0 hours 1 min 7 sec 

Total time                  ....      67.212 sec
Sum of individual times     ....      66.958 sec  ( 99.6%)

Fock matrix formation       ....      65.459 sec  ( 97.4%)
  XC integration            ....       4.853 sec  (  7.4% of F)
    Basis function eval.    ....       2.252 sec  ( 46.4% of XC)
    Density eval.           ....       0.380 sec  (  7.8% of XC)
    XC-Functional eval.     ....       1.037 sec  ( 21.4% of XC)
    XC-Potential eval.      ....       0.619 sec  ( 12.7% of XC)
Diagonalization             ....       0.044 sec  (  0.1%)
Density matrix formation    ....       0.002 sec  (  0.0%)
Population analysis         ....       0.012 sec  (  0.0%)
Initial guess               ....       0.362 sec  (  0.5%)
Orbital Transformation      ....       0.000 sec  (  0.0%)
Orbital Orthonormalization  ....       0.000 sec  (  0.0%)
DIIS solution               ....       0.000 sec  (  0.0%)
Grid generation             ....       1.079 sec  (  1.6%)


-------------------------------------------------------------------------------
                          DFT DISPERSION CORRECTION                            
                                                                               
                              DFTD3 V3.1  Rev 1                                
                              USING zero damping                               
-------------------------------------------------------------------------------
The omegaB97X-D3 functional is recognized. Fit by Chai et al.
Active option DFTDOPT                   ...         3   

molecular C6(AA) [au] = 2353.748490 


            DFT-D V3
 parameters
 s6 scaling factor         :     1.0000 
 rs6 scaling factor        :     1.2810 
 s8 scaling factor         :     1.0000 
 rs8 scaling factor        :     1.0940 
 Damping factor alpha6     :    14.0000 
 Damping factor alpha8     :    16.0000 
 ad hoc parameters k1-k3   :    16.0000     1.3333    -4.0000 

 Edisp/kcal,au: -1.151803101449  -0.001835514883 
 E6   /kcal   :  -0.754734804 
 E8   /kcal   :  -0.397068298 
 % E8         :  34.473626380 

-------------------------   ----------------
Dispersion correction           -0.001835515
-------------------------   ----------------


-------------------------   --------------------
FINAL SINGLE POINT ENERGY      -230.653153542067
-------------------------   --------------------


                            ***************************************
                            *     ORCA property calculations      *
                            ***************************************

                                    ---------------------
                                    Active property flags
                                    ---------------------
   (+) Dipole Moment


------------------------------------------------------------------------------
                       ORCA ELECTRIC PROPERTIES CALCULATION
------------------------------------------------------------------------------

Dipole Moment Calculation                       ... on
Quadrupole Moment Calculation                   ... off
Polarizability Calculation                      ... off
GBWName                                         ... Scan_31.gbw
Electron density file                           ... Scan_31.scfp.tmp

-------------
DIPOLE MOMENT
-------------
                                X             Y             Z
Electronic contribution:     -0.00011       0.00011      -0.00000
Nuclear contribution   :      0.00010      -0.00014       0.00000
                        -----------------------------------------
Total Dipole Moment    :     -0.00000      -0.00003      -0.00000
                        -----------------------------------------
Magnitude (a.u.)       :      0.00003
Magnitude (Debye)      :      0.00007


Timings for individual modules:

Sum of individual times         ...       67.658 sec (=   1.128 min)
GTO integral calculation        ...        0.422 sec (=   0.007 min)   0.6 %
SCF iterations                  ...       67.236 sec (=   1.121 min)  99.4 %
                             ****ORCA TERMINATED NORMALLY****
TOTAL RUN TIME: 0 days 0 hours 1 minutes 8 seconds 36 msec
