
                                 *****************
                                 * O   R   C   A *
                                 *****************

           --- An Ab Initio, DFT and Semiempirical electronic structure package ---

                  #######################################################
                  #                        -***-                        #
                  #  Department of molecular theory and spectroscopy    #
                  #              Directorship: Frank Neese              #
                  # Max Planck Institute for Chemical Energy Conversion #
                  #                  D-45470 Muelheim/Ruhr              #
                  #                       Germany                       #
                  #                                                     #
                  #                  All rights reserved                #
                  #                        -***-                        #
                  #######################################################


                         Program Version 4.0.0.2 - RELEASE -


 With contributions from (in alphabetic order):
   Daniel Aravena         : Magnetic Properties
   Michael Atanasov       : Ab Initio Ligand Field Theory
   Ute Becker             : Parallelization
   Martin Brehm           : Molecular dynamics
   Dmytro Bykov           : SCF Hessian
   Vijay G. Chilkuri      : MRCI spin determinant printing
   Dipayan Datta          : RHF DLPNO-CCSD density
   Achintya Kumar Dutta   : EOM-CC, STEOM-CC
   Dmitry Ganyushin       : Spin-Orbit,Spin-Spin,Magnetic field MRCI
   Yang Guo               : DLPNO-NEVPT2, CIM, IAO-localization
   Andreas Hansen         : Spin unrestricted coupled pair/coupled cluster methods
   Lee Huntington         : MR-EOM, pCC
   Robert Izsak           : Overlap fitted RIJCOSX, COSX-SCS-MP3, EOM
   Christian Kollmar      : KDIIS, OOCD, Brueckner-CCSD(T), CCSD density
   Simone Kossmann        : Meta GGA functionals, TD-DFT gradient, OOMP2, MP2 Hessian
   Martin Krupicka        : AUTO-CI
   Dagmar Lenk            : GEPOL surface
   Dimitrios Liakos       : Extrapolation schemes; parallel MDCI
   Dimitrios Manganas     : ROCIS; embedding schemes
   Dimitrios Pantazis     : SARC Basis sets
   Taras Petrenko         : DFT Hessian,TD-DFT gradient, ASA, ECA, R-Raman, ABS, FL, XAS/XES, NRVS
   Peter Pinski           : DLPNO-MP2
   Christoph Reimann      : Effective Core Potentials
   Marius Retegan         : Local ZFS, SOC
   Christoph Riplinger    : Optimizer, TS searches, QM/MM, DLPNO-CCSD(T), (RO)-DLPNO pert. Triples
   Tobias Risthaus        : Range-separated hybrids, TD-DFT gradient, RPA, STAB
   Michael Roemelt        : Restricted open shell CIS
   Masaaki Saitow         : Open-shell DLPNO
   Barbara Sandhoefer     : DKH picture change effects
   Kantharuban Sivalingam : CASSCF convergence, NEVPT2, FIC-MRCI
   Georgi Stoychev        : AutoAux
   Boris Wezisla          : Elementary symmetry handling
   Frank Wennmohs         : Technical directorship


 We gratefully acknowledge several colleagues who have allowed us to
 interface, adapt or use parts of their codes:
   Stefan Grimme, W. Hujo, H. Kruse,             : VdW corrections, initial TS optimization,
                  C. Bannwarth                     DFT functionals, gCP, sTDA/sTD-DF
   Ed Valeev                                     : LibInt (2-el integral package), F12 methods
   Garnet Chan, S. Sharma, J. Yang, R. Olivares  : DMRG
   Ulf Ekstrom                                   : XCFun DFT Library
   Mihaly Kallay                                 : mrcc  (arbitrary order and MRCC methods)
   Jiri Pittner, Ondrej Demel                    : Mk-CCSD
   Frank Weinhold                                : gennbo (NPA and NBO analysis)
   Christopher J. Cramer and Donald G. Truhlar   : smd solvation model


 Your calculation uses the libint2 library for the computation of 2-el integrals
 For citations please refer to: http://libint.valeyev.net

 This ORCA versions uses:
   CBLAS   interface :  Fast vector & matrix operations
   LAPACKE interface :  Fast linear algebra routines
   SCALAPACK package :  Parallel linear algebra routines


Your calculation utilizes the atom-pairwise dispersion correction
with the zero-damping scheme (D30)
Cite in your paper:
S.Grimme, J.Antony, S.Ehrlich and H.Krieg, J.Chem.Phys., 132, (2010), 154104 
   

XCFun DFT library Copyright 2009-2010 Ulf Ekstrom and contributors.
See http://admol.org/xcfun for more information. This is free soft-
ware; see the source code for copying conditions. There is ABSOLUTELY
NO WARRANTY; not even for MERCHANTABILITY or FITNESS FOR A PARTICULAR
PURPOSE. For details see the documentation. Scientific users of this 
library should cite U. Ekstrom, L. Visscher, R. Bast, A. J. Thorvald-
sen and K. Ruud; J.Chem.Theor.Comp. 2010, DOI: 10.1021/ct100117s
XCFun Version 0.99 
Your calculation utilizes the basis: 6-31G(d)
   H-He, Li-Ne : W. J. Hehre, R. Ditchfield and J.A. Pople, J. Chem. Phys. 56, 2257 (1972).
                 Note: He and Ne are unpublished basis sets taken from the Gaussian program.
                 Note: Li and B from J. D. Dill and J. A. Pople, J. Chem. Phys. 62, 2921 (1975).
   Na - Ar     : M. M. Francl, W. J. Pietro, W. J. Hehre, J. S. Binkley, M. S. Gordon, 
                 D. J. DeFrees and J. A. Pople, J. Chem. Phys. 77, 3654 (1982).
   K - Zn      : V. A. Rassolov, J. A. Pople, M. A. Ratner, and T. L. Windus, J. Chem. Phys. 109, 1223 (1998).

================================================================================
                                        WARNINGS
                       Please study these warnings very carefully!
================================================================================

Warning: TCutStore was < 0. Adjusted to Thresh (uncritical)

INFO   : the flag for use of LIBINT has been found!

================================================================================
                                       INPUT FILE
================================================================================
NAME = initial32.inp
|  1> ! WB97X-D3 6-31G(d) VerySlowConv
|  2> ! KDIIS NOSOSCF
|  3> %base "Scan_32"
|  4> 
|  5> %scf
|  6> maxiter 999
|  7> end
|  8> 
|  9> * xyz 0 1
| 10> C          1.459458299210   -2.844778790352   -0.000002076682
| 11> H          5.118829504566   -3.124979941949    0.000000716076
| 12> C          0.882813610146   -1.642433495895   -0.000015189362
| 13> H          2.955171066901    1.386567252888    0.000005012255
| 14> C         -0.446771430229   -1.540649923665   -0.000013019550
| 15> H         -2.033827474933    1.768544146831    0.000004173937
| 16> C         -1.199709302959   -2.641213690029    0.000002064852
| 17> H         -4.859087950251   -2.361109385419   -0.000000654649
| 18> C         -0.623063533680   -3.843559056999    0.000015176843
| 19> H         -2.695322212821   -6.872627438909   -0.000004911891
| 20> C          0.706521505749   -3.945342685928    0.000013007224
| 21> H          2.293597918301   -7.254526990575   -0.000004299053
| 22> **                         ****END OF INPUT****
================================================================================

                       ****************************
                       * Single Point Calculation *
                       ****************************

---------------------------------
CARTESIAN COORDINATES (ANGSTROEM)
---------------------------------
  C      1.459458   -2.844779   -0.000002
  H      5.118830   -3.124980    0.000001
  C      0.882814   -1.642433   -0.000015
  H      2.955171    1.386567    0.000005
  C     -0.446771   -1.540650   -0.000013
  H     -2.033827    1.768544    0.000004
  C     -1.199709   -2.641214    0.000002
  H     -4.859088   -2.361109   -0.000001
  C     -0.623064   -3.843559    0.000015
  H     -2.695322   -6.872627   -0.000005
  C      0.706522   -3.945343    0.000013
  H      2.293598   -7.254527   -0.000004

----------------------------
CARTESIAN COORDINATES (A.U.)
----------------------------
  NO LB      ZA    FRAG     MASS         X           Y           Z
   0 C     6.0000    0    12.011    2.757976   -5.375853   -0.000004
   1 H     1.0000    0     1.008    9.673186   -5.905356    0.000001
   2 C     6.0000    0    12.011    1.668276   -3.103750   -0.000029
   3 H     1.0000    0     1.008    5.584464    2.620232    0.000009
   4 C     6.0000    0    12.011   -0.844276   -2.911406   -0.000025
   5 H     1.0000    0     1.008   -3.843377    3.342064    0.000008
   6 C     6.0000    0    12.011   -2.267122   -4.991171    0.000004
   7 H     1.0000    0     1.008   -9.182345   -4.461850   -0.000001
   8 C     6.0000    0    12.011   -1.177419   -7.263274    0.000029
   9 H     1.0000    0     1.008   -5.093421  -12.987384   -0.000009
  10 C     6.0000    0    12.011    1.335132   -7.455617    0.000025
  11 H     1.0000    0     1.008    4.334272  -13.709069   -0.000008

--------------------------------
INTERNAL COORDINATES (ANGSTROEM)
--------------------------------
 C      0   0   0     0.000000000000     0.00000000     0.00000000
 H      1   0   0     3.670083146736     0.00000000     0.00000000
 C      1   2   0     1.333474148494   120.00101400     0.00000000
 H      3   1   2     3.670083236809   119.99878761     0.00000000
 C      3   1   2     1.333475262301   119.99999093   180.00015798
 H      5   3   1     3.670083416700   119.99952476   179.99903948
 C      5   3   1     1.333475175716   119.99990849     0.00000000
 H      7   5   3     3.670083174224   120.00040181   180.00015669
 C      7   5   3     1.333474681002   120.00006007     0.00000000
 H      9   7   5     3.670083281884   120.00061602   180.00111055
 C      1   2   3     1.333474672958   119.99884401   180.00014813
 H     11   1   2     3.670083418902   120.00025551     0.00000000

---------------------------
INTERNAL COORDINATES (A.U.)
---------------------------
 C      0   0   0     0.000000000000     0.00000000     0.00000000
 H      1   0   0     6.935452036050     0.00000000     0.00000000
 C      1   2   0     2.519900947317   120.00101400     0.00000000
 H      3   1   2     6.935452206264   119.99878761     0.00000000
 C      3   1   2     2.519903052108   119.99999093   180.00015798
 H      5   3   1     6.935452546208   119.99952476   179.99903948
 C      5   3   1     2.519902888487   119.99990849     0.00000000
 H      7   5   3     6.935452087997   120.00040181   180.00015669
 C      7   5   3     2.519901953612   120.00006007     0.00000000
 H      9   7   5     6.935452291444   120.00061602   180.00111055
 C      1   2   3     2.519901938411   119.99884401   180.00014813
 H     11   1   2     6.935452550370   120.00025551     0.00000000

---------------------
BASIS SET INFORMATION
---------------------
There are 2 groups of distinct atoms

 Group   1 Type C   : 10s4p1d contracted to 3s2p1d pattern {631/31/1}
 Group   2 Type H   : 4s contracted to 2s pattern {31}

Atom   0C    basis set group =>   1
Atom   1H    basis set group =>   2
Atom   2C    basis set group =>   1
Atom   3H    basis set group =>   2
Atom   4C    basis set group =>   1
Atom   5H    basis set group =>   2
Atom   6C    basis set group =>   1
Atom   7H    basis set group =>   2
Atom   8C    basis set group =>   1
Atom   9H    basis set group =>   2
Atom  10C    basis set group =>   1
Atom  11H    basis set group =>   2
------------------------------------------------------------------------------
                           ORCA GTO INTEGRAL CALCULATION
------------------------------------------------------------------------------

                         BASIS SET STATISTICS AND STARTUP INFO

 # of primitive gaussian shells          ...  114
 # of primitive gaussian functions       ...  186
 # of contracted shells                  ...   48
 # of contracted basis functions         ...   96
 Highest angular momentum                ...    2
 Maximum contraction depth               ...    6
 Integral package used                   ... LIBINT
 Integral threshhold            Thresh   ...  1.000e-10
 Primitive cut-off              TCut     ...  1.000e-11


------------------------------ INTEGRAL EVALUATION ----------------------------


 * One electron integrals 
 Pre-screening matrix                    ... done
 Shell pair data                         ... done (   0.001 sec)

-------------------------------------------------------------------------------
                                 ORCA SCF
-------------------------------------------------------------------------------

------------
SCF SETTINGS
------------
Hamiltonian:
 Density Functional     Method          .... DFT(GTOs)
 Exchange Functional    Exchange        .... WB97X-D3
 Correlation Functional Correlation     .... WB97X-D3
 Gradients option       PostSCFGGA      .... off
 Hybrid DFT is turned on
   Fraction HF Exchange ScalHFX         ....  0.195728
   Scaling of DF-GGA-X  ScalDFX         ....  0.000000
   Scaling of DF-GGA-C  ScalDFC         ....  1.000000
   Scaling of DF-LDA-C  ScalLDAC        ....  1.000000
   Perturbative correction              ....  0.000000
 Long-range corrected/Screened/Range-Separated Hybrid DFT is turned on
   Amount of maximum screened exact exchange              ....  0.804272
   Range separation parameter mu (erf(mu*r12)/r12)        ....  0.250000


General Settings:
 Integral files         IntName         .... Scan_32
 Hartree-Fock type      HFTyp           .... RHF
 Total Charge           Charge          ....    0
 Multiplicity           Mult            ....    1
 Number of Electrons    NEL             ....   42
 Basis Dimension        Dim             ....   96
 Nuclear Repulsion      ENuc            ....    181.0663602639 Eh

Convergence Acceleration:
 DIIS                   CNVDIIS         .... on
   Start iteration      DIISMaxIt       ....     0
   Startup error        DIISStart       ....  0.200000
   # of expansion vecs  DIISMaxEq       ....     5
   Bias factor          DIISBfac        ....   1.050
   Max. coefficient     DIISMaxC        ....  10.000
 Newton-Raphson         CNVNR           .... off
 SOSCF                  CNVSOSCF        .... off
 Level Shifting         CNVShift        .... off
 Zerner damping         CNVZerner       .... off
 Static damping         CNVDamp         .... off
 Fernandez-Rico         CNVRico         .... off

SCF Procedure:
 Maximum # iterations   MaxIter         ....   999
 SCF integral mode      SCFMode         .... Direct
   Integral package                     .... LIBINT
 Reset frequeny         DirectResetFreq ....    20
 Integral Threshold     Thresh          ....  1.000e-10 Eh
 Primitive CutOff       TCut            ....  1.000e-11 Eh

Convergence Tolerance:
 Convergence Check Mode ConvCheckMode   .... All-Criteria
 Convergence forced     ConvForced      .... 0
 Energy Change          TolE            ....  1.000e-06 Eh
 Max Density Change     TolMaxP         ....  1.000e-05
 RMS Density Change     TolRMSP         ....  1.000e-06
 DIIS Error             TolErr          ....  1.000e-06


Diagonalization of the overlap matrix:
Smallest eigenvalue                        ... 1.235e-03
Time for diagonalization                   ...    0.002 sec
Threshold for overlap eigenvalues          ... 1.000e-08
Number of eigenvalues below threshold      ... 0
Time for construction of square roots      ...    0.007 sec
Total time needed                          ...    0.009 sec

-------------------
DFT GRID GENERATION
-------------------

General Integration Accuracy     IntAcc      ...  4.340
Radial Grid Type                 RadialGrid  ... Gauss-Chebyshev
Angular Grid (max. acc.)         AngularGrid ... Lebedev-110
Angular grid pruning method      GridPruning ... 3 (G Style)
Weight generation scheme         WeightScheme... Becke
Basis function cutoff            BFCut       ...    1.0000e-10
Integration weight cutoff        WCut        ...    1.0000e-14
Grids for H and He will be reduced by one unit

# of grid points (after initial pruning)     ...  14700 (   0.0 sec)
# of grid points (after weights+screening)   ...  14108 (   0.0 sec)
nearest neighbour list constructed           ...    0.0 sec
Grid point re-assignment to atoms done       ...    0.0 sec
Grid point division into batches done        ...    0.0 sec
Reduced shell lists constructed in    0.2 sec

Total number of grid points                  ...    14108
Total number of batches                      ...      226
Average number of points per batch           ...       62
Average number of grid points per atom       ...     1176
Average number of shells per batch           ...    29.86 (62.21%)
Average number of basis functions per batch  ...    64.08 (66.75%)
Average number of large shells per batch     ...    21.76 (72.88%)
Average number of large basis fcns per batch ...    48.85 (76.23%)
Maximum spatial batch extension              ...  16.11, 20.28, 25.60 au
Average spatial batch extension              ...   4.07,  4.56,  5.56 au

Time for grid setup =    0.240 sec

------------------------------
INITIAL GUESS: MODEL POTENTIAL
------------------------------
Loading Hartree-Fock densities                     ... done
Calculating cut-offs                               ... done
Setting up the integral package                    ... done
Initializing the effective Hamiltonian             ... done
Starting the Coulomb interaction                   ... done (   0.1 sec)
Reading the grid                                   ... done
Mapping shells                                     ... done
Starting the XC term evaluation                    ... done (   0.2 sec)
  promolecular density results
     # of electrons  =     41.995604504
     EX              =    -32.043908581
     EC              =     -1.258894276
     EX+EC           =    -33.302802857
Transforming the Hamiltonian                       ... done (   0.0 sec)
Diagonalizing the Hamiltonian                      ... done (   0.0 sec)
Back transforming the eigenvectors                 ... done (   0.0 sec)
Now organizing SCF variables                       ... done
                      ------------------
                      INITIAL GUESS DONE (   0.6 sec)
                      ------------------
--------------
SCF ITERATIONS
--------------
ITER       Energy         Delta-E        Max-DP      RMS-DP      [F,P]   Gradient Norm
               ***  Starting incremental Fock matrix formation  ***
                             ****Resetting KDIIS****
                             ****Turning on KDIIS(Cayley)****
  0   -229.9746185933   0.000000000000 0.02992027  0.00220299  0.1754656   0.109230382
  1   -230.0788776253  -0.104259032003 0.04002231  0.00304867  0.1704243   0.093183412
  2   -230.2128767508  -0.133999125510 0.05559235  0.00461190  0.1648296   0.075876255
  3   -230.3040247875  -0.091148036702 0.13294382  0.01092830  0.1480628   0.051038371
  4   -230.3427054640  -0.038680676425 0.05294780  0.00309788  0.1169593   0.030854412
  5   -230.4073782282  -0.064672764294 0.06665234  0.00433359  0.1176115   0.028406722
  6   -230.5070149868  -0.099636758578 0.08692296  0.00634403  0.0894533   0.023377258
  7   -230.5936831009  -0.086668114091 0.09715742  0.00756801  0.0289951   0.013392362
  8   -230.4797331442   0.113949956728 0.03224550  0.00219105  0.1006483   0.026471142
  9   -230.4375227303   0.042210413884 0.00266580  0.00020828  0.1104630   0.025681553
 10   -230.4419121769  -0.004389446614 0.11874778  0.00843434  0.1091980   0.025595012
 11   -230.5709827284  -0.129070551456 0.05030691  0.00295078  0.0348497   0.015695450
 12   -230.5966147011  -0.025631972706 0.02971292  0.00275547  0.0344579   0.013663586
 13   -230.6173148857  -0.020700184573 0.03640111  0.00197552  0.0178485   0.010883594
 14   -230.6241331958  -0.006818310139 0.02163532  0.00131547  0.0180687   0.009865548
 15   -230.6312671844  -0.007133988630 0.02302984  0.00224588  0.0140009   0.006778513
 16   -230.6378387652  -0.006571580794 0.01940862  0.00128789  0.0096832   0.004354797
 17   -230.6408803072  -0.003041541950 0.01053639  0.00076043  0.0086197   0.004268697
 18   -230.6425840958  -0.001703788640 0.01569511  0.00086227  0.0056449   0.001950691
 19   -230.6436966380  -0.001112542202 0.00512928  0.00034386  0.0021749   0.001678993
               *** Restarting incremental Fock matrix formation ***
                             ****Resetting KDIIS****
 20   -230.6439196900  -0.000223052008 0.00028734  0.00001733  0.0012491   0.000990725
 21   -230.6439341336  -0.000014443533 0.00051916  0.00003002  0.0012240   0.000797174
 22   -230.6439523853  -0.000018251742 0.00243474  0.00013685  0.0011524   0.000702052
 23   -230.6440157238  -0.000063338514 0.00549650  0.00030828  0.0008082   0.000500673
 24   -230.6440804508  -0.000064726974 0.00072968  0.00002812  0.0002102   0.000164697
 25   -230.6440823256  -0.000001874780 0.00063311  0.00001952  0.0001493   0.000072488
                          ***Energy convergence achieved***
 26   -230.6440832300  -0.000000904472 0.00095386  0.00002426  0.0000927   0.000060819
 27   -230.6440841102  -0.000000880148 0.00036981  0.00001043  0.0000628   0.000055926
 28   -230.6440843497  -0.000000239487 0.00048167  0.00001161  0.0000547   0.000043488
 29   -230.6440845804  -0.000000230719 0.00050392  0.00001166  0.0000392   0.000033471
 30   -230.6440847309  -0.000000150471 0.00035005  0.00000809  0.0000165   0.000015172

            ***Energy convergence in two consecutive cycles with***
                    ***'reasonable' density convergence***
                       *** signaling convergence ***

                    *** KDIIS BlockDiag ( 0.001 sec) ***

               *****************************************************
               *                     SUCCESS                       *
               *           SCF CONVERGED AFTER  31 CYCLES          *
               *****************************************************

Setting up the final grid:

General Integration Accuracy     IntAcc      ...  4.670
Radial Grid Type                 RadialGrid  ... Gauss-Chebyshev
Angular Grid (max. acc.)         AngularGrid ... Lebedev-302
Angular grid pruning method      GridPruning ... 3 (G Style)
Weight generation scheme         WeightScheme... Becke
Basis function cutoff            BFCut       ...    1.0000e-10
Integration weight cutoff        WCut        ...    1.0000e-14
Grids for H and He will be reduced by one unit

# of grid points (after initial pruning)     ...  57636 (   0.0 sec)
# of grid points (after weights+screening)   ...  54968 (   0.1 sec)
nearest neighbour list constructed           ...    0.0 sec
Grid point re-assignment to atoms done       ...    0.0 sec
Grid point division into batches done        ...    0.2 sec
Reduced shell lists constructed in    0.7 sec

Total number of grid points                  ...    54968
Total number of batches                      ...      864
Average number of points per batch           ...       63
Average number of grid points per atom       ...     4581
Average number of shells per batch           ...    25.98 (54.14%)
Average number of basis functions per batch  ...    55.57 (57.88%)
Average number of large shells per batch     ...    18.53 (71.30%)
Average number of large basis fcns per batch ...    41.48 (74.65%)
Maximum spatial batch extension              ...  14.50, 17.28, 17.69 au
Average spatial batch extension              ...   2.79,  2.90,  3.22 au

Final grid set up in    0.8 sec
Final integration                            ... done (   0.7 sec)
Change in XC energy                          ...     0.000907435
Integrated number of electrons               ...    42.000012863
Previous integrated no of electrons          ...    42.000925889

----------------
TOTAL SCF ENERGY
----------------

Total Energy       :         -230.64317734 Eh           -6276.11993 eV

Components:
Nuclear Repulsion  :          181.06636026 Eh            4927.06615 eV
Electronic Energy  :         -411.70953760 Eh          -11203.18608 eV
One Electron Energy:         -667.07920868 Eh          -18152.14811 eV
Two Electron Energy:          255.36967108 Eh            6948.96203 eV

Virial components:
Potential Energy   :         -459.36243576 Eh          -12499.88736 eV
Kinetic Energy     :          228.71925842 Eh            6223.76743 eV
Virial Ratio       :            2.00841170


DFT components:
N(Alpha)           :       21.000006431578 electrons
N(Beta)            :       21.000006431578 electrons
N(Total)           :       42.000012863156 electrons
E(XC)              :      -22.958980126585 Eh       

---------------
SCF CONVERGENCE
---------------

  Last Energy change         ...   -4.3622e-08  Tolerance :   1.0000e-06
  Last MAX-Density change    ...    5.3996e-05  Tolerance :   1.0000e-05
  Last RMS-Density change    ...    1.7855e-06  Tolerance :   1.0000e-06
  Last DIIS Error            ...    1.9042e-05  Tolerance :   1.0000e-06

             **** THE GBW FILE WAS UPDATED (Scan_32.gbw) ****
             **** DENSITY FILE WAS UPDATED (Scan_32.scfp.tmp) ****
             **** ENERGY FILE WAS UPDATED (Scan_32.en.tmp) ****
----------------
ORBITAL ENERGIES
----------------

  NO   OCC          E(Eh)            E(eV) 
   0   2.0000     -10.372804      -282.2583 
   1   2.0000     -10.372479      -282.2495 
   2   2.0000     -10.372416      -282.2478 
   3   2.0000     -10.371652      -282.2270 
   4   2.0000     -10.371587      -282.2252 
   5   2.0000     -10.371246      -282.2160 
   6   2.0000      -1.035252       -28.1706 
   7   2.0000      -0.890842       -24.2410 
   8   2.0000      -0.890775       -24.2392 
   9   2.0000      -0.705691       -19.2028 
  10   2.0000      -0.705504       -19.1977 
  11   2.0000      -0.605009       -16.4631 
  12   2.0000      -0.531881       -14.4732 
  13   2.0000      -0.526970       -14.3396 
  14   2.0000      -0.386823       -10.5260 
  15   2.0000      -0.386631       -10.5208 
  16   2.0000      -0.363793        -9.8993 
  17   2.0000      -0.363465        -9.8904 
  18   2.0000      -0.293803        -7.9948 
  19   2.0000      -0.276502        -7.5240 
  20   2.0000      -0.276481        -7.5234 
  21   0.0000      -0.183436        -4.9916 
  22   0.0000      -0.183405        -4.9907 
  23   0.0000      -0.169984        -4.6255 
  24   0.0000      -0.082246        -2.2380 
  25   0.0000      -0.026149        -0.7115 
  26   0.0000      -0.025740        -0.7004 
  27   0.0000       0.060259         1.6397 
  28   0.0000       0.060334         1.6418 
  29   0.0000       0.268515         7.3067 
  30   0.0000       0.367457         9.9990 
  31   0.0000       0.367631        10.0037 
  32   0.0000       0.490533        13.3481 
  33   0.0000       0.490851        13.3567 
  34   0.0000       0.540365        14.7041 
  35   0.0000       0.550441        14.9783 
  36   0.0000       0.569126        15.4867 
  37   0.0000       0.573666        15.6102 
  38   0.0000       0.573934        15.6175 
  39   0.0000       0.579091        15.7579 
  40   0.0000       0.648423        17.6445 
  41   0.0000       0.648649        17.6506 
  42   0.0000       0.657686        17.8965 
  43   0.0000       0.657773        17.8989 
  44   0.0000       0.676249        18.4017 
  45   0.0000       0.745244        20.2791 
  46   0.0000       0.745310        20.2809 
  47   0.0000       0.753764        20.5110 
  48   0.0000       0.773347        21.0438 
  49   0.0000       0.773512        21.0483 
  50   0.0000       0.811912        22.0933 
  51   0.0000       0.812137        22.0994 
  52   0.0000       0.845289        23.0015 
  53   0.0000       0.853438        23.2232 
  54   0.0000       0.869961        23.6729 
  55   0.0000       0.894792        24.3485 
  56   0.0000       0.894985        24.3538 
  57   0.0000       0.895404        24.3652 
  58   0.0000       0.895529        24.3686 
  59   0.0000       0.901533        24.5319 
  60   0.0000       1.073414        29.2091 
  61   0.0000       1.073917        29.2228 
  62   0.0000       1.122062        30.5329 
  63   0.0000       1.246698        33.9244 
  64   0.0000       1.246883        33.9294 
  65   0.0000       1.305120        35.5141 
  66   0.0000       1.374820        37.4108 
  67   0.0000       1.440911        39.2092 
  68   0.0000       1.568468        42.6802 
  69   0.0000       1.568922        42.6925 
  70   0.0000       1.582077        43.0505 
  71   0.0000       1.598450        43.4960 
  72   0.0000       1.598806        43.5057 
  73   0.0000       1.789727        48.7009 
  74   0.0000       1.790535        48.7229 
  75   0.0000       1.879205        51.1358 
  76   0.0000       1.911292        52.0089 
  77   0.0000       2.200382        59.8754 
  78   0.0000       2.200918        59.8900 
  79   0.0000       2.267116        61.6914 
  80   0.0000       2.267432        61.7000 
  81   0.0000       2.268690        61.7342 
  82   0.0000       2.269728        61.7624 
  83   0.0000       2.418009        65.7974 
  84   0.0000       2.418544        65.8119 
  85   0.0000       2.487131        67.6783 
  86   0.0000       2.487234        67.6811 
  87   0.0000       2.488045        67.7031 
  88   0.0000       2.561381        69.6987 
  89   0.0000       2.810404        76.4750 
  90   0.0000       2.811818        76.5134 
  91   0.0000       2.829777        77.0022 
  92   0.0000       2.884360        78.4874 
  93   0.0000       2.885178        78.5097 
  94   0.0000       3.186922        86.7206 
  95   0.0000       3.479220        94.6744 

                    ********************************
                    * MULLIKEN POPULATION ANALYSIS *
                    ********************************

-----------------------
MULLIKEN ATOMIC CHARGES
-----------------------
   0 C :    0.003725
   1 H :   -0.003782
   2 C :    0.004255
   3 H :   -0.003928
   4 C :    0.003631
   5 H :   -0.003912
   6 C :    0.003734
   7 H :   -0.003784
   8 C :    0.004268
   9 H :   -0.003928
  10 C :    0.003632
  11 H :   -0.003910
Sum of atomic charges:   -0.0000000

--------------------------------
MULLIKEN REDUCED ORBITAL CHARGES
--------------------------------
  0 C s       :     3.125609  s :     3.125609
      pz      :     0.987973  p :     2.835507
      px      :     0.967610
      py      :     0.879924
      dz2     :     0.002473  d :     0.035159
      dxz     :     0.003519
      dyz     :     0.008267
      dx2y2   :     0.008483
      dxy     :     0.012418
  1 H s       :     1.003782  s :     1.003782
  2 C s       :     3.125785  s :     3.125785
      pz      :     0.988490  p :     2.834801
      px      :     0.906881
      py      :     0.939430
      dz2     :     0.002438  d :     0.035159
      dxz     :     0.006781
      dyz     :     0.005049
      dx2y2   :     0.012008
      dxy     :     0.008883
  3 H s       :     1.003928  s :     1.003928
  4 C s       :     3.126533  s :     3.126533
      pz      :     0.988120  p :     2.834601
      px      :     0.896772
      py      :     0.949710
      dz2     :     0.002471  d :     0.035235
      dxz     :     0.007411
      dyz     :     0.004395
      dx2y2   :     0.010920
      dxy     :     0.010038
  5 H s       :     1.003912  s :     1.003912
  6 C s       :     3.125609  s :     3.125609
      pz      :     0.987971  p :     2.835498
      px      :     0.967606
      py      :     0.879922
      dz2     :     0.002473  d :     0.035159
      dxz     :     0.003519
      dyz     :     0.008267
      dx2y2   :     0.008483
      dxy     :     0.012418
  7 H s       :     1.003784  s :     1.003784
  8 C s       :     3.125783  s :     3.125783
      pz      :     0.988485  p :     2.834790
      px      :     0.906883
      py      :     0.939423
      dz2     :     0.002438  d :     0.035159
      dxz     :     0.006781
      dyz     :     0.005049
      dx2y2   :     0.012008
      dxy     :     0.008883
  9 H s       :     1.003928  s :     1.003928
 10 C s       :     3.126532  s :     3.126532
      pz      :     0.988117  p :     2.834601
      px      :     0.896774
      py      :     0.949710
      dz2     :     0.002471  d :     0.035235
      dxz     :     0.007411
      dyz     :     0.004395
      dx2y2   :     0.010920
      dxy     :     0.010038
 11 H s       :     1.003910  s :     1.003910


                     *******************************
                     * LOEWDIN POPULATION ANALYSIS *
                     *******************************

----------------------
LOEWDIN ATOMIC CHARGES
----------------------
   0 C :    0.004429
   1 H :   -0.004417
   2 C :    0.004537
   3 H :   -0.004561
   4 C :    0.004548
   5 H :   -0.004547
   6 C :    0.004438
   7 H :   -0.004419
   8 C :    0.004548
   9 H :   -0.004561
  10 C :    0.004548
  11 H :   -0.004544

-------------------------------
LOEWDIN REDUCED ORBITAL CHARGES
-------------------------------
  0 C s       :     2.939671  s :     2.939671
      pz      :     0.977055  p :     2.975608
      px      :     0.965346
      py      :     1.033206
      dz2     :     0.005933  d :     0.080292
      dxz     :     0.004906
      dyz     :     0.017866
      dx2y2   :     0.015332
      dxy     :     0.036255
  1 H s       :     1.004417  s :     1.004417
  2 C s       :     2.939803  s :     2.939803
      pz      :     0.977478  p :     2.975345
      px      :     1.011569
      py      :     0.986299
      dz2     :     0.005908  d :     0.080315
      dxz     :     0.013783
      dyz     :     0.009033
      dx2y2   :     0.033931
      dxy     :     0.017660
  3 H s       :     1.004561  s :     1.004561
  4 C s       :     2.940019  s :     2.940019
      pz      :     0.977099  p :     2.975103
      px      :     1.021580
      py      :     0.976425
      dz2     :     0.005928  d :     0.080329
      dxz     :     0.015504
      dyz     :     0.007281
      dx2y2   :     0.028206
      dxy     :     0.023410
  5 H s       :     1.004547  s :     1.004547
  6 C s       :     2.939671  s :     2.939671
      pz      :     0.977053  p :     2.975599
      px      :     0.965343
      py      :     1.033203
      dz2     :     0.005933  d :     0.080292
      dxz     :     0.004906
      dyz     :     0.017866
      dx2y2   :     0.015332
      dxy     :     0.036255
  7 H s       :     1.004419  s :     1.004419
  8 C s       :     2.939802  s :     2.939802
      pz      :     0.977473  p :     2.975335
      px      :     1.011574
      py      :     0.986288
      dz2     :     0.005908  d :     0.080315
      dxz     :     0.013783
      dyz     :     0.009033
      dx2y2   :     0.033931
      dxy     :     0.017660
  9 H s       :     1.004561  s :     1.004561
 10 C s       :     2.940019  s :     2.940019
      pz      :     0.977096  p :     2.975104
      px      :     1.021585
      py      :     0.976423
      dz2     :     0.005928  d :     0.080329
      dxz     :     0.015503
      dyz     :     0.007281
      dx2y2   :     0.028207
      dxy     :     0.023410
 11 H s       :     1.004544  s :     1.004544


                      *****************************
                      * MAYER POPULATION ANALYSIS *
                      *****************************

  NA   - Mulliken gross atomic population
  ZA   - Total nuclear charge
  QA   - Mulliken gross atomic charge
  VA   - Mayer's total valence
  BVA  - Mayer's bonded valence
  FA   - Mayer's free valence

  ATOM       NA         ZA         QA         VA         BVA        FA
  0 C      5.9963     6.0000     0.0037     4.0179     4.0179    -0.0000
  1 H      1.0038     1.0000    -0.0038     1.0003     1.0003    -0.0000
  2 C      5.9957     6.0000     0.0043     4.0174     4.0174    -0.0000
  3 H      1.0039     1.0000    -0.0039     1.0003     1.0003    -0.0000
  4 C      5.9964     6.0000     0.0036     4.0174     4.0174     0.0000
  5 H      1.0039     1.0000    -0.0039     1.0003     1.0003    -0.0000
  6 C      5.9963     6.0000     0.0037     4.0179     4.0179    -0.0000
  7 H      1.0038     1.0000    -0.0038     1.0003     1.0003    -0.0000
  8 C      5.9957     6.0000     0.0043     4.0174     4.0174    -0.0000
  9 H      1.0039     1.0000    -0.0039     1.0003     1.0003    -0.0000
 10 C      5.9964     6.0000     0.0036     4.0174     4.0174    -0.0000
 11 H      1.0039     1.0000    -0.0039     1.0003     1.0003    -0.0000

  Mayer bond orders larger than 0.1
B(  0-C ,  2-C ) :   1.8577 B(  0-C ,  6-C ) :   0.1419 B(  0-C , 10-C ) :   1.8579 
B(  1-H ,  3-H ) :   0.4106 B(  1-H , 11-H ) :   0.4097 B(  2-C ,  4-C ) :   1.8573 
B(  2-C ,  8-C ) :   0.1418 B(  3-H ,  5-H ) :   0.4093 B(  4-C ,  6-C ) :   1.8580 
B(  4-C , 10-C ) :   0.1416 B(  5-H ,  7-H ) :   0.4109 B(  6-C ,  8-C ) :   1.8576 
B(  7-H ,  9-H ) :   0.4094 B(  8-C , 10-C ) :   1.8573 B(  9-H , 11-H ) :   0.4106 


-------
TIMINGS
-------

Total SCF time: 0 days 0 hours 1 min 43 sec 

Total time                  ....     103.051 sec
Sum of individual times     ....     102.695 sec  ( 99.7%)

Fock matrix formation       ....     101.206 sec  ( 98.2%)
  XC integration            ....       7.212 sec  (  7.1% of F)
    Basis function eval.    ....       3.340 sec  ( 46.3% of XC)
    Density eval.           ....       0.542 sec  (  7.5% of XC)
    XC-Functional eval.     ....       1.567 sec  ( 21.7% of XC)
    XC-Potential eval.      ....       0.876 sec  ( 12.1% of XC)
Diagonalization             ....       0.048 sec  (  0.0%)
Density matrix formation    ....       0.004 sec  (  0.0%)
Population analysis         ....       0.012 sec  (  0.0%)
Initial guess               ....       0.360 sec  (  0.3%)
Orbital Transformation      ....       0.000 sec  (  0.0%)
Orbital Orthonormalization  ....       0.000 sec  (  0.0%)
DIIS solution               ....       0.000 sec  (  0.0%)
Grid generation             ....       1.065 sec  (  1.0%)


-------------------------------------------------------------------------------
                          DFT DISPERSION CORRECTION                            
                                                                               
                              DFTD3 V3.1  Rev 1                                
                              USING zero damping                               
-------------------------------------------------------------------------------
The omegaB97X-D3 functional is recognized. Fit by Chai et al.
Active option DFTDOPT                   ...         3   

molecular C6(AA) [au] = 2353.752765 


            DFT-D V3
 parameters
 s6 scaling factor         :     1.0000 
 rs6 scaling factor        :     1.2810 
 s8 scaling factor         :     1.0000 
 rs8 scaling factor        :     1.0940 
 Damping factor alpha6     :    14.0000 
 Damping factor alpha8     :    16.0000 
 ad hoc parameters k1-k3   :    16.0000     1.3333    -4.0000 

 Edisp/kcal,au: -1.044758201866  -0.001664927995 
 E6   /kcal   :  -0.706994703 
 E8   /kcal   :  -0.337763499 
 % E8         :  32.329346476 

-------------------------   ----------------
Dispersion correction           -0.001664928
-------------------------   ----------------


-------------------------   --------------------
FINAL SINGLE POINT ENERGY      -230.644842267710
-------------------------   --------------------


                            ***************************************
                            *     ORCA property calculations      *
                            ***************************************

                                    ---------------------
                                    Active property flags
                                    ---------------------
   (+) Dipole Moment


------------------------------------------------------------------------------
                       ORCA ELECTRIC PROPERTIES CALCULATION
------------------------------------------------------------------------------

Dipole Moment Calculation                       ... on
Quadrupole Moment Calculation                   ... off
Polarizability Calculation                      ... off
GBWName                                         ... Scan_32.gbw
Electron density file                           ... Scan_32.scfp.tmp

-------------
DIPOLE MOMENT
-------------
                                X             Y             Z
Electronic contribution:     -0.00011       0.00009      -0.00000
Nuclear contribution   :      0.00010      -0.00013       0.00000
                        -----------------------------------------
Total Dipole Moment    :     -0.00002      -0.00004      -0.00000
                        -----------------------------------------
Magnitude (a.u.)       :      0.00004
Magnitude (Debye)      :      0.00011


Timings for individual modules:

Sum of individual times         ...      103.499 sec (=   1.725 min)
GTO integral calculation        ...        0.424 sec (=   0.007 min)   0.4 %
SCF iterations                  ...      103.074 sec (=   1.718 min)  99.6 %
                             ****ORCA TERMINATED NORMALLY****
TOTAL RUN TIME: 0 days 0 hours 1 minutes 43 seconds 869 msec
