
                                 *****************
                                 * O   R   C   A *
                                 *****************

           --- An Ab Initio, DFT and Semiempirical electronic structure package ---

                  #######################################################
                  #                        -***-                        #
                  #  Department of molecular theory and spectroscopy    #
                  #              Directorship: Frank Neese              #
                  # Max Planck Institute for Chemical Energy Conversion #
                  #                  D-45470 Muelheim/Ruhr              #
                  #                       Germany                       #
                  #                                                     #
                  #                  All rights reserved                #
                  #                        -***-                        #
                  #######################################################


                         Program Version 4.0.0.2 - RELEASE -


 With contributions from (in alphabetic order):
   Daniel Aravena         : Magnetic Properties
   Michael Atanasov       : Ab Initio Ligand Field Theory
   Ute Becker             : Parallelization
   Martin Brehm           : Molecular dynamics
   Dmytro Bykov           : SCF Hessian
   Vijay G. Chilkuri      : MRCI spin determinant printing
   Dipayan Datta          : RHF DLPNO-CCSD density
   Achintya Kumar Dutta   : EOM-CC, STEOM-CC
   Dmitry Ganyushin       : Spin-Orbit,Spin-Spin,Magnetic field MRCI
   Yang Guo               : DLPNO-NEVPT2, CIM, IAO-localization
   Andreas Hansen         : Spin unrestricted coupled pair/coupled cluster methods
   Lee Huntington         : MR-EOM, pCC
   Robert Izsak           : Overlap fitted RIJCOSX, COSX-SCS-MP3, EOM
   Christian Kollmar      : KDIIS, OOCD, Brueckner-CCSD(T), CCSD density
   Simone Kossmann        : Meta GGA functionals, TD-DFT gradient, OOMP2, MP2 Hessian
   Martin Krupicka        : AUTO-CI
   Dagmar Lenk            : GEPOL surface
   Dimitrios Liakos       : Extrapolation schemes; parallel MDCI
   Dimitrios Manganas     : ROCIS; embedding schemes
   Dimitrios Pantazis     : SARC Basis sets
   Taras Petrenko         : DFT Hessian,TD-DFT gradient, ASA, ECA, R-Raman, ABS, FL, XAS/XES, NRVS
   Peter Pinski           : DLPNO-MP2
   Christoph Reimann      : Effective Core Potentials
   Marius Retegan         : Local ZFS, SOC
   Christoph Riplinger    : Optimizer, TS searches, QM/MM, DLPNO-CCSD(T), (RO)-DLPNO pert. Triples
   Tobias Risthaus        : Range-separated hybrids, TD-DFT gradient, RPA, STAB
   Michael Roemelt        : Restricted open shell CIS
   Masaaki Saitow         : Open-shell DLPNO
   Barbara Sandhoefer     : DKH picture change effects
   Kantharuban Sivalingam : CASSCF convergence, NEVPT2, FIC-MRCI
   Georgi Stoychev        : AutoAux
   Boris Wezisla          : Elementary symmetry handling
   Frank Wennmohs         : Technical directorship


 We gratefully acknowledge several colleagues who have allowed us to
 interface, adapt or use parts of their codes:
   Stefan Grimme, W. Hujo, H. Kruse,             : VdW corrections, initial TS optimization,
                  C. Bannwarth                     DFT functionals, gCP, sTDA/sTD-DF
   Ed Valeev                                     : LibInt (2-el integral package), F12 methods
   Garnet Chan, S. Sharma, J. Yang, R. Olivares  : DMRG
   Ulf Ekstrom                                   : XCFun DFT Library
   Mihaly Kallay                                 : mrcc  (arbitrary order and MRCC methods)
   Jiri Pittner, Ondrej Demel                    : Mk-CCSD
   Frank Weinhold                                : gennbo (NPA and NBO analysis)
   Christopher J. Cramer and Donald G. Truhlar   : smd solvation model


 Your calculation uses the libint2 library for the computation of 2-el integrals
 For citations please refer to: http://libint.valeyev.net

 This ORCA versions uses:
   CBLAS   interface :  Fast vector & matrix operations
   LAPACKE interface :  Fast linear algebra routines
   SCALAPACK package :  Parallel linear algebra routines


Your calculation utilizes the atom-pairwise dispersion correction
with the zero-damping scheme (D30)
Cite in your paper:
S.Grimme, J.Antony, S.Ehrlich and H.Krieg, J.Chem.Phys., 132, (2010), 154104 
   

XCFun DFT library Copyright 2009-2010 Ulf Ekstrom and contributors.
See http://admol.org/xcfun for more information. This is free soft-
ware; see the source code for copying conditions. There is ABSOLUTELY
NO WARRANTY; not even for MERCHANTABILITY or FITNESS FOR A PARTICULAR
PURPOSE. For details see the documentation. Scientific users of this 
library should cite U. Ekstrom, L. Visscher, R. Bast, A. J. Thorvald-
sen and K. Ruud; J.Chem.Theor.Comp. 2010, DOI: 10.1021/ct100117s
XCFun Version 0.99 
Your calculation utilizes the basis: 6-31G(d)
   H-He, Li-Ne : W. J. Hehre, R. Ditchfield and J.A. Pople, J. Chem. Phys. 56, 2257 (1972).
                 Note: He and Ne are unpublished basis sets taken from the Gaussian program.
                 Note: Li and B from J. D. Dill and J. A. Pople, J. Chem. Phys. 62, 2921 (1975).
   Na - Ar     : M. M. Francl, W. J. Pietro, W. J. Hehre, J. S. Binkley, M. S. Gordon, 
                 D. J. DeFrees and J. A. Pople, J. Chem. Phys. 77, 3654 (1982).
   K - Zn      : V. A. Rassolov, J. A. Pople, M. A. Ratner, and T. L. Windus, J. Chem. Phys. 109, 1223 (1998).

================================================================================
                                        WARNINGS
                       Please study these warnings very carefully!
================================================================================

Warning: TCutStore was < 0. Adjusted to Thresh (uncritical)

INFO   : the flag for use of LIBINT has been found!

================================================================================
                                       INPUT FILE
================================================================================
NAME = initial36.inp
|  1> ! WB97X-D3 6-31G(d) VerySlowConv
|  2> ! KDIIS NOSOSCF
|  3> %base "Scan_36"
|  4> 
|  5> %scf
|  6> maxiter 999
|  7> end
|  8> 
|  9> * xyz 0 1
| 10> C          1.459489292297   -2.844771839968   -0.000001384226
| 11> H          5.526944366935   -3.156232596559    0.000000573403
| 12> C          0.882820861537   -1.642409158880   -0.000032783745
| 13> H          3.186289208921    1.724374595577    0.000010095796
| 14> C         -0.446789567705   -1.540629129048   -0.000031210052
| 15> H         -2.210822733939    2.137602293950    0.000009295166
| 16> C         -1.199737216429   -2.641217270597    0.000001367309
| 17> H         -5.267201056311   -2.329869377018   -0.000000505677
| 18> C         -0.623076075219   -3.843584222519    0.000032766878
| 19> H         -2.926431059473   -7.210445494458   -0.000009980708
| 20> C          0.706534508356   -3.945353440884    0.000031193161
| 21> H          2.470589471029   -7.623574359595   -0.000009427304
| 22> **                         ****END OF INPUT****
================================================================================

                       ****************************
                       * Single Point Calculation *
                       ****************************

---------------------------------
CARTESIAN COORDINATES (ANGSTROEM)
---------------------------------
  C      1.459489   -2.844772   -0.000001
  H      5.526944   -3.156233    0.000001
  C      0.882821   -1.642409   -0.000033
  H      3.186289    1.724375    0.000010
  C     -0.446790   -1.540629   -0.000031
  H     -2.210823    2.137602    0.000009
  C     -1.199737   -2.641217    0.000001
  H     -5.267201   -2.329869   -0.000001
  C     -0.623076   -3.843584    0.000033
  H     -2.926431   -7.210445   -0.000010
  C      0.706535   -3.945353    0.000031
  H      2.470589   -7.623574   -0.000009

----------------------------
CARTESIAN COORDINATES (A.U.)
----------------------------
  NO LB      ZA    FRAG     MASS         X           Y           Z
   0 C     6.0000    0    12.011    2.758035   -5.375840   -0.000003
   1 H     1.0000    0     1.008   10.444411   -5.964415    0.000001
   2 C     6.0000    0    12.011    1.668290   -3.103704   -0.000062
   3 H     1.0000    0     1.008    6.021214    3.258596    0.000019
   4 C     6.0000    0    12.011   -0.844310   -2.911367   -0.000059
   5 H     1.0000    0     1.008   -4.177849    4.039483    0.000018
   6 C     6.0000    0    12.011   -2.267175   -4.991177    0.000003
   7 H     1.0000    0     1.008   -9.953567   -4.402815   -0.000001
   8 C     6.0000    0    12.011   -1.177443   -7.263322    0.000062
   9 H     1.0000    0     1.008   -5.530153  -13.625767   -0.000019
  10 C     6.0000    0    12.011    1.335157   -7.455638    0.000059
  11 H     1.0000    0     1.008    4.668737  -14.406468   -0.000018

--------------------------------
INTERNAL COORDINATES (ANGSTROEM)
--------------------------------
 C      0   0   0     0.000000000000     0.00000000     0.00000000
 H      1   0   0     4.079362522147     0.00000000     0.00000000
 C      1   2   0     1.333500092574   120.00178267     0.00000000
 H      3   1   2     4.079362606893   119.99808396     0.00000000
 C      3   1   2     1.333500306721   120.00035263   180.00010978
 H      5   3   1     4.079362623541   119.99916988   179.99778524
 C      5   3   1     1.333500813685   119.99989882     0.00000000
 H      7   5   3     4.079362646246   120.00005875   180.00010846
 C      7   5   3     1.333500791092   120.00011030     0.00000000
 H      9   7   5     4.079362573957   120.00037459   180.00230957
 C      1   2   3     1.333499444318   119.99888050   180.00009014
 H     11   1   2     4.079362577637   120.00017972     0.00000000

---------------------------
INTERNAL COORDINATES (A.U.)
---------------------------
 C      0   0   0     0.000000000000     0.00000000     0.00000000
 H      1   0   0     7.708877967840     0.00000000     0.00000000
 C      1   2   0     2.519949974523   120.00178267     0.00000000
 H      3   1   2     7.708878127986   119.99808396     0.00000000
 C      3   1   2     2.519950379202   120.00035263   180.00010978
 H      5   3   1     7.708878159447   119.99916988   179.99778524
 C      5   3   1     2.519951337226   119.99989882     0.00000000
 H      7   5   3     7.708878202353   120.00005875   180.00010846
 C      7   5   3     2.519951294530   120.00011030     0.00000000
 H      9   7   5     7.708878065746   120.00037459   180.00230957
 C      1   2   3     2.519948749497   119.99888050   180.00009014
 H     11   1   2     7.708878072701   120.00017972     0.00000000

---------------------
BASIS SET INFORMATION
---------------------
There are 2 groups of distinct atoms

 Group   1 Type C   : 10s4p1d contracted to 3s2p1d pattern {631/31/1}
 Group   2 Type H   : 4s contracted to 2s pattern {31}

Atom   0C    basis set group =>   1
Atom   1H    basis set group =>   2
Atom   2C    basis set group =>   1
Atom   3H    basis set group =>   2
Atom   4C    basis set group =>   1
Atom   5H    basis set group =>   2
Atom   6C    basis set group =>   1
Atom   7H    basis set group =>   2
Atom   8C    basis set group =>   1
Atom   9H    basis set group =>   2
Atom  10C    basis set group =>   1
Atom  11H    basis set group =>   2
------------------------------------------------------------------------------
                           ORCA GTO INTEGRAL CALCULATION
------------------------------------------------------------------------------

                         BASIS SET STATISTICS AND STARTUP INFO

 # of primitive gaussian shells          ...  114
 # of primitive gaussian functions       ...  186
 # of contracted shells                  ...   48
 # of contracted basis functions         ...   96
 Highest angular momentum                ...    2
 Maximum contraction depth               ...    6
 Integral package used                   ... LIBINT
 Integral threshhold            Thresh   ...  1.000e-10
 Primitive cut-off              TCut     ...  1.000e-11


------------------------------ INTEGRAL EVALUATION ----------------------------


 * One electron integrals 
 Pre-screening matrix                    ... done
 Shell pair data                         ... done (   0.001 sec)

-------------------------------------------------------------------------------
                                 ORCA SCF
-------------------------------------------------------------------------------

------------
SCF SETTINGS
------------
Hamiltonian:
 Density Functional     Method          .... DFT(GTOs)
 Exchange Functional    Exchange        .... WB97X-D3
 Correlation Functional Correlation     .... WB97X-D3
 Gradients option       PostSCFGGA      .... off
 Hybrid DFT is turned on
   Fraction HF Exchange ScalHFX         ....  0.195728
   Scaling of DF-GGA-X  ScalDFX         ....  0.000000
   Scaling of DF-GGA-C  ScalDFC         ....  1.000000
   Scaling of DF-LDA-C  ScalLDAC        ....  1.000000
   Perturbative correction              ....  0.000000
 Long-range corrected/Screened/Range-Separated Hybrid DFT is turned on
   Amount of maximum screened exact exchange              ....  0.804272
   Range separation parameter mu (erf(mu*r12)/r12)        ....  0.250000


General Settings:
 Integral files         IntName         .... Scan_36
 Hartree-Fock type      HFTyp           .... RHF
 Total Charge           Charge          ....    0
 Multiplicity           Mult            ....    1
 Number of Electrons    NEL             ....   42
 Basis Dimension        Dim             ....   96
 Nuclear Repulsion      ENuc            ....    179.1558133280 Eh

Convergence Acceleration:
 DIIS                   CNVDIIS         .... on
   Start iteration      DIISMaxIt       ....     0
   Startup error        DIISStart       ....  0.200000
   # of expansion vecs  DIISMaxEq       ....     5
   Bias factor          DIISBfac        ....   1.050
   Max. coefficient     DIISMaxC        ....  10.000
 Newton-Raphson         CNVNR           .... off
 SOSCF                  CNVSOSCF        .... off
 Level Shifting         CNVShift        .... off
 Zerner damping         CNVZerner       .... off
 Static damping         CNVDamp         .... off
 Fernandez-Rico         CNVRico         .... off

SCF Procedure:
 Maximum # iterations   MaxIter         ....   999
 SCF integral mode      SCFMode         .... Direct
   Integral package                     .... LIBINT
 Reset frequeny         DirectResetFreq ....    20
 Integral Threshold     Thresh          ....  1.000e-10 Eh
 Primitive CutOff       TCut            ....  1.000e-11 Eh

Convergence Tolerance:
 Convergence Check Mode ConvCheckMode   .... All-Criteria
 Convergence forced     ConvForced      .... 0
 Energy Change          TolE            ....  1.000e-06 Eh
 Max Density Change     TolMaxP         ....  1.000e-05
 RMS Density Change     TolRMSP         ....  1.000e-06
 DIIS Error             TolErr          ....  1.000e-06


Diagonalization of the overlap matrix:
Smallest eigenvalue                        ... 1.259e-03
Time for diagonalization                   ...    0.002 sec
Threshold for overlap eigenvalues          ... 1.000e-08
Number of eigenvalues below threshold      ... 0
Time for construction of square roots      ...    0.006 sec
Total time needed                          ...    0.008 sec

-------------------
DFT GRID GENERATION
-------------------

General Integration Accuracy     IntAcc      ...  4.340
Radial Grid Type                 RadialGrid  ... Gauss-Chebyshev
Angular Grid (max. acc.)         AngularGrid ... Lebedev-110
Angular grid pruning method      GridPruning ... 3 (G Style)
Weight generation scheme         WeightScheme... Becke
Basis function cutoff            BFCut       ...    1.0000e-10
Integration weight cutoff        WCut        ...    1.0000e-14
Grids for H and He will be reduced by one unit

# of grid points (after initial pruning)     ...  14700 (   0.0 sec)
# of grid points (after weights+screening)   ...  14138 (   0.1 sec)
nearest neighbour list constructed           ...    0.0 sec
Grid point re-assignment to atoms done       ...    0.0 sec
Grid point division into batches done        ...    0.0 sec
Reduced shell lists constructed in    0.3 sec

Total number of grid points                  ...    14138
Total number of batches                      ...      228
Average number of points per batch           ...       62
Average number of grid points per atom       ...     1178
Average number of shells per batch           ...    28.55 (59.48%)
Average number of basis functions per batch  ...    61.56 (64.13%)
Average number of large shells per batch     ...    20.60 (72.15%)
Average number of large basis fcns per batch ...    46.76 (75.95%)
Maximum spatial batch extension              ...  16.11, 21.59, 26.87 au
Average spatial batch extension              ...   4.17,  4.59,  5.60 au

Time for grid setup =    0.525 sec

------------------------------
INITIAL GUESS: MODEL POTENTIAL
------------------------------
Loading Hartree-Fock densities                     ... done
Calculating cut-offs                               ... done
Setting up the integral package                    ... done
Initializing the effective Hamiltonian             ... done
Starting the Coulomb interaction                   ... done (   0.2 sec)
Reading the grid                                   ... done
Mapping shells                                     ... done
Starting the XC term evaluation                    ... done (   0.2 sec)
  promolecular density results
     # of electrons  =     41.996229772
     EX              =    -32.043177997
     EC              =     -1.258345266
     EX+EC           =    -33.301523263
Transforming the Hamiltonian                       ... done (   0.0 sec)
Diagonalizing the Hamiltonian                      ... done (   0.0 sec)
Back transforming the eigenvectors                 ... done (   0.0 sec)
Now organizing SCF variables                       ... done
                      ------------------
                      INITIAL GUESS DONE (   1.1 sec)
                      ------------------
--------------
SCF ITERATIONS
--------------
ITER       Energy         Delta-E        Max-DP      RMS-DP      [F,P]   Gradient Norm
               ***  Starting incremental Fock matrix formation  ***
                             ****Resetting KDIIS****
                             ****Turning on KDIIS(Cayley)****
  0   -229.9007682489   0.000000000000 0.03367414  0.00232691  0.1183956   0.102752194
  1   -229.9898717745  -0.089103525644 0.04782146  0.00327009  0.1208063   0.087731951
  2   -230.0946633197  -0.104791545203 0.06108453  0.00474239  0.1321817   0.072824536
  3   -230.1897141182  -0.095050798442 0.08895495  0.00855970  0.1315829   0.050587963
  4   -230.3438373376  -0.154123219385 0.03975952  0.00281594  0.1314924   0.029727411
  5   -230.4202517370  -0.076414399463 0.04906163  0.00341139  0.1221746   0.028109333
  6   -230.5034762413  -0.083224504314 0.03540220  0.00248194  0.0944299   0.022860273
  7   -230.5502367874  -0.046760546083 0.02400827  0.00161009  0.0720536   0.018040753
  8   -230.5395857176   0.010651069827 0.06101159  0.00397025  0.0777302   0.019979526
  9   -230.5671102787  -0.027524561118 0.02929654  0.00173820  0.0511591   0.015932529
 10   -230.5607856732   0.006324605501 0.13093369  0.01087084  0.0423046   0.016635498
 11   -230.3323611858   0.228424487387 0.02704506  0.00325143  0.0977387   0.025932053
 12   -230.2960291522   0.036332033640 0.01837426  0.00144808  0.0737773   0.024307316
 13   -230.2638278207   0.032201331465 0.25157031  0.01255852  0.0736168   0.028492197
 14   -230.2641588237  -0.000331002947 0.11919254  0.00596626  0.1286784   0.054317779
 15   -230.4135574461  -0.149398622464 0.04266308  0.00380092  0.0455966   0.013186524
 16   -230.3770828474   0.036474598770 0.06809159  0.00424801  0.0314530   0.011170500
 17   -230.3579700965   0.019112750870 0.01196074  0.00115215  0.0298200   0.011560993
 18   -230.3573736980   0.000596398447 0.03505111  0.00289857  0.0224663   0.007338045
 19   -230.3549271083   0.002446589690 0.00662594  0.00060414  0.0116339   0.004919667
               *** Restarting incremental Fock matrix formation ***
                             ****Resetting KDIIS****
 20   -230.3531546556   0.001772452733 0.00252776  0.00017074  0.0138717   0.006383400
 21   -230.3540363433  -0.000881687708 0.00302339  0.00028383  0.0119261   0.005424113
 22   -230.3554048277  -0.001368484341 0.00502850  0.00046816  0.0108043   0.005031338
 23   -230.3576140977  -0.002209270043 0.01713353  0.00165793  0.0129949   0.004807777
 24   -230.3521526204   0.005461477312 0.01252564  0.00114755  0.0093739   0.004840120
 25   -230.3506952573   0.001457363115 0.01127623  0.00102274  0.0076710   0.003218492
 26   -230.3505324789   0.000162778392 0.00796830  0.00051236  0.0049328   0.003526676
 27   -230.3510208762  -0.000488397349 0.00477411  0.00047377  0.0040885   0.003014223
 28   -230.3512900226  -0.000269146323 0.00140048  0.00012543  0.0031825   0.001462375
 29   -230.3512960149  -0.000005992387 0.00281736  0.00026944  0.0031327   0.001423675
 30   -230.3515796789  -0.000283664007 0.00028662  0.00002832  0.0036134   0.001822259
 31   -230.3516118382  -0.000032159226 0.00330614  0.00031174  0.0036199   0.001839049
 32   -230.3511319975   0.000479840681 0.01078223  0.00094593  0.0025733   0.002196696
 33   -230.3505486033   0.000583394207 0.00243776  0.00019793  0.0015656   0.001205688
 34   -230.3506096958  -0.000061092524 0.00175061  0.00011695  0.0009965   0.000527464
 35   -230.3506417800  -0.000032084233 0.00085487  0.00007334  0.0009957   0.000371173
 36   -230.3506599669  -0.000018186891 0.00040471  0.00002269  0.0011242   0.000466212
 37   -230.3506645495  -0.000004582546 0.00087368  0.00006550  0.0011226   0.000420443
 38   -230.3506565399   0.000008009536 0.00031301  0.00002819  0.0012599   0.000429091
                          ***Energy convergence achieved***
 39   -230.3506569420  -0.000000402010 0.00073023  0.00006595  0.0013390   0.000417191
               *** Restarting incremental Fock matrix formation ***
                             ****Resetting KDIIS****
 40   -230.3506352429   0.000021699074 0.00022009  0.00001404  0.0010466   0.000493171
 41   -230.3506401828  -0.000004939898 0.00029783  0.00002594  0.0010866   0.000401823
 42   -230.3506484023  -0.000008219482 0.00084471  0.00007121  0.0011823   0.000371414
 43   -230.3506265199   0.000021882325 0.00244962  0.00019258  0.0008634   0.000322307
 44   -230.3506000158   0.000026504150 0.00072458  0.00004743  0.0001810   0.000093659
 45   -230.3506028164  -0.000002800597 0.00016548  0.00000931  0.0001899   0.000108592
                          ***Energy convergence achieved***
 46   -230.3506030181  -0.000000201684 0.00011226  0.00000516  0.0001885   0.000090299

            ***Energy convergence in two consecutive cycles with***
                    ***'reasonable' density convergence***
                       *** signaling convergence ***

                    *** KDIIS BlockDiag ( 0.002 sec) ***

               *****************************************************
               *                     SUCCESS                       *
               *           SCF CONVERGED AFTER  47 CYCLES          *
               *****************************************************

Setting up the final grid:

General Integration Accuracy     IntAcc      ...  4.670
Radial Grid Type                 RadialGrid  ... Gauss-Chebyshev
Angular Grid (max. acc.)         AngularGrid ... Lebedev-302
Angular grid pruning method      GridPruning ... 3 (G Style)
Weight generation scheme         WeightScheme... Becke
Basis function cutoff            BFCut       ...    1.0000e-10
Integration weight cutoff        WCut        ...    1.0000e-14
Grids for H and He will be reduced by one unit

# of grid points (after initial pruning)     ...  57636 (   0.0 sec)
# of grid points (after weights+screening)   ...  55088 (   0.1 sec)
nearest neighbour list constructed           ...    0.0 sec
Grid point re-assignment to atoms done       ...    0.0 sec
Grid point division into batches done        ...    0.4 sec
Reduced shell lists constructed in    1.2 sec

Total number of grid points                  ...    55088
Total number of batches                      ...      864
Average number of points per batch           ...       63
Average number of grid points per atom       ...     4591
Average number of shells per batch           ...    24.67 (51.39%)
Average number of basis functions per batch  ...    53.23 (55.45%)
Average number of large shells per batch     ...    17.53 (71.08%)
Average number of large basis fcns per batch ...    39.71 (74.60%)
Maximum spatial batch extension              ...  15.59, 16.45, 17.39 au
Average spatial batch extension              ...   2.88,  2.97,  3.23 au

Final grid set up in    1.3 sec
Final integration                            ... done (   1.1 sec)
Change in XC energy                          ...     0.001160374
Integrated number of electrons               ...    42.000027314
Previous integrated no of electrons          ...    42.000795423

----------------
TOTAL SCF ENERGY
----------------

Total Energy       :         -230.34944308 Eh           -6268.12701 eV

Components:
Nuclear Repulsion  :          179.15581333 Eh            4875.07752 eV
Electronic Energy  :         -409.50525641 Eh          -11143.20454 eV
One Electron Energy:         -664.31565434 Eh          -18076.94797 eV
Two Electron Energy:          254.81039793 Eh            6933.74343 eV

Virial components:
Potential Energy   :         -460.46458555 Eh          -12529.87838 eV
Kinetic Energy     :          230.11514247 Eh            6261.75137 eV
Virial Ratio       :            2.00101819


DFT components:
N(Alpha)           :       21.000013657027 electrons
N(Beta)            :       21.000013657027 electrons
N(Total)           :       42.000027314054 electrons
E(XC)              :      -23.049836695391 Eh       

---------------
SCF CONVERGENCE
---------------

  Last Energy change         ...   -4.3915e-07  Tolerance :   1.0000e-06
  Last MAX-Density change    ...    2.0355e-05  Tolerance :   1.0000e-05
  Last RMS-Density change    ...    1.4121e-06  Tolerance :   1.0000e-06
  Last DIIS Error            ...    1.9128e-04  Tolerance :   1.0000e-06

             **** THE GBW FILE WAS UPDATED (Scan_36.gbw) ****
             **** DENSITY FILE WAS UPDATED (Scan_36.scfp.tmp) ****
             **** ENERGY FILE WAS UPDATED (Scan_36.en.tmp) ****
----------------
ORBITAL ENERGIES
----------------

  NO   OCC          E(Eh)            E(eV) 
   0   2.0000     -10.326200      -280.9902 
   1   2.0000     -10.326097      -280.9874 
   2   2.0000     -10.322216      -280.8818 
   3   2.0000     -10.322071      -280.8778 
   4   2.0000     -10.321073      -280.8507 
   5   2.0000     -10.320865      -280.8450 
   6   2.0000      -1.023675       -27.8556 
   7   2.0000      -0.867740       -23.6124 
   8   2.0000      -0.866172       -23.5697 
   9   2.0000      -0.676528       -18.4093 
  10   2.0000      -0.675176       -18.3725 
  11   2.0000      -0.568069       -15.4579 
  12   2.0000      -0.502354       -13.6697 
  13   2.0000      -0.469948       -12.7879 
  14   2.0000      -0.354571        -9.6484 
  15   2.0000      -0.352581        -9.5942 
  16   2.0000      -0.285191        -7.7604 
  17   2.0000      -0.281289        -7.6543 
  18   2.0000      -0.264769        -7.2047 
  19   2.0000      -0.264558        -7.1990 
  20   2.0000      -0.226755        -6.1703 
  21   0.0000      -0.214870        -5.8469 
  22   0.0000      -0.195817        -5.3285 
  23   0.0000      -0.188019        -5.1163 
  24   0.0000      -0.183565        -4.9951 
  25   0.0000      -0.001630        -0.0444 
  26   0.0000      -0.000671        -0.0183 
  27   0.0000       0.095968         2.6114 
  28   0.0000       0.097552         2.6545 
  29   0.0000       0.304473         8.2851 
  30   0.0000       0.400708        10.9038 
  31   0.0000       0.401169        10.9164 
  32   0.0000       0.529234        14.4012 
  33   0.0000       0.530159        14.4264 
  34   0.0000       0.573774        15.6132 
  35   0.0000       0.588432        16.0120 
  36   0.0000       0.598999        16.2996 
  37   0.0000       0.609136        16.5754 
  38   0.0000       0.616316        16.7708 
  39   0.0000       0.617722        16.8091 
  40   0.0000       0.687478        18.7072 
  41   0.0000       0.688439        18.7334 
  42   0.0000       0.689128        18.7521 
  43   0.0000       0.690453        18.7882 
  44   0.0000       0.704722        19.1765 
  45   0.0000       0.778628        21.1875 
  46   0.0000       0.779724        21.2174 
  47   0.0000       0.796795        21.6819 
  48   0.0000       0.805806        21.9271 
  49   0.0000       0.806573        21.9480 
  50   0.0000       0.832176        22.6447 
  51   0.0000       0.832726        22.6596 
  52   0.0000       0.850323        23.1385 
  53   0.0000       0.853446        23.2235 
  54   0.0000       0.866496        23.5786 
  55   0.0000       0.867454        23.6046 
  56   0.0000       0.878497        23.9051 
  57   0.0000       0.881659        23.9912 
  58   0.0000       0.881796        23.9949 
  59   0.0000       0.897647        24.4262 
  60   0.0000       1.106944        30.1215 
  61   0.0000       1.107584        30.1389 
  62   0.0000       1.161030        31.5932 
  63   0.0000       1.276793        34.7433 
  64   0.0000       1.277410        34.7601 
  65   0.0000       1.340396        36.4740 
  66   0.0000       1.406438        38.2711 
  67   0.0000       1.472234        40.0615 
  68   0.0000       1.604679        43.6655 
  69   0.0000       1.604824        43.6695 
  70   0.0000       1.604975        43.6736 
  71   0.0000       1.630775        44.3756 
  72   0.0000       1.632452        44.4213 
  73   0.0000       1.817399        49.4539 
  74   0.0000       1.819991        49.5245 
  75   0.0000       1.914373        52.0927 
  76   0.0000       1.939586        52.7788 
  77   0.0000       2.226049        60.5739 
  78   0.0000       2.226200        60.5780 
  79   0.0000       2.298943        62.5574 
  80   0.0000       2.299945        62.5847 
  81   0.0000       2.305110        62.7252 
  82   0.0000       2.307550        62.7916 
  83   0.0000       2.458330        66.8945 
  84   0.0000       2.459319        66.9215 
  85   0.0000       2.512623        68.3719 
  86   0.0000       2.514189        68.4146 
  87   0.0000       2.518527        68.5326 
  88   0.0000       2.583135        70.2907 
  89   0.0000       2.851028        77.5804 
  90   0.0000       2.853379        77.6444 
  91   0.0000       2.873703        78.1974 
  92   0.0000       2.916545        79.3632 
  93   0.0000       2.917415        79.3869 
  94   0.0000       3.223916        87.7272 
  95   0.0000       3.520375        95.7943 

                    ********************************
                    * MULLIKEN POPULATION ANALYSIS *
                    ********************************

-----------------------
MULLIKEN ATOMIC CHARGES
-----------------------
   0 C :   -0.046739
   1 H :    0.046649
   2 C :   -0.046850
   3 H :    0.047889
   4 C :   -0.041785
   5 H :    0.040446
   6 C :   -0.046606
   7 H :    0.046515
   8 C :   -0.046582
   9 H :    0.048055
  10 C :   -0.041686
  11 H :    0.040694
Sum of atomic charges:   -0.0000000

--------------------------------
MULLIKEN REDUCED ORBITAL CHARGES
--------------------------------
  0 C s       :     3.302511  s :     3.302511
      pz      :     0.984479  p :     2.703528
      px      :     0.885648
      py      :     0.833401
      dz2     :     0.003729  d :     0.040700
      dxz     :     0.005169
      dyz     :     0.008149
      dx2y2   :     0.011233
      dxy     :     0.012419
  1 H s       :     0.953351  s :     0.953351
  2 C s       :     3.300244  s :     3.300244
      pz      :     0.982369  p :     2.705977
      px      :     0.850367
      py      :     0.873242
      dz2     :     0.003699  d :     0.040629
      dxz     :     0.007253
      dyz     :     0.006102
      dx2y2   :     0.012316
      dxy     :     0.011258
  3 H s       :     0.952111  s :     0.952111
  4 C s       :     3.308430  s :     3.308430
      pz      :     0.993399  p :     2.692453
      px      :     0.844041
      py      :     0.855013
      dz2     :     0.003703  d :     0.040903
      dxz     :     0.007659
      dyz     :     0.005680
      dx2y2   :     0.012003
      dxy     :     0.011858
  5 H s       :     0.959554  s :     0.959554
  6 C s       :     3.302509  s :     3.302509
      pz      :     0.984318  p :     2.703394
      px      :     0.885770
      py      :     0.833306
      dz2     :     0.003730  d :     0.040702
      dxz     :     0.005171
      dyz     :     0.008146
      dx2y2   :     0.011240
      dxy     :     0.012416
  7 H s       :     0.953485  s :     0.953485
  8 C s       :     3.300319  s :     3.300319
      pz      :     0.982101  p :     2.705627
      px      :     0.850336
      py      :     0.873190
      dz2     :     0.003700  d :     0.040636
      dxz     :     0.007251
      dyz     :     0.006103
      dx2y2   :     0.012320
      dxy     :     0.011262
  9 H s       :     0.951945  s :     0.951945
 10 C s       :     3.308527  s :     3.308527
      pz      :     0.993312  p :     2.692253
      px      :     0.843887
      py      :     0.855053
      dz2     :     0.003704  d :     0.040906
      dxz     :     0.007657
      dyz     :     0.005682
      dx2y2   :     0.012002
      dxy     :     0.011861
 11 H s       :     0.959306  s :     0.959306


                     *******************************
                     * LOEWDIN POPULATION ANALYSIS *
                     *******************************

----------------------
LOEWDIN ATOMIC CHARGES
----------------------
   0 C :   -0.047727
   1 H :    0.046306
   2 C :   -0.050829
   3 H :    0.047554
   4 C :   -0.035720
   5 H :    0.040083
   6 C :   -0.047626
   7 H :    0.046173
   8 C :   -0.050622
   9 H :    0.047722
  10 C :   -0.035643
  11 H :    0.040329

-------------------------------
LOEWDIN REDUCED ORBITAL CHARGES
-------------------------------
  0 C s       :     3.055871  s :     3.055871
      pz      :     0.974031  p :     2.898822
      px      :     0.916344
      py      :     1.008447
      dz2     :     0.008558  d :     0.093034
      dxz     :     0.006342
      dyz     :     0.017906
      dx2y2   :     0.027168
      dxy     :     0.033060
  1 H s       :     0.953694  s :     0.953694
  2 C s       :     3.055548  s :     3.055548
      pz      :     0.972349  p :     2.902379
      px      :     0.980948
      py      :     0.949082
      dz2     :     0.008544  d :     0.092903
      dxz     :     0.014330
      dyz     :     0.009966
      dx2y2   :     0.032424
      dxy     :     0.027638
  3 H s       :     0.952446  s :     0.952446
  4 C s       :     3.056899  s :     3.056899
      pz      :     0.981075  p :     2.885197
      px      :     0.990757
      py      :     0.913366
      dz2     :     0.008529  d :     0.093623
      dxz     :     0.015840
      dyz     :     0.008399
      dx2y2   :     0.031037
      dxy     :     0.029819
  5 H s       :     0.959917  s :     0.959917
  6 C s       :     3.055889  s :     3.055889
      pz      :     0.973887  p :     2.898713
      px      :     0.916448
      py      :     1.008378
      dz2     :     0.008558  d :     0.093025
      dxz     :     0.006344
      dyz     :     0.017898
      dx2y2   :     0.027172
      dxy     :     0.033053
  7 H s       :     0.953827  s :     0.953827
  8 C s       :     3.055590  s :     3.055590
      pz      :     0.972113  p :     2.902117
      px      :     0.980943
      py      :     0.949060
      dz2     :     0.008546  d :     0.092915
      dxz     :     0.014325
      dyz     :     0.009965
      dx2y2   :     0.032427
      dxy     :     0.027653
  9 H s       :     0.952278  s :     0.952278
 10 C s       :     3.056943  s :     3.056943
      pz      :     0.980996  p :     2.885059
      px      :     0.990643
      py      :     0.913421
      dz2     :     0.008531  d :     0.093641
      dxz     :     0.015835
      dyz     :     0.008401
      dx2y2   :     0.031041
      dxy     :     0.029832
 11 H s       :     0.959671  s :     0.959671


                      *****************************
                      * MAYER POPULATION ANALYSIS *
                      *****************************

  NA   - Mulliken gross atomic population
  ZA   - Total nuclear charge
  QA   - Mulliken gross atomic charge
  VA   - Mayer's total valence
  BVA  - Mayer's bonded valence
  FA   - Mayer's free valence

  ATOM       NA         ZA         QA         VA         BVA        FA
  0 C      6.0467     6.0000    -0.0467     3.8116     3.8116    -0.0000
  1 H      0.9534     1.0000     0.0466     0.9980     0.9980    -0.0000
  2 C      6.0468     6.0000    -0.0468     3.8113     3.8113     0.0000
  3 H      0.9521     1.0000     0.0479     0.9978     0.9978    -0.0000
  4 C      6.0418     6.0000    -0.0418     3.8091     3.8091     0.0000
  5 H      0.9596     1.0000     0.0404     0.9985     0.9985     0.0000
  6 C      6.0466     6.0000    -0.0466     3.8116     3.8116     0.0000
  7 H      0.9535     1.0000     0.0465     0.9980     0.9980    -0.0000
  8 C      6.0466     6.0000    -0.0466     3.8111     3.8111    -0.0000
  9 H      0.9519     1.0000     0.0481     0.9978     0.9978     0.0000
 10 C      6.0417     6.0000    -0.0417     3.8090     3.8090    -0.0000
 11 H      0.9593     1.0000     0.0407     0.9985     0.9985    -0.0000

  Mayer bond orders larger than 0.1
B(  0-C ,  1-H ) :   0.1209 B(  0-C ,  2-C ) :   1.5032 B(  0-C ,  4-C ) :   0.1763 
B(  0-C ,  6-C ) :   0.1624 B(  0-C ,  8-C ) :   0.1592 B(  0-C , 10-C ) :   1.4836 
B(  1-H ,  5-H ) :   0.2371 B(  1-H ,  7-H ) :   0.1647 B(  1-H ,  9-H ) :   0.2030 
B(  2-C ,  3-H ) :   0.1132 B(  2-C ,  4-C ) :   1.4876 B(  2-C ,  6-C ) :   0.1593 
B(  2-C ,  8-C ) :   0.1652 B(  2-C , 10-C ) :   0.1724 B(  3-H ,  7-H ) :   0.2030 
B(  3-H ,  9-H ) :   0.1944 B(  3-H , 11-H ) :   0.2297 B(  4-C ,  5-H ) :   0.1386 
B(  4-C ,  6-C ) :   1.4839 B(  4-C ,  8-C ) :   0.1728 B(  4-C , 10-C ) :   0.1500 
B(  5-H ,  9-H ) :   0.2333 B(  6-C ,  7-H ) :   0.1187 B(  6-C ,  8-C ) :   1.5032 
B(  6-C , 10-C ) :   0.1768 B(  7-H , 11-H ) :   0.2400 B(  8-C ,  9-H ) :   0.1124 
B(  8-C , 10-C ) :   1.4874 B( 10-C , 11-H ) :   0.1399 

-------
TIMINGS
-------

Total SCF time: 0 days 0 hours 4 min 2 sec 

Total time                  ....     242.147 sec
Sum of individual times     ....     240.988 sec  ( 99.5%)

Fock matrix formation       ....     238.467 sec  ( 98.5%)
  XC integration            ....      20.420 sec  (  8.6% of F)
    Basis function eval.    ....       8.771 sec  ( 43.0% of XC)
    Density eval.           ....       1.670 sec  (  8.2% of XC)
    XC-Functional eval.     ....       3.989 sec  ( 19.5% of XC)
    XC-Potential eval.      ....       2.336 sec  ( 11.4% of XC)
Diagonalization             ....       0.099 sec  (  0.0%)
Density matrix formation    ....       0.006 sec  (  0.0%)
Population analysis         ....       0.012 sec  (  0.0%)
Initial guess               ....       0.531 sec  (  0.2%)
Orbital Transformation      ....       0.000 sec  (  0.0%)
Orbital Orthonormalization  ....       0.000 sec  (  0.0%)
DIIS solution               ....       0.000 sec  (  0.0%)
Grid generation             ....       1.872 sec  (  0.8%)


-------------------------------------------------------------------------------
                          DFT DISPERSION CORRECTION                            
                                                                               
                              DFTD3 V3.1  Rev 1                                
                              USING zero damping                               
-------------------------------------------------------------------------------
The omegaB97X-D3 functional is recognized. Fit by Chai et al.
Active option DFTDOPT                   ...         3   

molecular C6(AA) [au] = 2353.774361 


            DFT-D V3
 parameters
 s6 scaling factor         :     1.0000 
 rs6 scaling factor        :     1.2810 
 s8 scaling factor         :     1.0000 
 rs8 scaling factor        :     1.0940 
 Damping factor alpha6     :    14.0000 
 Damping factor alpha8     :    16.0000 
 ad hoc parameters k1-k3   :    16.0000     1.3333    -4.0000 

 Edisp/kcal,au: -0.679565052527  -0.001082955729 
 E6   /kcal   :  -0.488952168 
 E8   /kcal   :  -0.190612884 
 % E8         :  28.049247594 

-------------------------   ----------------
Dispersion correction           -0.001082956
-------------------------   ----------------


-------------------------   --------------------
FINAL SINGLE POINT ENERGY      -230.350526039417
-------------------------   --------------------


                            ***************************************
                            *     ORCA property calculations      *
                            ***************************************

                                    ---------------------
                                    Active property flags
                                    ---------------------
   (+) Dipole Moment


------------------------------------------------------------------------------
                       ORCA ELECTRIC PROPERTIES CALCULATION
------------------------------------------------------------------------------

Dipole Moment Calculation                       ... on
Quadrupole Moment Calculation                   ... off
Polarizability Calculation                      ... off
GBWName                                         ... Scan_36.gbw
Electron density file                           ... Scan_36.scfp.tmp

-------------
DIPOLE MOMENT
-------------
                                X             Y             Z
Electronic contribution:      0.00100      -0.00398      -0.00000
Nuclear contribution   :      0.00011      -0.00016       0.00000
                        -----------------------------------------
Total Dipole Moment    :      0.00111      -0.00414       0.00000
                        -----------------------------------------
Magnitude (a.u.)       :      0.00429
Magnitude (Debye)      :      0.01090


Timings for individual modules:

Sum of individual times         ...      242.831 sec (=   4.047 min)
GTO integral calculation        ...        0.646 sec (=   0.011 min)   0.3 %
SCF iterations                  ...      242.185 sec (=   4.036 min)  99.7 %
                             ****ORCA TERMINATED NORMALLY****
TOTAL RUN TIME: 0 days 0 hours 4 minutes 3 seconds 620 msec
