
                                 *****************
                                 * O   R   C   A *
                                 *****************

           --- An Ab Initio, DFT and Semiempirical electronic structure package ---

                  #######################################################
                  #                        -***-                        #
                  #  Department of molecular theory and spectroscopy    #
                  #              Directorship: Frank Neese              #
                  # Max Planck Institute for Chemical Energy Conversion #
                  #                  D-45470 Muelheim/Ruhr              #
                  #                       Germany                       #
                  #                                                     #
                  #                  All rights reserved                #
                  #                        -***-                        #
                  #######################################################


                         Program Version 4.0.0.2 - RELEASE -


 With contributions from (in alphabetic order):
   Daniel Aravena         : Magnetic Properties
   Michael Atanasov       : Ab Initio Ligand Field Theory
   Ute Becker             : Parallelization
   Martin Brehm           : Molecular dynamics
   Dmytro Bykov           : SCF Hessian
   Vijay G. Chilkuri      : MRCI spin determinant printing
   Dipayan Datta          : RHF DLPNO-CCSD density
   Achintya Kumar Dutta   : EOM-CC, STEOM-CC
   Dmitry Ganyushin       : Spin-Orbit,Spin-Spin,Magnetic field MRCI
   Yang Guo               : DLPNO-NEVPT2, CIM, IAO-localization
   Andreas Hansen         : Spin unrestricted coupled pair/coupled cluster methods
   Lee Huntington         : MR-EOM, pCC
   Robert Izsak           : Overlap fitted RIJCOSX, COSX-SCS-MP3, EOM
   Christian Kollmar      : KDIIS, OOCD, Brueckner-CCSD(T), CCSD density
   Simone Kossmann        : Meta GGA functionals, TD-DFT gradient, OOMP2, MP2 Hessian
   Martin Krupicka        : AUTO-CI
   Dagmar Lenk            : GEPOL surface
   Dimitrios Liakos       : Extrapolation schemes; parallel MDCI
   Dimitrios Manganas     : ROCIS; embedding schemes
   Dimitrios Pantazis     : SARC Basis sets
   Taras Petrenko         : DFT Hessian,TD-DFT gradient, ASA, ECA, R-Raman, ABS, FL, XAS/XES, NRVS
   Peter Pinski           : DLPNO-MP2
   Christoph Reimann      : Effective Core Potentials
   Marius Retegan         : Local ZFS, SOC
   Christoph Riplinger    : Optimizer, TS searches, QM/MM, DLPNO-CCSD(T), (RO)-DLPNO pert. Triples
   Tobias Risthaus        : Range-separated hybrids, TD-DFT gradient, RPA, STAB
   Michael Roemelt        : Restricted open shell CIS
   Masaaki Saitow         : Open-shell DLPNO
   Barbara Sandhoefer     : DKH picture change effects
   Kantharuban Sivalingam : CASSCF convergence, NEVPT2, FIC-MRCI
   Georgi Stoychev        : AutoAux
   Boris Wezisla          : Elementary symmetry handling
   Frank Wennmohs         : Technical directorship


 We gratefully acknowledge several colleagues who have allowed us to
 interface, adapt or use parts of their codes:
   Stefan Grimme, W. Hujo, H. Kruse,             : VdW corrections, initial TS optimization,
                  C. Bannwarth                     DFT functionals, gCP, sTDA/sTD-DF
   Ed Valeev                                     : LibInt (2-el integral package), F12 methods
   Garnet Chan, S. Sharma, J. Yang, R. Olivares  : DMRG
   Ulf Ekstrom                                   : XCFun DFT Library
   Mihaly Kallay                                 : mrcc  (arbitrary order and MRCC methods)
   Jiri Pittner, Ondrej Demel                    : Mk-CCSD
   Frank Weinhold                                : gennbo (NPA and NBO analysis)
   Christopher J. Cramer and Donald G. Truhlar   : smd solvation model


 Your calculation uses the libint2 library for the computation of 2-el integrals
 For citations please refer to: http://libint.valeyev.net

 This ORCA versions uses:
   CBLAS   interface :  Fast vector & matrix operations
   LAPACKE interface :  Fast linear algebra routines
   SCALAPACK package :  Parallel linear algebra routines


Your calculation utilizes the atom-pairwise dispersion correction
with the zero-damping scheme (D30)
Cite in your paper:
S.Grimme, J.Antony, S.Ehrlich and H.Krieg, J.Chem.Phys., 132, (2010), 154104 
   

XCFun DFT library Copyright 2009-2010 Ulf Ekstrom and contributors.
See http://admol.org/xcfun for more information. This is free soft-
ware; see the source code for copying conditions. There is ABSOLUTELY
NO WARRANTY; not even for MERCHANTABILITY or FITNESS FOR A PARTICULAR
PURPOSE. For details see the documentation. Scientific users of this 
library should cite U. Ekstrom, L. Visscher, R. Bast, A. J. Thorvald-
sen and K. Ruud; J.Chem.Theor.Comp. 2010, DOI: 10.1021/ct100117s
XCFun Version 0.99 
Your calculation utilizes the basis: 6-31G(d)
   H-He, Li-Ne : W. J. Hehre, R. Ditchfield and J.A. Pople, J. Chem. Phys. 56, 2257 (1972).
                 Note: He and Ne are unpublished basis sets taken from the Gaussian program.
                 Note: Li and B from J. D. Dill and J. A. Pople, J. Chem. Phys. 62, 2921 (1975).
   Na - Ar     : M. M. Francl, W. J. Pietro, W. J. Hehre, J. S. Binkley, M. S. Gordon, 
                 D. J. DeFrees and J. A. Pople, J. Chem. Phys. 77, 3654 (1982).
   K - Zn      : V. A. Rassolov, J. A. Pople, M. A. Ratner, and T. L. Windus, J. Chem. Phys. 109, 1223 (1998).

================================================================================
                                        WARNINGS
                       Please study these warnings very carefully!
================================================================================

Warning: TCutStore was < 0. Adjusted to Thresh (uncritical)

INFO   : the flag for use of LIBINT has been found!

================================================================================
                                       INPUT FILE
================================================================================
NAME = initial38.inp
|  1> ! WB97X-D3 6-31G(d) VerySlowConv
|  2> ! KDIIS NOSOSCF
|  3> %base "Scan_38"
|  4> 
|  5> %scf
|  6> maxiter 999
|  7> end
|  8> 
|  9> * xyz 0 1
| 10> C          1.459500016293   -2.844763366253   -0.000003670774
| 11> H          5.730936360754   -3.171855726947    0.000001096765
| 12> C          0.882820254846   -1.642392835138   -0.000049456167
| 13> H          3.301817174985    1.893227651058    0.000014633533
| 14> C         -0.446800525660   -1.540624778325   -0.000045157752
| 15> H         -2.299290781051    2.322074052490    0.000013024322
| 16> C         -1.199751421625   -2.641219876759    0.000003657077
| 17> H         -5.471197306571   -2.314254410841   -0.000001029797
| 18> C         -0.623080593445   -3.843591996906    0.000049433486
| 19> H         -3.041947209003   -7.379301785018   -0.000014508223
| 20> C          0.706543033370   -3.945360747793    0.000045135631
| 21> H          2.559060997107   -7.808046179568   -0.000013158100
| 22> **                         ****END OF INPUT****
================================================================================

                       ****************************
                       * Single Point Calculation *
                       ****************************

---------------------------------
CARTESIAN COORDINATES (ANGSTROEM)
---------------------------------
  C      1.459500   -2.844763   -0.000004
  H      5.730936   -3.171856    0.000001
  C      0.882820   -1.642393   -0.000049
  H      3.301817    1.893228    0.000015
  C     -0.446801   -1.540625   -0.000045
  H     -2.299291    2.322074    0.000013
  C     -1.199751   -2.641220    0.000004
  H     -5.471197   -2.314254   -0.000001
  C     -0.623081   -3.843592    0.000049
  H     -3.041947   -7.379302   -0.000015
  C      0.706543   -3.945361    0.000045
  H      2.559061   -7.808046   -0.000013

----------------------------
CARTESIAN COORDINATES (A.U.)
----------------------------
  NO LB      ZA    FRAG     MASS         X           Y           Z
   0 C     6.0000    0    12.011    2.758055   -5.375824   -0.000007
   1 H     1.0000    0     1.008   10.829900   -5.993939    0.000002
   2 C     6.0000    0    12.011    1.668289   -3.103673   -0.000093
   3 H     1.0000    0     1.008    6.239530    3.577682    0.000028
   4 C     6.0000    0    12.011   -0.844331   -2.911359   -0.000085
   5 H     1.0000    0     1.008   -4.345030    4.388084    0.000025
   6 C     6.0000    0    12.011   -2.267202   -4.991182    0.000007
   7 H     1.0000    0     1.008  -10.339065   -4.373307   -0.000002
   8 C     6.0000    0    12.011   -1.177452   -7.263336    0.000093
   9 H     1.0000    0     1.008   -5.748447  -13.944859   -0.000027
  10 C     6.0000    0    12.011    1.335173   -7.455651    0.000085
  11 H     1.0000    0     1.008    4.835924  -14.755069   -0.000025

--------------------------------
INTERNAL COORDINATES (ANGSTROEM)
--------------------------------
 C      0   0   0     0.000000000000     0.00000000     0.00000000
 H      1   0   0     4.283941859693     0.00000000     0.00000000
 C      1   2   0     1.333512070981   120.00223539     0.00000000
 H      3   1   2     4.283941914424   119.99762804     0.00000000
 C      3   1   2     1.333509714010   120.00009884   180.00028679
 H      5   3   1     4.283942390752   119.99848864   179.99682992
 C      5   3   1     1.333508389480   120.00039207     0.00000000
 H      7   5   3     4.283941685405   119.99995747   180.00028562
 C      7   5   3     1.333509640564   119.99988470     0.00000000
 H      9   7   5     4.283942041356   120.00011640   180.00340935
 C      9   7   5     1.333512604987   119.99974363     0.00000000
 H     11   9   7     4.283942291186   119.99892068   180.00317136

---------------------------
INTERNAL COORDINATES (A.U.)
---------------------------
 C      0   0   0     0.000000000000     0.00000000     0.00000000
 H      1   0   0     8.095476888461     0.00000000     0.00000000
 C      1   2   0     2.519972610433   120.00223539     0.00000000
 H      3   1   2     8.095476991888   119.99762804     0.00000000
 C      3   1   2     2.519968156403   120.00009884   180.00028679
 H      5   3   1     8.095477892017   119.99848864   179.99682992
 C      5   3   1     2.519965653404   120.00039207     0.00000000
 H      7   5   3     8.095476559104   119.99995747   180.00028562
 C      7   5   3     2.519968017609   119.99988470     0.00000000
 H      9   7   5     8.095477231755   120.00011640   180.00340935
 C      9   7   5     2.519973619558   119.99974363     0.00000000
 H     11   9   7     8.095477703865   119.99892068   180.00317136

---------------------
BASIS SET INFORMATION
---------------------
There are 2 groups of distinct atoms

 Group   1 Type C   : 10s4p1d contracted to 3s2p1d pattern {631/31/1}
 Group   2 Type H   : 4s contracted to 2s pattern {31}

Atom   0C    basis set group =>   1
Atom   1H    basis set group =>   2
Atom   2C    basis set group =>   1
Atom   3H    basis set group =>   2
Atom   4C    basis set group =>   1
Atom   5H    basis set group =>   2
Atom   6C    basis set group =>   1
Atom   7H    basis set group =>   2
Atom   8C    basis set group =>   1
Atom   9H    basis set group =>   2
Atom  10C    basis set group =>   1
Atom  11H    basis set group =>   2
------------------------------------------------------------------------------
                           ORCA GTO INTEGRAL CALCULATION
------------------------------------------------------------------------------

                         BASIS SET STATISTICS AND STARTUP INFO

 # of primitive gaussian shells          ...  114
 # of primitive gaussian functions       ...  186
 # of contracted shells                  ...   48
 # of contracted basis functions         ...   96
 Highest angular momentum                ...    2
 Maximum contraction depth               ...    6
 Integral package used                   ... LIBINT
 Integral threshhold            Thresh   ...  1.000e-10
 Primitive cut-off              TCut     ...  1.000e-11


------------------------------ INTEGRAL EVALUATION ----------------------------


 * One electron integrals 
 Pre-screening matrix                    ... done
 Shell pair data                         ... done (   0.001 sec)

-------------------------------------------------------------------------------
                                 ORCA SCF
-------------------------------------------------------------------------------

------------
SCF SETTINGS
------------
Hamiltonian:
 Density Functional     Method          .... DFT(GTOs)
 Exchange Functional    Exchange        .... WB97X-D3
 Correlation Functional Correlation     .... WB97X-D3
 Gradients option       PostSCFGGA      .... off
 Hybrid DFT is turned on
   Fraction HF Exchange ScalHFX         ....  0.195728
   Scaling of DF-GGA-X  ScalDFX         ....  0.000000
   Scaling of DF-GGA-C  ScalDFC         ....  1.000000
   Scaling of DF-LDA-C  ScalLDAC        ....  1.000000
   Perturbative correction              ....  0.000000
 Long-range corrected/Screened/Range-Separated Hybrid DFT is turned on
   Amount of maximum screened exact exchange              ....  0.804272
   Range separation parameter mu (erf(mu*r12)/r12)        ....  0.250000


General Settings:
 Integral files         IntName         .... Scan_38
 Hartree-Fock type      HFTyp           .... RHF
 Total Charge           Charge          ....    0
 Multiplicity           Mult            ....    1
 Number of Electrons    NEL             ....   42
 Basis Dimension        Dim             ....   96
 Nuclear Repulsion      ENuc            ....    178.3102056035 Eh

Convergence Acceleration:
 DIIS                   CNVDIIS         .... on
   Start iteration      DIISMaxIt       ....     0
   Startup error        DIISStart       ....  0.200000
   # of expansion vecs  DIISMaxEq       ....     5
   Bias factor          DIISBfac        ....   1.050
   Max. coefficient     DIISMaxC        ....  10.000
 Newton-Raphson         CNVNR           .... off
 SOSCF                  CNVSOSCF        .... off
 Level Shifting         CNVShift        .... off
 Zerner damping         CNVZerner       .... off
 Static damping         CNVDamp         .... off
 Fernandez-Rico         CNVRico         .... off

SCF Procedure:
 Maximum # iterations   MaxIter         ....   999
 SCF integral mode      SCFMode         .... Direct
   Integral package                     .... LIBINT
 Reset frequeny         DirectResetFreq ....    20
 Integral Threshold     Thresh          ....  1.000e-10 Eh
 Primitive CutOff       TCut            ....  1.000e-11 Eh

Convergence Tolerance:
 Convergence Check Mode ConvCheckMode   .... All-Criteria
 Convergence forced     ConvForced      .... 0
 Energy Change          TolE            ....  1.000e-06 Eh
 Max Density Change     TolMaxP         ....  1.000e-05
 RMS Density Change     TolRMSP         ....  1.000e-06
 DIIS Error             TolErr          ....  1.000e-06


Diagonalization of the overlap matrix:
Smallest eigenvalue                        ... 1.264e-03
Time for diagonalization                   ...    0.002 sec
Threshold for overlap eigenvalues          ... 1.000e-08
Number of eigenvalues below threshold      ... 0
Time for construction of square roots      ...    0.050 sec
Total time needed                          ...    0.053 sec

-------------------
DFT GRID GENERATION
-------------------

General Integration Accuracy     IntAcc      ...  4.340
Radial Grid Type                 RadialGrid  ... Gauss-Chebyshev
Angular Grid (max. acc.)         AngularGrid ... Lebedev-110
Angular grid pruning method      GridPruning ... 3 (G Style)
Weight generation scheme         WeightScheme... Becke
Basis function cutoff            BFCut       ...    1.0000e-10
Integration weight cutoff        WCut        ...    1.0000e-14
Grids for H and He will be reduced by one unit

# of grid points (after initial pruning)     ...  14700 (   0.0 sec)
# of grid points (after weights+screening)   ...  14158 (   0.1 sec)
nearest neighbour list constructed           ...    0.0 sec
Grid point re-assignment to atoms done       ...    0.0 sec
Grid point division into batches done        ...    0.0 sec
Reduced shell lists constructed in    0.3 sec

Total number of grid points                  ...    14158
Total number of batches                      ...      228
Average number of points per batch           ...       62
Average number of grid points per atom       ...     1180
Average number of shells per batch           ...    27.90 (58.11%)
Average number of basis functions per batch  ...    60.38 (62.89%)
Average number of large shells per batch     ...    20.18 (72.34%)
Average number of large basis fcns per batch ...    46.23 (76.57%)
Maximum spatial batch extension              ...  16.11, 21.59, 30.19 au
Average spatial batch extension              ...   4.22,  4.53,  5.53 au

Time for grid setup =    0.456 sec

------------------------------
INITIAL GUESS: MODEL POTENTIAL
------------------------------
Loading Hartree-Fock densities                     ... done
Calculating cut-offs                               ... done
Setting up the integral package                    ... done
Initializing the effective Hamiltonian             ... done
Starting the Coulomb interaction                   ... done (   0.1 sec)
Reading the grid                                   ... done
Mapping shells                                     ... done
Starting the XC term evaluation                    ... done (   0.4 sec)
  promolecular density results
     # of electrons  =     41.996247198
     EX              =    -32.042934883
     EC              =     -1.258275135
     EX+EC           =    -33.301210018
Transforming the Hamiltonian                       ... done (   0.0 sec)
Diagonalizing the Hamiltonian                      ... done (   0.0 sec)
Back transforming the eigenvectors                 ... done (   0.0 sec)
Now organizing SCF variables                       ... done
                      ------------------
                      INITIAL GUESS DONE (   1.2 sec)
                      ------------------
--------------
SCF ITERATIONS
--------------
ITER       Energy         Delta-E        Max-DP      RMS-DP      [F,P]   Gradient Norm
               ***  Starting incremental Fock matrix formation  ***
                             ****Resetting KDIIS****
                             ****Turning on KDIIS(Cayley)****
  0   -229.8433597124   0.000000000000 0.03541248  0.00238366  0.1245822   0.101429880
  1   -229.9322615620  -0.088901849543 0.05128356  0.00344051  0.1057421   0.086575464
  2   -230.0341941141  -0.101932552170 0.06513383  0.00503558  0.1122098   0.072512997
  3   -230.1600028012  -0.125808687095 0.08848111  0.00850882  0.1256338   0.050835892
  4   -230.3273914099  -0.167388608703 0.01551846  0.00118776  0.1327345   0.030259587
  5   -230.3618968420  -0.034505432046 0.00575003  0.00037318  0.1308896   0.029908715
  6   -230.3630090794  -0.001112237478 0.06744065  0.00434587  0.1294732   0.030187162
  7   -230.4756377801  -0.112628700680 0.11172097  0.00926044  0.1031424   0.024566160
  8   -230.6037688194  -0.128131039286 0.06406796  0.00514215  0.0145259   0.007457267
  9   -230.5739869268   0.029781892576 0.01519090  0.00110024  0.0532899   0.014218279
 10   -230.5629354664   0.011051460416 0.02999276  0.00200390  0.0608831   0.016159112
 11   -230.5561331639   0.006802302526 0.03601773  0.00263179  0.0633674   0.016190604
 12   -230.5741700062  -0.018036842268 0.05072178  0.00383498  0.0374067   0.011100955
 13   -230.6037434915  -0.029573485288 0.07435562  0.00474602  0.0188791   0.007788413
 14   -230.6134275307  -0.009684039270 0.01370498  0.00093929  0.0085084   0.007789588
 15   -230.6155229958  -0.002095465085 0.01662041  0.00048810  0.0028025   0.001459669
 16   -230.6159202414  -0.000397245636 0.01307532  0.00033768  0.0021225   0.001443668
 17   -230.6162113719  -0.000291130415 0.01711064  0.00039849  0.0018293   0.000982718
 18   -230.6164612920  -0.000249920140 0.01255461  0.00026781  0.0013776   0.000701546
 19   -230.6165813467  -0.000120054750 0.00987710  0.00021311  0.0010422   0.000629024
               *** Restarting incremental Fock matrix formation ***
                             ****Resetting KDIIS****
 20   -230.6166540290  -0.000072682219 0.00024676  0.00000770  0.0006760   0.000392435
 21   -230.6166569988  -0.000002969791 0.00065483  0.00001678  0.0006572   0.000337997
 22   -230.6166624758  -0.000005477066 0.00333066  0.00008018  0.0006319   0.000313795
 23   -230.6166847548  -0.000022279021 0.00906894  0.00020873  0.0005391   0.000237343
 24   -230.6167180577  -0.000033302890 0.00302704  0.00006271  0.0002363   0.000111269
 25   -230.6167226463  -0.000004588560 0.00212713  0.00004459  0.0001714   0.000139601
 26   -230.6167247417  -0.000002095445 0.00040958  0.00001983  0.0001021   0.000110028
                          ***Energy convergence achieved***
 27   -230.6167253361  -0.000000594342 0.00154064  0.00003148  0.0000769   0.000074620
 28   -230.6167259001  -0.000000564027 0.00024597  0.00000568  0.0000338   0.000020302
 29   -230.6167259565  -0.000000056397 0.00019050  0.00000465  0.0000282   0.000015008

            ***Energy convergence in two consecutive cycles with***
                    ***'reasonable' density convergence***
                       *** signaling convergence ***

                    *** KDIIS BlockDiag ( 0.002 sec) ***

               *****************************************************
               *                     SUCCESS                       *
               *           SCF CONVERGED AFTER  30 CYCLES          *
               *****************************************************

Setting up the final grid:

General Integration Accuracy     IntAcc      ...  4.670
Radial Grid Type                 RadialGrid  ... Gauss-Chebyshev
Angular Grid (max. acc.)         AngularGrid ... Lebedev-302
Angular grid pruning method      GridPruning ... 3 (G Style)
Weight generation scheme         WeightScheme... Becke
Basis function cutoff            BFCut       ...    1.0000e-10
Integration weight cutoff        WCut        ...    1.0000e-14
Grids for H and He will be reduced by one unit

# of grid points (after initial pruning)     ...  57636 (   0.0 sec)
# of grid points (after weights+screening)   ...  55128 (   0.2 sec)
nearest neighbour list constructed           ...    0.0 sec
Grid point re-assignment to atoms done       ...    0.0 sec
Grid point division into batches done        ...    0.3 sec
Reduced shell lists constructed in    1.0 sec

Total number of grid points                  ...    55128
Total number of batches                      ...      868
Average number of points per batch           ...       63
Average number of grid points per atom       ...     4594
Average number of shells per batch           ...    23.93 (49.85%)
Average number of basis functions per batch  ...    51.92 (54.09%)
Average number of large shells per batch     ...    17.07 (71.35%)
Average number of large basis fcns per batch ...    38.95 (75.01%)
Maximum spatial batch extension              ...  15.46, 17.13, 16.56 au
Average spatial batch extension              ...   2.84,  2.99,  3.21 au

Final grid set up in    1.3 sec
Final integration                            ... done (   1.2 sec)
Change in XC energy                          ...     0.000848976
Integrated number of electrons               ...    42.000014329
Previous integrated no of electrons          ...    42.000591799

----------------
TOTAL SCF ENERGY
----------------

Total Energy       :         -230.61587702 Eh           -6275.37705 eV

Components:
Nuclear Repulsion  :          178.31020560 Eh            4852.06737 eV
Electronic Energy  :         -408.92608262 Eh          -11127.44442 eV
One Electron Energy:         -661.83262657 Eh          -18009.38135 eV
Two Electron Energy:          252.90654395 Eh            6881.93693 eV

Virial components:
Potential Energy   :         -459.40294405 Eh          -12500.98965 eV
Kinetic Energy     :          228.78706703 Eh            6225.61260 eV
Virial Ratio       :            2.00799350


DFT components:
N(Alpha)           :       21.000007164577 electrons
N(Beta)            :       21.000007164577 electrons
N(Total)           :       42.000014329155 electrons
E(XC)              :      -22.973473868143 Eh       

---------------
SCF CONVERGENCE
---------------

  Last Energy change         ...   -3.4411e-08  Tolerance :   1.0000e-06
  Last MAX-Density change    ...    8.9903e-05  Tolerance :   1.0000e-05
  Last RMS-Density change    ...    3.5028e-06  Tolerance :   1.0000e-06
  Last DIIS Error            ...    1.8582e-05  Tolerance :   1.0000e-06

             **** THE GBW FILE WAS UPDATED (Scan_38.gbw) ****
             **** DENSITY FILE WAS UPDATED (Scan_38.scfp.tmp) ****
             **** ENERGY FILE WAS UPDATED (Scan_38.en.tmp) ****
----------------
ORBITAL ENERGIES
----------------

  NO   OCC          E(Eh)            E(eV) 
   0   2.0000     -10.363557      -282.0067 
   1   2.0000     -10.363243      -281.9982 
   2   2.0000     -10.363159      -281.9959 
   3   2.0000     -10.362416      -281.9757 
   4   2.0000     -10.362325      -281.9732 
   5   2.0000     -10.361995      -281.9642 
   6   2.0000      -1.026317       -27.9275 
   7   2.0000      -0.882775       -24.0215 
   8   2.0000      -0.882715       -24.0199 
   9   2.0000      -0.697963       -18.9925 
  10   2.0000      -0.697775       -18.9874 
  11   2.0000      -0.597114       -16.2483 
  12   2.0000      -0.524617       -14.2756 
  13   2.0000      -0.521696       -14.1961 
  14   2.0000      -0.379793       -10.3347 
  15   2.0000      -0.379596       -10.3293 
  16   2.0000      -0.358118        -9.7449 
  17   2.0000      -0.357798        -9.7362 
  18   2.0000      -0.285067        -7.7571 
  19   2.0000      -0.269409        -7.3310 
  20   2.0000      -0.269403        -7.3308 
  21   0.0000      -0.190541        -5.1849 
  22   0.0000      -0.190536        -5.1848 
  23   0.0000      -0.175240        -4.7685 
  24   0.0000      -0.076884        -2.0921 
  25   0.0000      -0.020804        -0.5661 
  26   0.0000      -0.020377        -0.5545 
  27   0.0000       0.066730         1.8158 
  28   0.0000       0.066800         1.8177 
  29   0.0000       0.274945         7.4816 
  30   0.0000       0.372756        10.1432 
  31   0.0000       0.372849        10.1457 
  32   0.0000       0.496575        13.5125 
  33   0.0000       0.496819        13.5191 
  34   0.0000       0.552397        15.0315 
  35   0.0000       0.554859        15.0985 
  36   0.0000       0.577375        15.7112 
  37   0.0000       0.584365        15.9014 
  38   0.0000       0.584698        15.9104 
  39   0.0000       0.585143        15.9226 
  40   0.0000       0.663182        18.0461 
  41   0.0000       0.663267        18.0484 
  42   0.0000       0.664319        18.0770 
  43   0.0000       0.664778        18.0895 
  44   0.0000       0.690046        18.7771 
  45   0.0000       0.750676        20.4269 
  46   0.0000       0.750741        20.4287 
  47   0.0000       0.760083        20.6829 
  48   0.0000       0.785154        21.3651 
  49   0.0000       0.785492        21.3743 
  50   0.0000       0.829079        22.5604 
  51   0.0000       0.829264        22.5654 
  52   0.0000       0.850635        23.1469 
  53   0.0000       0.855302        23.2739 
  54   0.0000       0.856096        23.2955 
  55   0.0000       0.862234        23.4626 
  56   0.0000       0.862357        23.4659 
  57   0.0000       0.867245        23.5989 
  58   0.0000       0.867397        23.6031 
  59   0.0000       0.879045        23.9200 
  60   0.0000       1.079224        29.3672 
  61   0.0000       1.079565        29.3765 
  62   0.0000       1.129264        30.7288 
  63   0.0000       1.251252        34.0483 
  64   0.0000       1.251399        34.0523 
  65   0.0000       1.312565        35.7167 
  66   0.0000       1.382259        37.6132 
  67   0.0000       1.448393        39.4128 
  68   0.0000       1.575814        42.8801 
  69   0.0000       1.575832        42.8806 
  70   0.0000       1.576265        42.8924 
  71   0.0000       1.605897        43.6987 
  72   0.0000       1.606260        43.7085 
  73   0.0000       1.796327        48.8806 
  74   0.0000       1.797087        48.9012 
  75   0.0000       1.886506        51.3344 
  76   0.0000       1.918930        52.2167 
  77   0.0000       2.205276        60.0086 
  78   0.0000       2.205816        60.0233 
  79   0.0000       2.274532        61.8932 
  80   0.0000       2.274850        61.9018 
  81   0.0000       2.274880        61.9026 
  82   0.0000       2.275883        61.9299 
  83   0.0000       2.425145        65.9915 
  84   0.0000       2.425669        66.0058 
  85   0.0000       2.492363        67.8206 
  86   0.0000       2.493239        67.8445 
  87   0.0000       2.494661        67.8832 
  88   0.0000       2.559445        69.6460 
  89   0.0000       2.817719        76.6740 
  90   0.0000       2.819124        76.7123 
  91   0.0000       2.836710        77.1908 
  92   0.0000       2.891933        78.6935 
  93   0.0000       2.892781        78.7166 
  94   0.0000       3.194484        86.9263 
  95   0.0000       3.486366        94.8688 

                    ********************************
                    * MULLIKEN POPULATION ANALYSIS *
                    ********************************

-----------------------
MULLIKEN ATOMIC CHARGES
-----------------------
   0 C :    0.000348
   1 H :   -0.000154
   2 C :    0.000631
   3 H :   -0.000354
   4 C :   -0.000351
   5 H :   -0.000131
   6 C :    0.000346
   7 H :   -0.000155
   8 C :    0.000639
   9 H :   -0.000353
  10 C :   -0.000335
  11 H :   -0.000131
Sum of atomic charges:   -0.0000000

--------------------------------
MULLIKEN REDUCED ORBITAL CHARGES
--------------------------------
  0 C s       :     3.125955  s :     3.125955
      pz      :     0.988157  p :     2.838820
      px      :     0.969065
      py      :     0.881599
      dz2     :     0.002418  d :     0.034877
      dxz     :     0.003391
      dyz     :     0.008232
      dx2y2   :     0.008328
      dxy     :     0.012508
  1 H s       :     1.000154  s :     1.000154
  2 C s       :     3.126198  s :     3.126198
      pz      :     0.988635  p :     2.838297
      px      :     0.908899
      py      :     0.940763
      dz2     :     0.002383  d :     0.034874
      dxz     :     0.006717
      dyz     :     0.004951
      dx2y2   :     0.012064
      dxy     :     0.008759
  3 H s       :     1.000354  s :     1.000354
  4 C s       :     3.127715  s :     3.127715
      pz      :     0.988276  p :     2.837682
      px      :     0.898427
      py      :     0.950979
      dz2     :     0.002416  d :     0.034954
      dxz     :     0.007360
      dyz     :     0.004285
      dx2y2   :     0.010917
      dxy     :     0.009976
  5 H s       :     1.000131  s :     1.000131
  6 C s       :     3.125954  s :     3.125954
      pz      :     0.988160  p :     2.838823
      px      :     0.969060
      py      :     0.881603
      dz2     :     0.002418  d :     0.034878
      dxz     :     0.003391
      dyz     :     0.008232
      dx2y2   :     0.008328
      dxy     :     0.012508
  7 H s       :     1.000155  s :     1.000155
  8 C s       :     3.126196  s :     3.126196
      pz      :     0.988629  p :     2.838291
      px      :     0.908897
      py      :     0.940766
      dz2     :     0.002383  d :     0.034874
      dxz     :     0.006717
      dyz     :     0.004951
      dx2y2   :     0.012064
      dxy     :     0.008759
  9 H s       :     1.000353  s :     1.000353
 10 C s       :     3.127718  s :     3.127718
      pz      :     0.988272  p :     2.837664
      px      :     0.898423
      py      :     0.950969
      dz2     :     0.002416  d :     0.034953
      dxz     :     0.007359
      dyz     :     0.004285
      dx2y2   :     0.010917
      dxy     :     0.009976
 11 H s       :     1.000131  s :     1.000131


                     *******************************
                     * LOEWDIN POPULATION ANALYSIS *
                     *******************************

----------------------
LOEWDIN ATOMIC CHARGES
----------------------
   0 C :    0.000268
   1 H :   -0.000308
   2 C :    0.000414
   3 H :   -0.000508
   4 C :    0.000409
   5 H :   -0.000285
   6 C :    0.000267
   7 H :   -0.000309
   8 C :    0.000418
   9 H :   -0.000507
  10 C :    0.000427
  11 H :   -0.000285

-------------------------------
LOEWDIN REDUCED ORBITAL CHARGES
-------------------------------
  0 C s       :     2.938622  s :     2.938622
      pz      :     0.977229  p :     2.981175
      px      :     0.971530
      py      :     1.032416
      dz2     :     0.005885  d :     0.079935
      dxz     :     0.004791
      dyz     :     0.017825
      dx2y2   :     0.014850
      dxy     :     0.036583
  1 H s       :     1.000308  s :     1.000308
  2 C s       :     2.938762  s :     2.938762
      pz      :     0.977624  p :     2.980875
      px      :     1.013030
      py      :     0.990221
      dz2     :     0.005860  d :     0.079950
      dxz     :     0.013719
      dyz     :     0.008941
      dx2y2   :     0.034160
      dxy     :     0.017270
  3 H s       :     1.000508  s :     1.000508
  4 C s       :     2.939027  s :     2.939027
      pz      :     0.977246  p :     2.980597
      px      :     1.022036
      py      :     0.981315
      dz2     :     0.005879  d :     0.079967
      dxz     :     0.015449
      dyz     :     0.007180
      dx2y2   :     0.028222
      dxy     :     0.023236
  5 H s       :     1.000285  s :     1.000285
  6 C s       :     2.938621  s :     2.938621
      pz      :     0.977231  p :     2.981176
      px      :     0.971525
      py      :     1.032420
      dz2     :     0.005885  d :     0.079936
      dxz     :     0.004791
      dyz     :     0.017825
      dx2y2   :     0.014851
      dxy     :     0.036584
  7 H s       :     1.000309  s :     1.000309
  8 C s       :     2.938761  s :     2.938761
      pz      :     0.977618  p :     2.980871
      px      :     1.013028
      py      :     0.990226
      dz2     :     0.005860  d :     0.079949
      dxz     :     0.013718
      dyz     :     0.008941
      dx2y2   :     0.034160
      dxy     :     0.017270
  9 H s       :     1.000507  s :     1.000507
 10 C s       :     2.939028  s :     2.939028
      pz      :     0.977243  p :     2.980579
      px      :     1.022030
      py      :     0.981307
      dz2     :     0.005879  d :     0.079966
      dxz     :     0.015449
      dyz     :     0.007180
      dx2y2   :     0.028222
      dxy     :     0.023236
 11 H s       :     1.000285  s :     1.000285


                      *****************************
                      * MAYER POPULATION ANALYSIS *
                      *****************************

  NA   - Mulliken gross atomic population
  ZA   - Total nuclear charge
  QA   - Mulliken gross atomic charge
  VA   - Mayer's total valence
  BVA  - Mayer's bonded valence
  FA   - Mayer's free valence

  ATOM       NA         ZA         QA         VA         BVA        FA
  0 C      5.9997     6.0000     0.0003     4.0118     4.0118    -0.0000
  1 H      1.0002     1.0000    -0.0002     1.0000     1.0000    -0.0000
  2 C      5.9994     6.0000     0.0006     4.0116     4.0116    -0.0000
  3 H      1.0004     1.0000    -0.0004     1.0000     1.0000    -0.0000
  4 C      6.0004     6.0000    -0.0004     4.0116     4.0116    -0.0000
  5 H      1.0001     1.0000    -0.0001     1.0000     1.0000    -0.0000
  6 C      5.9997     6.0000     0.0003     4.0118     4.0118    -0.0000
  7 H      1.0002     1.0000    -0.0002     1.0000     1.0000    -0.0000
  8 C      5.9994     6.0000     0.0006     4.0116     4.0116     0.0000
  9 H      1.0004     1.0000    -0.0004     1.0000     1.0000     0.0000
 10 C      6.0003     6.0000    -0.0003     4.0116     4.0116     0.0000
 11 H      1.0001     1.0000    -0.0001     1.0000     1.0000    -0.0000

  Mayer bond orders larger than 0.1
B(  0-C ,  2-C ) :   1.8824 B(  0-C ,  6-C ) :   0.1507 B(  0-C , 10-C ) :   1.8828 
B(  1-H ,  3-H ) :   0.4396 B(  1-H ,  7-H ) :   0.1097 B(  1-H , 11-H ) :   0.4426 
B(  2-C ,  4-C ) :   1.8826 B(  2-C ,  8-C ) :   0.1506 B(  3-H ,  5-H ) :   0.4426 
B(  3-H ,  9-H ) :   0.1097 B(  4-C ,  6-C ) :   1.8828 B(  4-C , 10-C ) :   0.1506 
B(  5-H ,  7-H ) :   0.4398 B(  5-H , 11-H ) :   0.1096 B(  6-C ,  8-C ) :   1.8824 
B(  7-H ,  9-H ) :   0.4424 B(  8-C , 10-C ) :   1.8826 B(  9-H , 11-H ) :   0.4398 


-------
TIMINGS
-------

Total SCF time: 0 days 0 hours 2 min 43 sec 

Total time                  ....     163.493 sec
Sum of individual times     ....     162.246 sec  ( 99.2%)

Fock matrix formation       ....     159.604 sec  ( 97.6%)
  XC integration            ....      15.220 sec  (  9.5% of F)
    Basis function eval.    ....       6.232 sec  ( 40.9% of XC)
    Density eval.           ....       1.157 sec  (  7.6% of XC)
    XC-Functional eval.     ....       3.313 sec  ( 21.8% of XC)
    XC-Potential eval.      ....       1.559 sec  ( 10.2% of XC)
Diagonalization             ....       0.111 sec  (  0.1%)
Density matrix formation    ....       0.004 sec  (  0.0%)
Population analysis         ....       0.029 sec  (  0.0%)
Initial guess               ....       0.778 sec  (  0.5%)
Orbital Transformation      ....       0.000 sec  (  0.0%)
Orbital Orthonormalization  ....       0.000 sec  (  0.0%)
DIIS solution               ....       0.000 sec  (  0.0%)
Grid generation             ....       1.721 sec  (  1.1%)


-------------------------------------------------------------------------------
                          DFT DISPERSION CORRECTION                            
                                                                               
                              DFTD3 V3.1  Rev 1                                
                              USING zero damping                               
-------------------------------------------------------------------------------
The omegaB97X-D3 functional is recognized. Fit by Chai et al.
Active option DFTDOPT                   ...         3   

molecular C6(AA) [au] = 2353.781910 


            DFT-D V3
 parameters
 s6 scaling factor         :     1.0000 
 rs6 scaling factor        :     1.2810 
 s8 scaling factor         :     1.0000 
 rs8 scaling factor        :     1.0940 
 Damping factor alpha6     :    14.0000 
 Damping factor alpha8     :    16.0000 
 ad hoc parameters k1-k3   :    16.0000     1.3333    -4.0000 

 Edisp/kcal,au: -0.543928439093  -0.000866805050 
 E6   /kcal   :  -0.392332725 
 E8   /kcal   :  -0.151595715 
 % E8         :  27.870525536 

-------------------------   ----------------
Dispersion correction           -0.000866805
-------------------------   ----------------


-------------------------   --------------------
FINAL SINGLE POINT ENERGY      -230.616743820096
-------------------------   --------------------


                            ***************************************
                            *     ORCA property calculations      *
                            ***************************************

                                    ---------------------
                                    Active property flags
                                    ---------------------
   (+) Dipole Moment


------------------------------------------------------------------------------
                       ORCA ELECTRIC PROPERTIES CALCULATION
------------------------------------------------------------------------------

Dipole Moment Calculation                       ... on
Quadrupole Moment Calculation                   ... off
Polarizability Calculation                      ... off
GBWName                                         ... Scan_38.gbw
Electron density file                           ... Scan_38.scfp.tmp

-------------
DIPOLE MOMENT
-------------
                                X             Y             Z
Electronic contribution:     -0.00010       0.00011      -0.00000
Nuclear contribution   :      0.00013      -0.00018       0.00000
                        -----------------------------------------
Total Dipole Moment    :      0.00003      -0.00006       0.00000
                        -----------------------------------------
Magnitude (a.u.)       :      0.00007
Magnitude (Debye)      :      0.00017


Timings for individual modules:

Sum of individual times         ...      164.545 sec (=   2.742 min)
GTO integral calculation        ...        0.962 sec (=   0.016 min)   0.6 %
SCF iterations                  ...      163.582 sec (=   2.726 min)  99.4 %
                             ****ORCA TERMINATED NORMALLY****
TOTAL RUN TIME: 0 days 0 hours 2 minutes 45 seconds 370 msec
