
                                 *****************
                                 * O   R   C   A *
                                 *****************

           --- An Ab Initio, DFT and Semiempirical electronic structure package ---

                  #######################################################
                  #                        -***-                        #
                  #  Department of molecular theory and spectroscopy    #
                  #              Directorship: Frank Neese              #
                  # Max Planck Institute for Chemical Energy Conversion #
                  #                  D-45470 Muelheim/Ruhr              #
                  #                       Germany                       #
                  #                                                     #
                  #                  All rights reserved                #
                  #                        -***-                        #
                  #######################################################


                         Program Version 4.0.0.2 - RELEASE -


 With contributions from (in alphabetic order):
   Daniel Aravena         : Magnetic Properties
   Michael Atanasov       : Ab Initio Ligand Field Theory
   Ute Becker             : Parallelization
   Martin Brehm           : Molecular dynamics
   Dmytro Bykov           : SCF Hessian
   Vijay G. Chilkuri      : MRCI spin determinant printing
   Dipayan Datta          : RHF DLPNO-CCSD density
   Achintya Kumar Dutta   : EOM-CC, STEOM-CC
   Dmitry Ganyushin       : Spin-Orbit,Spin-Spin,Magnetic field MRCI
   Yang Guo               : DLPNO-NEVPT2, CIM, IAO-localization
   Andreas Hansen         : Spin unrestricted coupled pair/coupled cluster methods
   Lee Huntington         : MR-EOM, pCC
   Robert Izsak           : Overlap fitted RIJCOSX, COSX-SCS-MP3, EOM
   Christian Kollmar      : KDIIS, OOCD, Brueckner-CCSD(T), CCSD density
   Simone Kossmann        : Meta GGA functionals, TD-DFT gradient, OOMP2, MP2 Hessian
   Martin Krupicka        : AUTO-CI
   Dagmar Lenk            : GEPOL surface
   Dimitrios Liakos       : Extrapolation schemes; parallel MDCI
   Dimitrios Manganas     : ROCIS; embedding schemes
   Dimitrios Pantazis     : SARC Basis sets
   Taras Petrenko         : DFT Hessian,TD-DFT gradient, ASA, ECA, R-Raman, ABS, FL, XAS/XES, NRVS
   Peter Pinski           : DLPNO-MP2
   Christoph Reimann      : Effective Core Potentials
   Marius Retegan         : Local ZFS, SOC
   Christoph Riplinger    : Optimizer, TS searches, QM/MM, DLPNO-CCSD(T), (RO)-DLPNO pert. Triples
   Tobias Risthaus        : Range-separated hybrids, TD-DFT gradient, RPA, STAB
   Michael Roemelt        : Restricted open shell CIS
   Masaaki Saitow         : Open-shell DLPNO
   Barbara Sandhoefer     : DKH picture change effects
   Kantharuban Sivalingam : CASSCF convergence, NEVPT2, FIC-MRCI
   Georgi Stoychev        : AutoAux
   Boris Wezisla          : Elementary symmetry handling
   Frank Wennmohs         : Technical directorship


 We gratefully acknowledge several colleagues who have allowed us to
 interface, adapt or use parts of their codes:
   Stefan Grimme, W. Hujo, H. Kruse,             : VdW corrections, initial TS optimization,
                  C. Bannwarth                     DFT functionals, gCP, sTDA/sTD-DF
   Ed Valeev                                     : LibInt (2-el integral package), F12 methods
   Garnet Chan, S. Sharma, J. Yang, R. Olivares  : DMRG
   Ulf Ekstrom                                   : XCFun DFT Library
   Mihaly Kallay                                 : mrcc  (arbitrary order and MRCC methods)
   Jiri Pittner, Ondrej Demel                    : Mk-CCSD
   Frank Weinhold                                : gennbo (NPA and NBO analysis)
   Christopher J. Cramer and Donald G. Truhlar   : smd solvation model


 Your calculation uses the libint2 library for the computation of 2-el integrals
 For citations please refer to: http://libint.valeyev.net

 This ORCA versions uses:
   CBLAS   interface :  Fast vector & matrix operations
   LAPACKE interface :  Fast linear algebra routines
   SCALAPACK package :  Parallel linear algebra routines


Your calculation utilizes the atom-pairwise dispersion correction
with the zero-damping scheme (D30)
Cite in your paper:
S.Grimme, J.Antony, S.Ehrlich and H.Krieg, J.Chem.Phys., 132, (2010), 154104 
   

XCFun DFT library Copyright 2009-2010 Ulf Ekstrom and contributors.
See http://admol.org/xcfun for more information. This is free soft-
ware; see the source code for copying conditions. There is ABSOLUTELY
NO WARRANTY; not even for MERCHANTABILITY or FITNESS FOR A PARTICULAR
PURPOSE. For details see the documentation. Scientific users of this 
library should cite U. Ekstrom, L. Visscher, R. Bast, A. J. Thorvald-
sen and K. Ruud; J.Chem.Theor.Comp. 2010, DOI: 10.1021/ct100117s
XCFun Version 0.99 
Your calculation utilizes the basis: 6-31G(d)
   H-He, Li-Ne : W. J. Hehre, R. Ditchfield and J.A. Pople, J. Chem. Phys. 56, 2257 (1972).
                 Note: He and Ne are unpublished basis sets taken from the Gaussian program.
                 Note: Li and B from J. D. Dill and J. A. Pople, J. Chem. Phys. 62, 2921 (1975).
   Na - Ar     : M. M. Francl, W. J. Pietro, W. J. Hehre, J. S. Binkley, M. S. Gordon, 
                 D. J. DeFrees and J. A. Pople, J. Chem. Phys. 77, 3654 (1982).
   K - Zn      : V. A. Rassolov, J. A. Pople, M. A. Ratner, and T. L. Windus, J. Chem. Phys. 109, 1223 (1998).

================================================================================
                                        WARNINGS
                       Please study these warnings very carefully!
================================================================================

Warning: TCutStore was < 0. Adjusted to Thresh (uncritical)

INFO   : the flag for use of LIBINT has been found!

================================================================================
                                       INPUT FILE
================================================================================
NAME = initial39.inp
|  1> ! WB97X-D3 6-31G(d) VerySlowConv
|  2> ! KDIIS NOSOSCF
|  3> %base "Scan_39"
|  4> 
|  5> %scf
|  6> maxiter 999
|  7> end
|  8> 
|  9> * xyz 0 1
| 10> C          1.459501621343   -2.844760172167   -0.000000886747
| 11> H          5.832923817697   -3.179666447972    0.000000473676
| 12> C          0.882819641775   -1.642386526923   -0.000057729601
| 13> H          3.359577611135    1.977648666520    0.000016847358
| 14> C         -0.446806409558   -1.540619965401   -0.000056484468
| 15> H         -2.343523684148    2.414307438851    0.000015967070
| 16> C         -1.199756350686   -2.641223115330    0.000000865685
| 17> H         -5.573188572741   -2.306447232709   -0.000000402053
| 18> C         -0.623078140725   -3.843597658975    0.000057708390
| 19> H         -3.099702539208   -7.463724282868   -0.000016719338
| 20> C          0.706548849261   -3.945363440795    0.000056464001
| 21> H          2.603294155854   -7.900277262230   -0.000016103974
| 22> **                         ****END OF INPUT****
================================================================================

                       ****************************
                       * Single Point Calculation *
                       ****************************

---------------------------------
CARTESIAN COORDINATES (ANGSTROEM)
---------------------------------
  C      1.459502   -2.844760   -0.000001
  H      5.832924   -3.179666    0.000000
  C      0.882820   -1.642387   -0.000058
  H      3.359578    1.977649    0.000017
  C     -0.446806   -1.540620   -0.000056
  H     -2.343524    2.414307    0.000016
  C     -1.199756   -2.641223    0.000001
  H     -5.573189   -2.306447   -0.000000
  C     -0.623078   -3.843598    0.000058
  H     -3.099703   -7.463724   -0.000017
  C      0.706549   -3.945363    0.000056
  H      2.603294   -7.900277   -0.000016

----------------------------
CARTESIAN COORDINATES (A.U.)
----------------------------
  NO LB      ZA    FRAG     MASS         X           Y           Z
   0 C     6.0000    0    12.011    2.758058   -5.375818   -0.000002
   1 H     1.0000    0     1.008   11.022629   -6.008699    0.000001
   2 C     6.0000    0    12.011    1.668287   -3.103661   -0.000109
   3 H     1.0000    0     1.008    6.348682    3.737214    0.000032
   4 C     6.0000    0    12.011   -0.844342   -2.911350   -0.000107
   5 H     1.0000    0     1.008   -4.428618    4.562380    0.000030
   6 C     6.0000    0    12.011   -2.267211   -4.991188    0.000002
   7 H     1.0000    0     1.008  -10.531800   -4.358554   -0.000001
   8 C     6.0000    0    12.011   -1.177447   -7.263347    0.000109
   9 H     1.0000    0     1.008   -5.857589  -14.104395   -0.000032
  10 C     6.0000    0    12.011    1.335184   -7.455656    0.000107
  11 H     1.0000    0     1.008    4.919513  -14.929360   -0.000030

--------------------------------
INTERNAL COORDINATES (ANGSTROEM)
--------------------------------
 C      0   0   0     0.000000000000     0.00000000     0.00000000
 H      1   0   0     4.386226615342     0.00000000     0.00000000
 C      1   2   0     1.333515838514   120.00231786     0.00000000
 H      3   1   2     4.386226720784   119.99753215     0.00000000
 C      3   1   2     1.333514855346   120.00004556   180.00008217
 H      5   3   1     4.386226988869   119.99835583   179.99608706
 C      5   3   1     1.333514495897   120.00024421     0.00000000
 H      7   5   3     4.386226657675   119.99968021   180.00008086
 C      7   5   3     1.333515018393   119.99987296     0.00000000
 H      9   7   5     4.386226759952   119.99980928   180.00396792
 C      9   7   5     1.333515731760   119.99984635     0.00000000
 H     11   9   7     4.386226863527   119.99872624   180.00391469

---------------------------
INTERNAL COORDINATES (A.U.)
---------------------------
 C      0   0   0     0.000000000000     0.00000000     0.00000000
 H      1   0   0     8.288767064313     0.00000000     0.00000000
 C      1   2   0     2.519979730037   120.00231786     0.00000000
 H      3   1   2     8.288767263568   119.99753215     0.00000000
 C      3   1   2     2.519977872120   120.00004556   180.00008217
 H      5   3   1     8.288767770176   119.99835583   179.99608706
 C      5   3   1     2.519977192859   120.00024421     0.00000000
 H      7   5   3     8.288767144310   119.99968021   180.00008086
 C      7   5   3     2.519978180234   119.99987296     0.00000000
 H      9   7   5     8.288767337586   119.99980928   180.00396792
 C      9   7   5     2.519979528301   119.99984635     0.00000000
 H     11   9   7     8.288767533314   119.99872624   180.00391469

---------------------
BASIS SET INFORMATION
---------------------
There are 2 groups of distinct atoms

 Group   1 Type C   : 10s4p1d contracted to 3s2p1d pattern {631/31/1}
 Group   2 Type H   : 4s contracted to 2s pattern {31}

Atom   0C    basis set group =>   1
Atom   1H    basis set group =>   2
Atom   2C    basis set group =>   1
Atom   3H    basis set group =>   2
Atom   4C    basis set group =>   1
Atom   5H    basis set group =>   2
Atom   6C    basis set group =>   1
Atom   7H    basis set group =>   2
Atom   8C    basis set group =>   1
Atom   9H    basis set group =>   2
Atom  10C    basis set group =>   1
Atom  11H    basis set group =>   2
------------------------------------------------------------------------------
                           ORCA GTO INTEGRAL CALCULATION
------------------------------------------------------------------------------

                         BASIS SET STATISTICS AND STARTUP INFO

 # of primitive gaussian shells          ...  114
 # of primitive gaussian functions       ...  186
 # of contracted shells                  ...   48
 # of contracted basis functions         ...   96
 Highest angular momentum                ...    2
 Maximum contraction depth               ...    6
 Integral package used                   ... LIBINT
 Integral threshhold            Thresh   ...  1.000e-10
 Primitive cut-off              TCut     ...  1.000e-11


------------------------------ INTEGRAL EVALUATION ----------------------------


 * One electron integrals 
 Pre-screening matrix                    ... done
 Shell pair data                         ... done (   0.001 sec)

-------------------------------------------------------------------------------
                                 ORCA SCF
-------------------------------------------------------------------------------

------------
SCF SETTINGS
------------
Hamiltonian:
 Density Functional     Method          .... DFT(GTOs)
 Exchange Functional    Exchange        .... WB97X-D3
 Correlation Functional Correlation     .... WB97X-D3
 Gradients option       PostSCFGGA      .... off
 Hybrid DFT is turned on
   Fraction HF Exchange ScalHFX         ....  0.195728
   Scaling of DF-GGA-X  ScalDFX         ....  0.000000
   Scaling of DF-GGA-C  ScalDFC         ....  1.000000
   Scaling of DF-LDA-C  ScalLDAC        ....  1.000000
   Perturbative correction              ....  0.000000
 Long-range corrected/Screened/Range-Separated Hybrid DFT is turned on
   Amount of maximum screened exact exchange              ....  0.804272
   Range separation parameter mu (erf(mu*r12)/r12)        ....  0.250000


General Settings:
 Integral files         IntName         .... Scan_39
 Hartree-Fock type      HFTyp           .... RHF
 Total Charge           Charge          ....    0
 Multiplicity           Mult            ....    1
 Number of Electrons    NEL             ....   42
 Basis Dimension        Dim             ....   96
 Nuclear Repulsion      ENuc            ....    177.9112027075 Eh

Convergence Acceleration:
 DIIS                   CNVDIIS         .... on
   Start iteration      DIISMaxIt       ....     0
   Startup error        DIISStart       ....  0.200000
   # of expansion vecs  DIISMaxEq       ....     5
   Bias factor          DIISBfac        ....   1.050
   Max. coefficient     DIISMaxC        ....  10.000
 Newton-Raphson         CNVNR           .... off
 SOSCF                  CNVSOSCF        .... off
 Level Shifting         CNVShift        .... off
 Zerner damping         CNVZerner       .... off
 Static damping         CNVDamp         .... off
 Fernandez-Rico         CNVRico         .... off

SCF Procedure:
 Maximum # iterations   MaxIter         ....   999
 SCF integral mode      SCFMode         .... Direct
   Integral package                     .... LIBINT
 Reset frequeny         DirectResetFreq ....    20
 Integral Threshold     Thresh          ....  1.000e-10 Eh
 Primitive CutOff       TCut            ....  1.000e-11 Eh

Convergence Tolerance:
 Convergence Check Mode ConvCheckMode   .... All-Criteria
 Convergence forced     ConvForced      .... 0
 Energy Change          TolE            ....  1.000e-06 Eh
 Max Density Change     TolMaxP         ....  1.000e-05
 RMS Density Change     TolRMSP         ....  1.000e-06
 DIIS Error             TolErr          ....  1.000e-06


Diagonalization of the overlap matrix:
Smallest eigenvalue                        ... 1.265e-03
Time for diagonalization                   ...    0.002 sec
Threshold for overlap eigenvalues          ... 1.000e-08
Number of eigenvalues below threshold      ... 0
Time for construction of square roots      ...    0.006 sec
Total time needed                          ...    0.009 sec

-------------------
DFT GRID GENERATION
-------------------

General Integration Accuracy     IntAcc      ...  4.340
Radial Grid Type                 RadialGrid  ... Gauss-Chebyshev
Angular Grid (max. acc.)         AngularGrid ... Lebedev-110
Angular grid pruning method      GridPruning ... 3 (G Style)
Weight generation scheme         WeightScheme... Becke
Basis function cutoff            BFCut       ...    1.0000e-10
Integration weight cutoff        WCut        ...    1.0000e-14
Grids for H and He will be reduced by one unit

# of grid points (after initial pruning)     ...  14700 (   0.0 sec)
# of grid points (after weights+screening)   ...  14170 (   0.1 sec)
nearest neighbour list constructed           ...    0.0 sec
Grid point re-assignment to atoms done       ...    0.0 sec
Grid point division into batches done        ...    0.1 sec
Reduced shell lists constructed in    0.2 sec

Total number of grid points                  ...    14170
Total number of batches                      ...      230
Average number of points per batch           ...       61
Average number of grid points per atom       ...     1181
Average number of shells per batch           ...    27.64 (57.58%)
Average number of basis functions per batch  ...    59.83 (62.32%)
Average number of large shells per batch     ...    19.95 (72.18%)
Average number of large basis fcns per batch ...    45.97 (76.85%)
Maximum spatial batch extension              ...  15.98, 21.59, 22.17 au
Average spatial batch extension              ...   4.23,  4.61,  5.55 au

Time for grid setup =    0.344 sec

------------------------------
INITIAL GUESS: MODEL POTENTIAL
------------------------------
Loading Hartree-Fock densities                     ... done
Calculating cut-offs                               ... done
Setting up the integral package                    ... done
Initializing the effective Hamiltonian             ... done
Starting the Coulomb interaction                   ... done (   0.1 sec)
Reading the grid                                   ... done
Mapping shells                                     ... done
Starting the XC term evaluation                    ... done (   0.3 sec)
  promolecular density results
     # of electrons  =     41.996242107
     EX              =    -32.042866501
     EC              =     -1.258231782
     EX+EC           =    -33.301098283
Transforming the Hamiltonian                       ... done (   0.0 sec)
Diagonalizing the Hamiltonian                      ... done (   0.0 sec)
Back transforming the eigenvectors                 ... done (   0.0 sec)
Now organizing SCF variables                       ... done
                      ------------------
                      INITIAL GUESS DONE (   1.0 sec)
                      ------------------
--------------
SCF ITERATIONS
--------------
ITER       Energy         Delta-E        Max-DP      RMS-DP      [F,P]   Gradient Norm
               ***  Starting incremental Fock matrix formation  ***
                             ****Resetting KDIIS****
                             ****Turning on KDIIS(Cayley)****
  0   -229.7736614358   0.000000000000 0.03624585  0.00239205  0.1170367   0.101315878
  1   -229.8627379370  -0.089076501233 0.05373672  0.00357527  0.0996413   0.086730889
  2   -229.9728635081  -0.110125571057 0.06681484  0.00504012  0.1023984   0.072478996
  3   -230.0901461750  -0.117282666966 0.11335126  0.00936878  0.1134688   0.050545219
  4   -230.2875883748  -0.197442199718 0.06350431  0.00459815  0.1319415   0.030525211
  5   -230.4122687945  -0.124680419691 0.03878300  0.00277056  0.1198042   0.029163689
  6   -230.4815170569  -0.069248262464 0.08731017  0.00713162  0.0965387   0.024049154
  7   -230.5880609149  -0.106543857932 0.06588817  0.00603232  0.0284620   0.011645420
  8   -230.5373182840   0.050742630815 0.03526881  0.00286711  0.0760655   0.019784231
  9   -230.5793910528  -0.042072768765 0.05215763  0.00501410  0.0463282   0.013398173
 10   -230.6099490081  -0.030557955313 0.02987151  0.00169932  0.0095876   0.008594786
 11   -230.6064143996   0.003534608519 0.02308251  0.00197313  0.0148881   0.007441046
 12   -230.6125928148  -0.006178415250 0.01037332  0.00056711  0.0039588   0.001834620
 13   -230.6131168339  -0.000524019043 0.01095361  0.00070688  0.0026357   0.002457128
 14   -230.6135380117  -0.000421177786 0.00349809  0.00022358  0.0025839   0.002158549
 15   -230.6136371378  -0.000099126089 0.00814889  0.00025011  0.0015000   0.000840452
 16   -230.6137475838  -0.000110446000 0.00573189  0.00013967  0.0011219   0.000403774
 17   -230.6137909211  -0.000043337294 0.00556224  0.00013083  0.0010496   0.000477922
 18   -230.6138231946  -0.000032273545 0.00649151  0.00013488  0.0006091   0.000266588
 19   -230.6138493183  -0.000026123654 0.00469018  0.00009795  0.0004743   0.000222942
               *** Restarting incremental Fock matrix formation ***
                             ****Resetting KDIIS****
 20   -230.6138622474  -0.000012929126 0.00009522  0.00000401  0.0002956   0.000237481
                          ***Energy convergence achieved***
 21   -230.6138630744  -0.000000826978 0.00023842  0.00000655  0.0002869   0.000187905
 22   -230.6138640919  -0.000001017503 0.00140118  0.00003579  0.0002678   0.000163974
 23   -230.6138682657  -0.000004173861 0.00353723  0.00008710  0.0002126   0.000130386
 24   -230.6138734772  -0.000005211463 0.00180203  0.00003725  0.0000795   0.000028409
                          ***Energy convergence achieved***
 25   -230.6138742905  -0.000000813339 0.00028729  0.00000635  0.0000252   0.000014657
 26   -230.6138743486  -0.000000058077 0.00026753  0.00000579  0.0000205   0.000012210

            ***Energy convergence in two consecutive cycles with***
                    ***'reasonable' density convergence***
                       *** signaling convergence ***

                    *** KDIIS BlockDiag ( 0.002 sec) ***

               *****************************************************
               *                     SUCCESS                       *
               *           SCF CONVERGED AFTER  27 CYCLES          *
               *****************************************************

Setting up the final grid:

General Integration Accuracy     IntAcc      ...  4.670
Radial Grid Type                 RadialGrid  ... Gauss-Chebyshev
Angular Grid (max. acc.)         AngularGrid ... Lebedev-302
Angular grid pruning method      GridPruning ... 3 (G Style)
Weight generation scheme         WeightScheme... Becke
Basis function cutoff            BFCut       ...    1.0000e-10
Integration weight cutoff        WCut        ...    1.0000e-14
Grids for H and He will be reduced by one unit

# of grid points (after initial pruning)     ...  57636 (   0.0 sec)
# of grid points (after weights+screening)   ...  55170 (   0.1 sec)
nearest neighbour list constructed           ...    0.0 sec
Grid point re-assignment to atoms done       ...    0.0 sec
Grid point division into batches done        ...    0.3 sec
Reduced shell lists constructed in    1.0 sec

Total number of grid points                  ...    55170
Total number of batches                      ...      870
Average number of points per batch           ...       63
Average number of grid points per atom       ...     4598
Average number of shells per batch           ...    23.60 (49.16%)
Average number of basis functions per batch  ...    51.36 (53.50%)
Average number of large shells per batch     ...    16.80 (71.17%)
Average number of large basis fcns per batch ...    38.49 (74.94%)
Maximum spatial batch extension              ...  15.12, 16.97, 16.56 au
Average spatial batch extension              ...   2.88,  2.97,  3.19 au

Final grid set up in    1.2 sec
Final integration                            ... done (   1.3 sec)
Change in XC energy                          ...     0.000837911
Integrated number of electrons               ...    42.000022195
Previous integrated no of electrons          ...    42.000340639

----------------
TOTAL SCF ENERGY
----------------

Total Energy       :         -230.61303647 Eh           -6275.29975 eV

Components:
Nuclear Repulsion  :          177.91120271 Eh            4841.20995 eV
Electronic Energy  :         -408.52423918 Eh          -11116.50970 eV
One Electron Energy:         -661.04716610 Eh          -17988.00788 eV
Two Electron Energy:          252.52292692 Eh            6871.49818 eV

Virial components:
Potential Energy   :         -459.40389117 Eh          -12501.01542 eV
Kinetic Energy     :          228.79085470 Eh            6225.71567 eV
Virial Ratio       :            2.00796440


DFT components:
N(Alpha)           :       21.000011097573 electrons
N(Beta)            :       21.000011097573 electrons
N(Total)           :       42.000022195146 electrons
E(XC)              :      -22.974242193902 Eh       

---------------
SCF CONVERGENCE
---------------

  Last Energy change         ...   -3.4683e-08  Tolerance :   1.0000e-06
  Last MAX-Density change    ...    7.8108e-05  Tolerance :   1.0000e-05
  Last RMS-Density change    ...    2.4332e-06  Tolerance :   1.0000e-06
  Last DIIS Error            ...    1.2922e-05  Tolerance :   1.0000e-06

             **** THE GBW FILE WAS UPDATED (Scan_39.gbw) ****
             **** DENSITY FILE WAS UPDATED (Scan_39.scfp.tmp) ****
             **** ENERGY FILE WAS UPDATED (Scan_39.en.tmp) ****
----------------
ORBITAL ENERGIES
----------------

  NO   OCC          E(Eh)            E(eV) 
   0   2.0000     -10.363120      -281.9948 
   1   2.0000     -10.362812      -281.9865 
   2   2.0000     -10.362714      -281.9838 
   3   2.0000     -10.361984      -281.9639 
   4   2.0000     -10.361877      -281.9610 
   5   2.0000     -10.361555      -281.9522 
   6   2.0000      -1.025911       -27.9165 
   7   2.0000      -0.882404       -24.0114 
   8   2.0000      -0.882341       -24.0097 
   9   2.0000      -0.697600       -18.9827 
  10   2.0000      -0.697418       -18.9777 
  11   2.0000      -0.596745       -16.2383 
  12   2.0000      -0.524280       -14.2664 
  13   2.0000      -0.521430       -14.1888 
  14   2.0000      -0.379468       -10.3258 
  15   2.0000      -0.379265       -10.3203 
  16   2.0000      -0.357850        -9.7376 
  17   2.0000      -0.357528        -9.7288 
  18   2.0000      -0.283995        -7.7279 
  19   2.0000      -0.268606        -7.3091 
  20   2.0000      -0.268593        -7.3088 
  21   0.0000      -0.191281        -5.2050 
  22   0.0000      -0.191277        -5.2049 
  23   0.0000      -0.176125        -4.7926 
  24   0.0000      -0.076603        -2.0845 
  25   0.0000      -0.020505        -0.5580 
  26   0.0000      -0.020100        -0.5470 
  27   0.0000       0.067035         1.8241 
  28   0.0000       0.067100         1.8259 
  29   0.0000       0.275245         7.4898 
  30   0.0000       0.373054        10.1513 
  31   0.0000       0.373142        10.1537 
  32   0.0000       0.496862        13.5203 
  33   0.0000       0.497102        13.5268 
  34   0.0000       0.553849        15.0710 
  35   0.0000       0.555073        15.1043 
  36   0.0000       0.577788        15.7224 
  37   0.0000       0.585083        15.9209 
  38   0.0000       0.585378        15.9289 
  39   0.0000       0.585425        15.9302 
  40   0.0000       0.663438        18.0531 
  41   0.0000       0.663529        18.0555 
  42   0.0000       0.665683        18.1142 
  43   0.0000       0.665977        18.1222 
  44   0.0000       0.690882        18.7998 
  45   0.0000       0.750927        20.4338 
  46   0.0000       0.750999        20.4357 
  47   0.0000       0.760398        20.6915 
  48   0.0000       0.786397        21.3990 
  49   0.0000       0.786643        21.4057 
  50   0.0000       0.831562        22.6280 
  51   0.0000       0.831753        22.6331 
  52   0.0000       0.850882        23.1537 
  53   0.0000       0.854541        23.2532 
  54   0.0000       0.855458        23.2782 
  55   0.0000       0.859619        23.3914 
  56   0.0000       0.859742        23.3948 
  57   0.0000       0.864261        23.5177 
  58   0.0000       0.864404        23.5216 
  59   0.0000       0.878099        23.8943 
  60   0.0000       1.079497        29.3746 
  61   0.0000       1.079835        29.3838 
  62   0.0000       1.129632        30.7389 
  63   0.0000       1.251394        34.0522 
  64   0.0000       1.251549        34.0564 
  65   0.0000       1.312912        35.7262 
  66   0.0000       1.382608        37.6227 
  67   0.0000       1.448741        39.4222 
  68   0.0000       1.575192        42.8631 
  69   0.0000       1.576154        42.8893 
  70   0.0000       1.576608        42.9017 
  71   0.0000       1.606240        43.7080 
  72   0.0000       1.606608        43.7180 
  73   0.0000       1.796616        48.8884 
  74   0.0000       1.797377        48.9091 
  75   0.0000       1.886843        51.3436 
  76   0.0000       1.919281        52.2263 
  77   0.0000       2.205465        60.0138 
  78   0.0000       2.206012        60.0286 
  79   0.0000       2.274873        61.9025 
  80   0.0000       2.275161        61.9103 
  81   0.0000       2.275192        61.9111 
  82   0.0000       2.276165        61.9376 
  83   0.0000       2.425474        66.0005 
  84   0.0000       2.426006        66.0150 
  85   0.0000       2.492583        67.8266 
  86   0.0000       2.493463        67.8506 
  87   0.0000       2.495001        67.8924 
  88   0.0000       2.559253        69.6408 
  89   0.0000       2.818061        76.6833 
  90   0.0000       2.819458        76.7214 
  91   0.0000       2.837032        77.1996 
  92   0.0000       2.892281        78.7030 
  93   0.0000       2.893133        78.7262 
  94   0.0000       3.194839        86.9360 
  95   0.0000       3.486689        94.8776 

                    ********************************
                    * MULLIKEN POPULATION ANALYSIS *
                    ********************************

-----------------------
MULLIKEN ATOMIC CHARGES
-----------------------
   0 C :    0.000184
   1 H :   -0.000053
   2 C :    0.000502
   3 H :   -0.000286
   4 C :   -0.000443
   5 H :    0.000124
   6 C :    0.000170
   7 H :   -0.000077
   8 C :    0.000517
   9 H :   -0.000262
  10 C :   -0.000472
  11 H :    0.000095
Sum of atomic charges:   -0.0000000

--------------------------------
MULLIKEN REDUCED ORBITAL CHARGES
--------------------------------
  0 C s       :     3.126238  s :     3.126238
      pz      :     0.988166  p :     2.838712
      px      :     0.968803
      py      :     0.881743
      dz2     :     0.002415  d :     0.034866
      dxz     :     0.003386
      dyz     :     0.008230
      dx2y2   :     0.008323
      dxy     :     0.012511
  1 H s       :     1.000053  s :     1.000053
  2 C s       :     3.126572  s :     3.126572
      pz      :     0.988654  p :     2.838064
      px      :     0.908847
      py      :     0.940562
      dz2     :     0.002380  d :     0.034862
      dxz     :     0.006714
      dyz     :     0.004947
      dx2y2   :     0.012066
      dxy     :     0.008754
  3 H s       :     1.000286  s :     1.000286
  4 C s       :     3.127526  s :     3.127526
      pz      :     0.988262  p :     2.837973
      px      :     0.898559
      py      :     0.951152
      dz2     :     0.002414  d :     0.034944
      dxz     :     0.007357
      dyz     :     0.004281
      dx2y2   :     0.010918
      dxy     :     0.009975
  5 H s       :     0.999876  s :     0.999876
  6 C s       :     3.126242  s :     3.126242
      pz      :     0.988170  p :     2.838722
      px      :     0.968804
      py      :     0.881748
      dz2     :     0.002415  d :     0.034866
      dxz     :     0.003386
      dyz     :     0.008230
      dx2y2   :     0.008323
      dxy     :     0.012511
  7 H s       :     1.000077  s :     1.000077
  8 C s       :     3.126568  s :     3.126568
      pz      :     0.988647  p :     2.838053
      px      :     0.908845
      py      :     0.940560
      dz2     :     0.002381  d :     0.034862
      dxz     :     0.006714
      dyz     :     0.004947
      dx2y2   :     0.012066
      dxy     :     0.008754
  9 H s       :     1.000262  s :     1.000262
 10 C s       :     3.127534  s :     3.127534
      pz      :     0.988271  p :     2.837994
      px      :     0.898565
      py      :     0.951158
      dz2     :     0.002414  d :     0.034944
      dxz     :     0.007357
      dyz     :     0.004281
      dx2y2   :     0.010918
      dxy     :     0.009975
 11 H s       :     0.999905  s :     0.999905


                     *******************************
                     * LOEWDIN POPULATION ANALYSIS *
                     *******************************

----------------------
LOEWDIN ATOMIC CHARGES
----------------------
   0 C :    0.000133
   1 H :   -0.000166
   2 C :    0.000299
   3 H :   -0.000399
   4 C :    0.000144
   5 H :    0.000011
   6 C :    0.000126
   7 H :   -0.000189
   8 C :    0.000308
   9 H :   -0.000374
  10 C :    0.000124
  11 H :   -0.000017

-------------------------------
LOEWDIN REDUCED ORBITAL CHARGES
-------------------------------
  0 C s       :     2.938605  s :     2.938605
      pz      :     0.977236  p :     2.981336
      px      :     0.971699
      py      :     1.032401
      dz2     :     0.005883  d :     0.079925
      dxz     :     0.004787
      dyz     :     0.017823
      dx2y2   :     0.014836
      dxy     :     0.036596
  1 H s       :     1.000166  s :     1.000166
  2 C s       :     2.938750  s :     2.938750
      pz      :     0.977638  p :     2.981014
      px      :     1.013062
      py      :     0.990314
      dz2     :     0.005858  d :     0.079938
      dxz     :     0.013715
      dyz     :     0.008937
      dx2y2   :     0.034168
      dxy     :     0.017260
  3 H s       :     1.000399  s :     1.000399
  4 C s       :     2.939001  s :     2.939001
      pz      :     0.977238  p :     2.980898
      px      :     1.022086
      py      :     0.981574
      dz2     :     0.005877  d :     0.079957
      dxz     :     0.015446
      dyz     :     0.007176
      dx2y2   :     0.028225
      dxy     :     0.023231
  5 H s       :     0.999989  s :     0.999989
  6 C s       :     2.938607  s :     2.938607
      pz      :     0.977240  p :     2.981342
      px      :     0.971699
      py      :     1.032404
      dz2     :     0.005883  d :     0.079924
      dxz     :     0.004787
      dyz     :     0.017823
      dx2y2   :     0.014836
      dxy     :     0.036596
  7 H s       :     1.000189  s :     1.000189
  8 C s       :     2.938748  s :     2.938748
      pz      :     0.977632  p :     2.981007
      px      :     1.013062
      py      :     0.990313
      dz2     :     0.005858  d :     0.079938
      dxz     :     0.013716
      dyz     :     0.008937
      dx2y2   :     0.034168
      dxy     :     0.017260
  9 H s       :     1.000374  s :     1.000374
 10 C s       :     2.939005  s :     2.939005
      pz      :     0.977246  p :     2.980915
      px      :     1.022091
      py      :     0.981578
      dz2     :     0.005877  d :     0.079956
      dxz     :     0.015446
      dyz     :     0.007176
      dx2y2   :     0.028225
      dxy     :     0.023231
 11 H s       :     1.000017  s :     1.000017


                      *****************************
                      * MAYER POPULATION ANALYSIS *
                      *****************************

  NA   - Mulliken gross atomic population
  ZA   - Total nuclear charge
  QA   - Mulliken gross atomic charge
  VA   - Mayer's total valence
  BVA  - Mayer's bonded valence
  FA   - Mayer's free valence

  ATOM       NA         ZA         QA         VA         BVA        FA
  0 C      5.9998     6.0000     0.0002     4.0114     4.0114    -0.0000
  1 H      1.0001     1.0000    -0.0001     1.0000     1.0000     0.0000
  2 C      5.9995     6.0000     0.0005     4.0111     4.0111     0.0000
  3 H      1.0003     1.0000    -0.0003     1.0000     1.0000    -0.0000
  4 C      6.0004     6.0000    -0.0004     4.0112     4.0112     0.0000
  5 H      0.9999     1.0000     0.0001     1.0000     1.0000    -0.0000
  6 C      5.9998     6.0000     0.0002     4.0114     4.0114    -0.0000
  7 H      1.0001     1.0000    -0.0001     1.0000     1.0000    -0.0000
  8 C      5.9995     6.0000     0.0005     4.0111     4.0111     0.0000
  9 H      1.0003     1.0000    -0.0003     1.0000     1.0000     0.0000
 10 C      6.0005     6.0000    -0.0005     4.0112     4.0112     0.0000
 11 H      0.9999     1.0000     0.0001     1.0000     1.0000     0.0000

  Mayer bond orders larger than 0.1
B(  0-C ,  2-C ) :   1.8833 B(  0-C ,  6-C ) :   0.1511 B(  0-C , 10-C ) :   1.8835 
B(  1-H ,  3-H ) :   0.4437 B(  1-H ,  7-H ) :   0.1101 B(  1-H , 11-H ) :   0.4409 
B(  2-C ,  4-C ) :   1.8833 B(  2-C ,  8-C ) :   0.1510 B(  3-H ,  5-H ) :   0.4408 
B(  3-H ,  9-H ) :   0.1101 B(  4-C ,  6-C ) :   1.8836 B(  4-C , 10-C ) :   0.1509 
B(  5-H ,  7-H ) :   0.4435 B(  5-H , 11-H ) :   0.1103 B(  6-C ,  8-C ) :   1.8832 
B(  7-H ,  9-H ) :   0.4411 B(  8-C , 10-C ) :   1.8833 B(  9-H , 11-H ) :   0.4435 


-------
TIMINGS
-------

Total SCF time: 0 days 0 hours 2 min 23 sec 

Total time                  ....     143.795 sec
Sum of individual times     ....     142.893 sec  ( 99.4%)

Fock matrix formation       ....     140.559 sec  ( 97.7%)
  XC integration            ....      13.504 sec  (  9.6% of F)
    Basis function eval.    ....       5.438 sec  ( 40.3% of XC)
    Density eval.           ....       1.130 sec  (  8.4% of XC)
    XC-Functional eval.     ....       2.540 sec  ( 18.8% of XC)
    XC-Potential eval.      ....       1.648 sec  ( 12.2% of XC)
Diagonalization             ....       0.127 sec  (  0.1%)
Density matrix formation    ....       0.004 sec  (  0.0%)
Population analysis         ....       0.017 sec  (  0.0%)
Initial guess               ....       0.662 sec  (  0.5%)
Orbital Transformation      ....       0.000 sec  (  0.0%)
Orbital Orthonormalization  ....       0.000 sec  (  0.0%)
DIIS solution               ....       0.000 sec  (  0.0%)
Grid generation             ....       1.524 sec  (  1.1%)


-------------------------------------------------------------------------------
                          DFT DISPERSION CORRECTION                            
                                                                               
                              DFTD3 V3.1  Rev 1                                
                              USING zero damping                               
-------------------------------------------------------------------------------
The omegaB97X-D3 functional is recognized. Fit by Chai et al.
Active option DFTDOPT                   ...         3   

molecular C6(AA) [au] = 2353.784920 


            DFT-D V3
 parameters
 s6 scaling factor         :     1.0000 
 rs6 scaling factor        :     1.2810 
 s8 scaling factor         :     1.0000 
 rs8 scaling factor        :     1.0940 
 Damping factor alpha6     :    14.0000 
 Damping factor alpha8     :    16.0000 
 ad hoc parameters k1-k3   :    16.0000     1.3333    -4.0000 

 Edisp/kcal,au: -0.487867108909  -0.000777465643 
 E6   /kcal   :  -0.350687322 
 E8   /kcal   :  -0.137179787 
 % E8         :  28.118269166 

-------------------------   ----------------
Dispersion correction           -0.000777466
-------------------------   ----------------


-------------------------   --------------------
FINAL SINGLE POINT ENERGY      -230.613813937724
-------------------------   --------------------


                            ***************************************
                            *     ORCA property calculations      *
                            ***************************************

                                    ---------------------
                                    Active property flags
                                    ---------------------
   (+) Dipole Moment


------------------------------------------------------------------------------
                       ORCA ELECTRIC PROPERTIES CALCULATION
------------------------------------------------------------------------------

Dipole Moment Calculation                       ... on
Quadrupole Moment Calculation                   ... off
Polarizability Calculation                      ... off
GBWName                                         ... Scan_39.gbw
Electron density file                           ... Scan_39.scfp.tmp

-------------
DIPOLE MOMENT
-------------
                                X             Y             Z
Electronic contribution:     -0.00017       0.00025      -0.00000
Nuclear contribution   :      0.00013      -0.00018       0.00000
                        -----------------------------------------
Total Dipole Moment    :     -0.00004       0.00007      -0.00000
                        -----------------------------------------
Magnitude (a.u.)       :      0.00008
Magnitude (Debye)      :      0.00020


Timings for individual modules:

Sum of individual times         ...      144.785 sec (=   2.413 min)
GTO integral calculation        ...        0.903 sec (=   0.015 min)   0.6 %
SCF iterations                  ...      143.882 sec (=   2.398 min)  99.4 %
                             ****ORCA TERMINATED NORMALLY****
TOTAL RUN TIME: 0 days 0 hours 2 minutes 25 seconds 604 msec
