
                                 *****************
                                 * O   R   C   A *
                                 *****************

           --- An Ab Initio, DFT and Semiempirical electronic structure package ---

                  #######################################################
                  #                        -***-                        #
                  #  Department of molecular theory and spectroscopy    #
                  #              Directorship: Frank Neese              #
                  # Max Planck Institute for Chemical Energy Conversion #
                  #                  D-45470 Muelheim/Ruhr              #
                  #                       Germany                       #
                  #                                                     #
                  #                  All rights reserved                #
                  #                        -***-                        #
                  #######################################################


                         Program Version 4.0.0.2 - RELEASE -


 With contributions from (in alphabetic order):
   Daniel Aravena         : Magnetic Properties
   Michael Atanasov       : Ab Initio Ligand Field Theory
   Ute Becker             : Parallelization
   Martin Brehm           : Molecular dynamics
   Dmytro Bykov           : SCF Hessian
   Vijay G. Chilkuri      : MRCI spin determinant printing
   Dipayan Datta          : RHF DLPNO-CCSD density
   Achintya Kumar Dutta   : EOM-CC, STEOM-CC
   Dmitry Ganyushin       : Spin-Orbit,Spin-Spin,Magnetic field MRCI
   Yang Guo               : DLPNO-NEVPT2, CIM, IAO-localization
   Andreas Hansen         : Spin unrestricted coupled pair/coupled cluster methods
   Lee Huntington         : MR-EOM, pCC
   Robert Izsak           : Overlap fitted RIJCOSX, COSX-SCS-MP3, EOM
   Christian Kollmar      : KDIIS, OOCD, Brueckner-CCSD(T), CCSD density
   Simone Kossmann        : Meta GGA functionals, TD-DFT gradient, OOMP2, MP2 Hessian
   Martin Krupicka        : AUTO-CI
   Dagmar Lenk            : GEPOL surface
   Dimitrios Liakos       : Extrapolation schemes; parallel MDCI
   Dimitrios Manganas     : ROCIS; embedding schemes
   Dimitrios Pantazis     : SARC Basis sets
   Taras Petrenko         : DFT Hessian,TD-DFT gradient, ASA, ECA, R-Raman, ABS, FL, XAS/XES, NRVS
   Peter Pinski           : DLPNO-MP2
   Christoph Reimann      : Effective Core Potentials
   Marius Retegan         : Local ZFS, SOC
   Christoph Riplinger    : Optimizer, TS searches, QM/MM, DLPNO-CCSD(T), (RO)-DLPNO pert. Triples
   Tobias Risthaus        : Range-separated hybrids, TD-DFT gradient, RPA, STAB
   Michael Roemelt        : Restricted open shell CIS
   Masaaki Saitow         : Open-shell DLPNO
   Barbara Sandhoefer     : DKH picture change effects
   Kantharuban Sivalingam : CASSCF convergence, NEVPT2, FIC-MRCI
   Georgi Stoychev        : AutoAux
   Boris Wezisla          : Elementary symmetry handling
   Frank Wennmohs         : Technical directorship


 We gratefully acknowledge several colleagues who have allowed us to
 interface, adapt or use parts of their codes:
   Stefan Grimme, W. Hujo, H. Kruse,             : VdW corrections, initial TS optimization,
                  C. Bannwarth                     DFT functionals, gCP, sTDA/sTD-DF
   Ed Valeev                                     : LibInt (2-el integral package), F12 methods
   Garnet Chan, S. Sharma, J. Yang, R. Olivares  : DMRG
   Ulf Ekstrom                                   : XCFun DFT Library
   Mihaly Kallay                                 : mrcc  (arbitrary order and MRCC methods)
   Jiri Pittner, Ondrej Demel                    : Mk-CCSD
   Frank Weinhold                                : gennbo (NPA and NBO analysis)
   Christopher J. Cramer and Donald G. Truhlar   : smd solvation model


 Your calculation uses the libint2 library for the computation of 2-el integrals
 For citations please refer to: http://libint.valeyev.net

 This ORCA versions uses:
   CBLAS   interface :  Fast vector & matrix operations
   LAPACKE interface :  Fast linear algebra routines
   SCALAPACK package :  Parallel linear algebra routines


Your calculation utilizes the atom-pairwise dispersion correction
with the zero-damping scheme (D30)
Cite in your paper:
S.Grimme, J.Antony, S.Ehrlich and H.Krieg, J.Chem.Phys., 132, (2010), 154104 
   

XCFun DFT library Copyright 2009-2010 Ulf Ekstrom and contributors.
See http://admol.org/xcfun for more information. This is free soft-
ware; see the source code for copying conditions. There is ABSOLUTELY
NO WARRANTY; not even for MERCHANTABILITY or FITNESS FOR A PARTICULAR
PURPOSE. For details see the documentation. Scientific users of this 
library should cite U. Ekstrom, L. Visscher, R. Bast, A. J. Thorvald-
sen and K. Ruud; J.Chem.Theor.Comp. 2010, DOI: 10.1021/ct100117s
XCFun Version 0.99 
Your calculation utilizes the basis: 6-31G(d)
   H-He, Li-Ne : W. J. Hehre, R. Ditchfield and J.A. Pople, J. Chem. Phys. 56, 2257 (1972).
                 Note: He and Ne are unpublished basis sets taken from the Gaussian program.
                 Note: Li and B from J. D. Dill and J. A. Pople, J. Chem. Phys. 62, 2921 (1975).
   Na - Ar     : M. M. Francl, W. J. Pietro, W. J. Hehre, J. S. Binkley, M. S. Gordon, 
                 D. J. DeFrees and J. A. Pople, J. Chem. Phys. 77, 3654 (1982).
   K - Zn      : V. A. Rassolov, J. A. Pople, M. A. Ratner, and T. L. Windus, J. Chem. Phys. 109, 1223 (1998).

================================================================================
                                        WARNINGS
                       Please study these warnings very carefully!
================================================================================

Warning: TCutStore was < 0. Adjusted to Thresh (uncritical)

INFO   : the flag for use of LIBINT has been found!

================================================================================
                                       INPUT FILE
================================================================================
NAME = initial40.inp
|  1> ! WB97X-D3 6-31G(d) VerySlowConv
|  2> ! KDIIS NOSOSCF
|  3> %base "Scan_40"
|  4> 
|  5> %scf
|  6> maxiter 999
|  7> end
|  8> 
|  9> * xyz 0 1
| 10> C          1.459505056146   -2.844754549780   -0.000003513417
| 11> H          5.934911444247   -3.187477616071    0.000001079569
| 12> C          0.882815657047   -1.642379871182   -0.000070889634
| 13> H          3.417337225052    2.062066235375    0.000020232439
| 14> C         -0.446812243676   -1.540619985126   -0.000066703309
| 15> H         -2.387753446495    2.506535420246    0.000018620625
| 16> C         -1.199760673095   -2.641225905807    0.000003491204
| 17> H         -5.675177611108   -2.298640644811   -0.000001006718
| 18> C         -0.623077285022   -3.843601539251    0.000070866988
| 19> H         -3.157456319918   -7.548145215058   -0.000020100104
| 20> C          0.706552913567   -3.945362953994    0.000066681125
| 21> H          2.647525283255   -7.992503374541   -0.000018758769
| 22> **                         ****END OF INPUT****
================================================================================

                       ****************************
                       * Single Point Calculation *
                       ****************************

---------------------------------
CARTESIAN COORDINATES (ANGSTROEM)
---------------------------------
  C      1.459505   -2.844755   -0.000004
  H      5.934911   -3.187478    0.000001
  C      0.882816   -1.642380   -0.000071
  H      3.417337    2.062066    0.000020
  C     -0.446812   -1.540620   -0.000067
  H     -2.387753    2.506535    0.000019
  C     -1.199761   -2.641226    0.000003
  H     -5.675178   -2.298641   -0.000001
  C     -0.623077   -3.843602    0.000071
  H     -3.157456   -7.548145   -0.000020
  C      0.706553   -3.945363    0.000067
  H      2.647525   -7.992503   -0.000019

----------------------------
CARTESIAN COORDINATES (A.U.)
----------------------------
  NO LB      ZA    FRAG     MASS         X           Y           Z
   0 C     6.0000    0    12.011    2.758065   -5.375807   -0.000007
   1 H     1.0000    0     1.008   11.215357   -6.023460    0.000002
   2 C     6.0000    0    12.011    1.668280   -3.103648   -0.000134
   3 H     1.0000    0     1.008    6.457831    3.896740    0.000038
   4 C     6.0000    0    12.011   -0.844353   -2.911350   -0.000126
   5 H     1.0000    0     1.008   -4.512200    4.736665    0.000035
   6 C     6.0000    0    12.011   -2.267219   -4.991194    0.000007
   7 H     1.0000    0     1.008  -10.724531   -4.343801   -0.000002
   8 C     6.0000    0    12.011   -1.177445   -7.263354    0.000134
   9 H     1.0000    0     1.008   -5.966728  -14.263927   -0.000038
  10 C     6.0000    0    12.011    1.335192   -7.455655    0.000126
  11 H     1.0000    0     1.008    5.003098  -15.103643   -0.000035

--------------------------------
INTERNAL COORDINATES (ANGSTROEM)
--------------------------------
 C      0   0   0     0.000000000000     0.00000000     0.00000000
 H      1   0   0     4.488509935251     0.00000000     0.00000000
 C      1   2   0     1.333519979343   120.00267625     0.00000000
 H      3   1   2     4.488509835499   119.99714497     0.00000000
 C      3   1   2     1.333516189931   120.00002173   180.00027522
 H      5   3   1     4.488509734345   119.99798225   179.99539965
 C      5   3   1     1.333515929762   120.00041542     0.00000000
 H      7   5   3     4.488509934279   119.99952513   180.00027393
 C      7   5   3     1.333518240790   119.99981346     0.00000000
 H      9   7   5     4.488509880434   119.99960047   180.00482335
 C      9   7   5     1.333518597751   119.99982907     0.00000000
 H     11   9   7     4.488509700426   119.99848164   180.00460204

---------------------------
INTERNAL COORDINATES (A.U.)
---------------------------
 C      0   0   0     0.000000000000     0.00000000     0.00000000
 H      1   0   0     8.482054527008     0.00000000     0.00000000
 C      1   2   0     2.519987555070   120.00267625     0.00000000
 H      3   1   2     8.482054338505   119.99714497     0.00000000
 C      3   1   2     2.519980394120   120.00002173   180.00027522
 H      5   3   1     8.482054147352   119.99798225   179.99539965
 C      5   3   1     2.519979902472   120.00041542     0.00000000
 H      7   5   3     8.482054525173   119.99952513   180.00027393
 C      7   5   3     2.519984269681   119.99981346     0.00000000
 H      9   7   5     8.482054423421   119.99960047   180.00482335
 C      9   7   5     2.519984944240   119.99982907     0.00000000
 H     11   9   7     8.482054083254   119.99848164   180.00460204

---------------------
BASIS SET INFORMATION
---------------------
There are 2 groups of distinct atoms

 Group   1 Type C   : 10s4p1d contracted to 3s2p1d pattern {631/31/1}
 Group   2 Type H   : 4s contracted to 2s pattern {31}

Atom   0C    basis set group =>   1
Atom   1H    basis set group =>   2
Atom   2C    basis set group =>   1
Atom   3H    basis set group =>   2
Atom   4C    basis set group =>   1
Atom   5H    basis set group =>   2
Atom   6C    basis set group =>   1
Atom   7H    basis set group =>   2
Atom   8C    basis set group =>   1
Atom   9H    basis set group =>   2
Atom  10C    basis set group =>   1
Atom  11H    basis set group =>   2
------------------------------------------------------------------------------
                           ORCA GTO INTEGRAL CALCULATION
------------------------------------------------------------------------------

                         BASIS SET STATISTICS AND STARTUP INFO

 # of primitive gaussian shells          ...  114
 # of primitive gaussian functions       ...  186
 # of contracted shells                  ...   48
 # of contracted basis functions         ...   96
 Highest angular momentum                ...    2
 Maximum contraction depth               ...    6
 Integral package used                   ... LIBINT
 Integral threshhold            Thresh   ...  1.000e-10
 Primitive cut-off              TCut     ...  1.000e-11


------------------------------ INTEGRAL EVALUATION ----------------------------


 * One electron integrals 
 Pre-screening matrix                    ... done
 Shell pair data                         ... done (   0.001 sec)

-------------------------------------------------------------------------------
                                 ORCA SCF
-------------------------------------------------------------------------------

------------
SCF SETTINGS
------------
Hamiltonian:
 Density Functional     Method          .... DFT(GTOs)
 Exchange Functional    Exchange        .... WB97X-D3
 Correlation Functional Correlation     .... WB97X-D3
 Gradients option       PostSCFGGA      .... off
 Hybrid DFT is turned on
   Fraction HF Exchange ScalHFX         ....  0.195728
   Scaling of DF-GGA-X  ScalDFX         ....  0.000000
   Scaling of DF-GGA-C  ScalDFC         ....  1.000000
   Scaling of DF-LDA-C  ScalLDAC        ....  1.000000
   Perturbative correction              ....  0.000000
 Long-range corrected/Screened/Range-Separated Hybrid DFT is turned on
   Amount of maximum screened exact exchange              ....  0.804272
   Range separation parameter mu (erf(mu*r12)/r12)        ....  0.250000


General Settings:
 Integral files         IntName         .... Scan_40
 Hartree-Fock type      HFTyp           .... RHF
 Total Charge           Charge          ....    0
 Multiplicity           Mult            ....    1
 Number of Electrons    NEL             ....   42
 Basis Dimension        Dim             ....   96
 Nuclear Repulsion      ENuc            ....    177.5269807862 Eh

Convergence Acceleration:
 DIIS                   CNVDIIS         .... on
   Start iteration      DIISMaxIt       ....     0
   Startup error        DIISStart       ....  0.200000
   # of expansion vecs  DIISMaxEq       ....     5
   Bias factor          DIISBfac        ....   1.050
   Max. coefficient     DIISMaxC        ....  10.000
 Newton-Raphson         CNVNR           .... off
 SOSCF                  CNVSOSCF        .... off
 Level Shifting         CNVShift        .... off
 Zerner damping         CNVZerner       .... off
 Static damping         CNVDamp         .... off
 Fernandez-Rico         CNVRico         .... off

SCF Procedure:
 Maximum # iterations   MaxIter         ....   999
 SCF integral mode      SCFMode         .... Direct
   Integral package                     .... LIBINT
 Reset frequeny         DirectResetFreq ....    20
 Integral Threshold     Thresh          ....  1.000e-10 Eh
 Primitive CutOff       TCut            ....  1.000e-11 Eh

Convergence Tolerance:
 Convergence Check Mode ConvCheckMode   .... All-Criteria
 Convergence forced     ConvForced      .... 0
 Energy Change          TolE            ....  1.000e-06 Eh
 Max Density Change     TolMaxP         ....  1.000e-05
 RMS Density Change     TolRMSP         ....  1.000e-06
 DIIS Error             TolErr          ....  1.000e-06


Diagonalization of the overlap matrix:
Smallest eigenvalue                        ... 1.266e-03
Time for diagonalization                   ...    0.002 sec
Threshold for overlap eigenvalues          ... 1.000e-08
Number of eigenvalues below threshold      ... 0
Time for construction of square roots      ...    0.021 sec
Total time needed                          ...    0.023 sec

-------------------
DFT GRID GENERATION
-------------------

General Integration Accuracy     IntAcc      ...  4.340
Radial Grid Type                 RadialGrid  ... Gauss-Chebyshev
Angular Grid (max. acc.)         AngularGrid ... Lebedev-110
Angular grid pruning method      GridPruning ... 3 (G Style)
Weight generation scheme         WeightScheme... Becke
Basis function cutoff            BFCut       ...    1.0000e-10
Integration weight cutoff        WCut        ...    1.0000e-14
Grids for H and He will be reduced by one unit

# of grid points (after initial pruning)     ...  14700 (   0.0 sec)
# of grid points (after weights+screening)   ...  14176 (   0.2 sec)
nearest neighbour list constructed           ...    0.0 sec
Grid point re-assignment to atoms done       ...    0.0 sec
Grid point division into batches done        ...    0.0 sec
Reduced shell lists constructed in    0.2 sec

Total number of grid points                  ...    14176
Total number of batches                      ...      228
Average number of points per batch           ...       62
Average number of grid points per atom       ...     1181
Average number of shells per batch           ...    27.45 (57.20%)
Average number of basis functions per batch  ...    59.53 (62.01%)
Average number of large shells per batch     ...    19.89 (72.44%)
Average number of large basis fcns per batch ...    45.89 (77.08%)
Maximum spatial batch extension              ...  15.98, 21.59, 22.17 au
Average spatial batch extension              ...   4.29,  4.75,  5.56 au

Time for grid setup =    0.474 sec

------------------------------
INITIAL GUESS: MODEL POTENTIAL
------------------------------
Loading Hartree-Fock densities                     ... done
Calculating cut-offs                               ... done
Setting up the integral package                    ... done
Initializing the effective Hamiltonian             ... done
Starting the Coulomb interaction                   ... done (   0.1 sec)
Reading the grid                                   ... done
Mapping shells                                     ... done
Starting the XC term evaluation                    ... done (   0.2 sec)
  promolecular density results
     # of electrons  =     41.996208888
     EX              =    -32.042808693
     EC              =     -1.258194287
     EX+EC           =    -33.301002980
Transforming the Hamiltonian                       ... done (   0.0 sec)
Diagonalizing the Hamiltonian                      ... done (   0.0 sec)
Back transforming the eigenvectors                 ... done (   0.0 sec)
Now organizing SCF variables                       ... done
                      ------------------
                      INITIAL GUESS DONE (   1.0 sec)
                      ------------------
--------------
SCF ITERATIONS
--------------
ITER       Energy         Delta-E        Max-DP      RMS-DP      [F,P]   Gradient Norm
               ***  Starting incremental Fock matrix formation  ***
                             ****Resetting KDIIS****
                             ****Turning on KDIIS(Cayley)****
  0   -229.7072465626   0.000000000000 0.03671117  0.00239429  0.1130021   0.100219840
  1   -229.7935262426  -0.086279680001 0.05540407  0.00361344  0.0967888   0.085678555
  2   -229.8985714228  -0.105045180165 0.06833587  0.00509996  0.0931391   0.071919329
  3   -230.0171490836  -0.118577660828 0.09961116  0.00894983  0.1080943   0.050875361
  4   -230.2157702034  -0.198621119793 0.03134483  0.00134272  0.1317114   0.032916908
  5   -230.2589303067  -0.043160103299 0.10866048  0.00416727  0.1354099   0.032809884
  6   -230.3822925473  -0.123362240638 0.05466594  0.00250700  0.1263890   0.030105597
  7   -230.4198725538  -0.037580006442 0.07064472  0.00366925  0.1185680   0.029338736
  8   -230.5079169373  -0.088044383496 0.10749808  0.00495455  0.0846384   0.021820598
  9   -230.5808658183  -0.072948881026 0.04270998  0.00343982  0.0357117   0.012120436
 10   -230.6004496609  -0.019583842615 0.01910405  0.00156226  0.0151474   0.012404369
 11   -230.6077929474  -0.007343286475 0.01748894  0.00090344  0.0069442   0.003897321
 12   -230.6099926257  -0.002199678328 0.01763721  0.00088949  0.0037586   0.001800626
 13   -230.6109656058  -0.000972980092 0.00691491  0.00034500  0.0017158   0.001211077
 14   -230.6111178838  -0.000152277992 0.00250484  0.00008073  0.0010605   0.000632038
 15   -230.6111432808  -0.000025397012 0.00348157  0.00007993  0.0008645   0.000373027
 16   -230.6111670264  -0.000023745580 0.00473629  0.00010207  0.0007551   0.000286551
 17   -230.6111895186  -0.000022492183 0.00799392  0.00016479  0.0005626   0.000399147
 18   -230.6112186127  -0.000029094132 0.00382438  0.00007679  0.0003896   0.000170901
 19   -230.6112266531  -0.000008040419 0.00275841  0.00005673  0.0002066   0.000108035
               *** Restarting incremental Fock matrix formation ***
                             ****Resetting KDIIS****
 20   -230.6112305872  -0.000003934038 0.00003835  0.00000186  0.0001483   0.000093868
                          ***Energy convergence achieved***
 21   -230.6112307561  -0.000000168916 0.00011233  0.00000456  0.0001444   0.000082249
 22   -230.6112311030  -0.000000346919 0.00060615  0.00002222  0.0001346   0.000078245
 23   -230.6112325220  -0.000001418998 0.00115763  0.00003962  0.0000863   0.000050798
 24   -230.6112337790  -0.000001256971 0.00023043  0.00000628  0.0000376   0.000020691
                          ***Energy convergence achieved***
 25   -230.6112339117  -0.000000132732 0.00018453  0.00000493  0.0000417   0.000021823
 26   -230.6112340168  -0.000000105050 0.00018802  0.00000498  0.0000424   0.000018715
 27   -230.6112341138  -0.000000097051 0.00011595  0.00000304  0.0000439   0.000018151

            ***Energy convergence in two consecutive cycles with***
                    ***'reasonable' density convergence***
                       *** signaling convergence ***

                    *** KDIIS BlockDiag ( 0.002 sec) ***

               *****************************************************
               *                     SUCCESS                       *
               *           SCF CONVERGED AFTER  28 CYCLES          *
               *****************************************************

Setting up the final grid:

General Integration Accuracy     IntAcc      ...  4.670
Radial Grid Type                 RadialGrid  ... Gauss-Chebyshev
Angular Grid (max. acc.)         AngularGrid ... Lebedev-302
Angular grid pruning method      GridPruning ... 3 (G Style)
Weight generation scheme         WeightScheme... Becke
Basis function cutoff            BFCut       ...    1.0000e-10
Integration weight cutoff        WCut        ...    1.0000e-14
Grids for H and He will be reduced by one unit

# of grid points (after initial pruning)     ...  57636 (   0.0 sec)
# of grid points (after weights+screening)   ...  55206 (   0.1 sec)
nearest neighbour list constructed           ...    0.0 sec
Grid point re-assignment to atoms done       ...    0.0 sec
Grid point division into batches done        ...    0.2 sec
Reduced shell lists constructed in    1.0 sec

Total number of grid points                  ...    55206
Total number of batches                      ...      870
Average number of points per batch           ...       63
Average number of grid points per atom       ...     4600
Average number of shells per batch           ...    23.37 (48.68%)
Average number of basis functions per batch  ...    50.91 (53.03%)
Average number of large shells per batch     ...    16.68 (71.36%)
Average number of large basis fcns per batch ...    38.39 (75.41%)
Maximum spatial batch extension              ...  16.42, 16.86, 23.59 au
Average spatial batch extension              ...   2.89,  2.93,  3.19 au

Final grid set up in    1.1 sec
Final integration                            ... done (   1.3 sec)
Change in XC energy                          ...     0.000817134
Integrated number of electrons               ...    42.000016814
Previous integrated no of electrons          ...    42.000075483

----------------
TOTAL SCF ENERGY
----------------

Total Energy       :         -230.61041704 Eh           -6275.22847 eV

Components:
Nuclear Repulsion  :          177.52698079 Eh            4830.75474 eV
Electronic Energy  :         -408.13739783 Eh          -11105.98321 eV
One Electron Energy:         -660.28653868 Eh          -17967.31016 eV
Two Electron Energy:          252.14914084 Eh            6861.32695 eV

Virial components:
Potential Energy   :         -459.40396785 Eh          -12501.01750 eV
Kinetic Energy     :          228.79355081 Eh            6225.78903 eV
Virial Ratio       :            2.00794107


DFT components:
N(Alpha)           :       21.000008407059 electrons
N(Beta)            :       21.000008407059 electrons
N(Total)           :       42.000016814118 electrons
E(XC)              :      -22.974781295878 Eh       

---------------
SCF CONVERGENCE
---------------

  Last Energy change         ...   -6.4894e-08  Tolerance :   1.0000e-06
  Last MAX-Density change    ...    6.1038e-05  Tolerance :   1.0000e-05
  Last RMS-Density change    ...    1.5741e-06  Tolerance :   1.0000e-06
  Last DIIS Error            ...    4.6037e-05  Tolerance :   1.0000e-06

             **** THE GBW FILE WAS UPDATED (Scan_40.gbw) ****
             **** DENSITY FILE WAS UPDATED (Scan_40.scfp.tmp) ****
             **** ENERGY FILE WAS UPDATED (Scan_40.en.tmp) ****
----------------
ORBITAL ENERGIES
----------------

  NO   OCC          E(Eh)            E(eV) 
   0   2.0000     -10.362844      -281.9873 
   1   2.0000     -10.362536      -281.9789 
   2   2.0000     -10.362439      -281.9763 
   3   2.0000     -10.361708      -281.9564 
   4   2.0000     -10.361603      -281.9535 
   5   2.0000     -10.361279      -281.9447 
   6   2.0000      -1.025658       -27.9096 
   7   2.0000      -0.882174       -24.0052 
   8   2.0000      -0.882109       -24.0034 
   9   2.0000      -0.697376       -18.9766 
  10   2.0000      -0.697196       -18.9717 
  11   2.0000      -0.596516       -16.2320 
  12   2.0000      -0.524072       -14.2607 
  13   2.0000      -0.521271       -14.1845 
  14   2.0000      -0.379265       -10.3203 
  15   2.0000      -0.379063       -10.3148 
  16   2.0000      -0.357687        -9.7332 
  17   2.0000      -0.357368        -9.7245 
  18   2.0000      -0.282965        -7.6999 
  19   2.0000      -0.267844        -7.2884 
  20   2.0000      -0.267821        -7.2878 
  21   0.0000      -0.191974        -5.2239 
  22   0.0000      -0.191939        -5.2229 
  23   0.0000      -0.176983        -4.8159 
  24   0.0000      -0.076436        -2.0799 
  25   0.0000      -0.020327        -0.5531 
  26   0.0000      -0.019935        -0.5425 
  27   0.0000       0.067221         1.8292 
  28   0.0000       0.067287         1.8310 
  29   0.0000       0.275429         7.4948 
  30   0.0000       0.373231        10.1561 
  31   0.0000       0.373328        10.1588 
  32   0.0000       0.497040        13.5251 
  33   0.0000       0.497274        13.5315 
  34   0.0000       0.554815        15.0973 
  35   0.0000       0.555206        15.1079 
  36   0.0000       0.578047        15.7295 
  37   0.0000       0.585553        15.9337 
  38   0.0000       0.585598        15.9349 
  39   0.0000       0.585819        15.9409 
  40   0.0000       0.663595        18.0573 
  41   0.0000       0.663686        18.0598 
  42   0.0000       0.666599        18.1391 
  43   0.0000       0.666819        18.1451 
  44   0.0000       0.691440        18.8151 
  45   0.0000       0.751082        20.4380 
  46   0.0000       0.751154        20.4399 
  47   0.0000       0.760598        20.6969 
  48   0.0000       0.787328        21.4243 
  49   0.0000       0.787526        21.4297 
  50   0.0000       0.833745        22.6874 
  51   0.0000       0.833925        22.6922 
  52   0.0000       0.851031        23.1577 
  53   0.0000       0.854047        23.2398 
  54   0.0000       0.854897        23.2629 
  55   0.0000       0.857667        23.3383 
  56   0.0000       0.857794        23.3418 
  57   0.0000       0.861731        23.4489 
  58   0.0000       0.861862        23.4525 
  59   0.0000       0.877470        23.8772 
  60   0.0000       1.079666        29.3792 
  61   0.0000       1.079991        29.3881 
  62   0.0000       1.129873        30.7454 
  63   0.0000       1.251448        34.0536 
  64   0.0000       1.251615        34.0582 
  65   0.0000       1.313127        35.7320 
  66   0.0000       1.382823        37.6285 
  67   0.0000       1.448956        39.4281 
  68   0.0000       1.574591        42.8468 
  69   0.0000       1.576366        42.8951 
  70   0.0000       1.576819        42.9074 
  71   0.0000       1.606455        43.7139 
  72   0.0000       1.606820        43.7238 
  73   0.0000       1.796784        48.8930 
  74   0.0000       1.797547        48.9137 
  75   0.0000       1.887051        51.3493 
  76   0.0000       1.919499        52.2322 
  77   0.0000       2.205552        60.0161 
  78   0.0000       2.206111        60.0313 
  79   0.0000       2.275085        61.9082 
  80   0.0000       2.275328        61.9148 
  81   0.0000       2.275403        61.9169 
  82   0.0000       2.276334        61.9422 
  83   0.0000       2.425677        66.0060 
  84   0.0000       2.426213        66.0206 
  85   0.0000       2.492704        67.8299 
  86   0.0000       2.493582        67.8538 
  87   0.0000       2.495210        67.8981 
  88   0.0000       2.559048        69.6352 
  89   0.0000       2.818270        76.6890 
  90   0.0000       2.819664        76.7270 
  91   0.0000       2.837231        77.2050 
  92   0.0000       2.892499        78.7089 
  93   0.0000       2.893347        78.7320 
  94   0.0000       3.195062        86.9420 
  95   0.0000       3.486885        94.8830 

                    ********************************
                    * MULLIKEN POPULATION ANALYSIS *
                    ********************************

-----------------------
MULLIKEN ATOMIC CHARGES
-----------------------
   0 C :    0.000072
   1 H :   -0.000064
   2 C :    0.000438
   3 H :   -0.000199
   4 C :   -0.000475
   5 H :    0.000230
   6 C :    0.000077
   7 H :   -0.000063
   8 C :    0.000445
   9 H :   -0.000198
  10 C :   -0.000492
  11 H :    0.000229
Sum of atomic charges:   -0.0000000

--------------------------------
MULLIKEN REDUCED ORBITAL CHARGES
--------------------------------
  0 C s       :     3.126507  s :     3.126507
      pz      :     0.988175  p :     2.838562
      px      :     0.968543
      py      :     0.881843
      dz2     :     0.002414  d :     0.034859
      dxz     :     0.003383
      dyz     :     0.008229
      dx2y2   :     0.008320
      dxy     :     0.012513
  1 H s       :     1.000064  s :     1.000064
  2 C s       :     3.126760  s :     3.126760
      pz      :     0.988659  p :     2.837947
      px      :     0.908805
      py      :     0.940483
      dz2     :     0.002379  d :     0.034855
      dxz     :     0.006712
      dyz     :     0.004944
      dx2y2   :     0.012068
      dxy     :     0.008751
  3 H s       :     1.000199  s :     1.000199
  4 C s       :     3.127498  s :     3.127498
      pz      :     0.988262  p :     2.838038
      px      :     0.898637
      py      :     0.951139
      dz2     :     0.002412  d :     0.034938
      dxz     :     0.007356
      dyz     :     0.004278
      dx2y2   :     0.010918
      dxy     :     0.009974
  5 H s       :     0.999770  s :     0.999770
  6 C s       :     3.126506  s :     3.126506
      pz      :     0.988175  p :     2.838558
      px      :     0.968538
      py      :     0.881845
      dz2     :     0.002414  d :     0.034859
      dxz     :     0.003383
      dyz     :     0.008229
      dx2y2   :     0.008320
      dxy     :     0.012513
  7 H s       :     1.000063  s :     1.000063
  8 C s       :     3.126758  s :     3.126758
      pz      :     0.988656  p :     2.837942
      px      :     0.908803
      py      :     0.940483
      dz2     :     0.002379  d :     0.034855
      dxz     :     0.006712
      dyz     :     0.004944
      dx2y2   :     0.012068
      dxy     :     0.008751
  9 H s       :     1.000198  s :     1.000198
 10 C s       :     3.127504  s :     3.127504
      pz      :     0.988269  p :     2.838050
      px      :     0.898639
      py      :     0.951143
      dz2     :     0.002412  d :     0.034938
      dxz     :     0.007356
      dyz     :     0.004278
      dx2y2   :     0.010918
      dxy     :     0.009974
 11 H s       :     0.999771  s :     0.999771


                     *******************************
                     * LOEWDIN POPULATION ANALYSIS *
                     *******************************

----------------------
LOEWDIN ATOMIC CHARGES
----------------------
   0 C :    0.000058
   1 H :   -0.000145
   2 C :    0.000207
   3 H :   -0.000280
   4 C :    0.000011
   5 H :    0.000149
   6 C :    0.000064
   7 H :   -0.000143
   8 C :    0.000211
   9 H :   -0.000279
  10 C :   -0.000002
  11 H :    0.000148

-------------------------------
LOEWDIN REDUCED ORBITAL CHARGES
-------------------------------
  0 C s       :     2.938602  s :     2.938602
      pz      :     0.977245  p :     2.981422
      px      :     0.971785
      py      :     1.032392
      dz2     :     0.005882  d :     0.079917
      dxz     :     0.004784
      dyz     :     0.017821
      dx2y2   :     0.014826
      dxy     :     0.036604
  1 H s       :     1.000145  s :     1.000145
  2 C s       :     2.938742  s :     2.938742
      pz      :     0.977642  p :     2.981120
      px      :     1.013087
      py      :     0.990391
      dz2     :     0.005856  d :     0.079930
      dxz     :     0.013714
      dyz     :     0.008935
      dx2y2   :     0.034174
      dxy     :     0.017252
  3 H s       :     1.000280  s :     1.000280
  4 C s       :     2.938983  s :     2.938983
      pz      :     0.977240  p :     2.981057
      px      :     1.022115
      py      :     0.981702
      dz2     :     0.005876  d :     0.079950
      dxz     :     0.015445
      dyz     :     0.007174
      dx2y2   :     0.028227
      dxy     :     0.023228
  5 H s       :     0.999851  s :     0.999851
  6 C s       :     2.938601  s :     2.938601
      pz      :     0.977244  p :     2.981418
      px      :     0.971779
      py      :     1.032395
      dz2     :     0.005882  d :     0.079917
      dxz     :     0.004784
      dyz     :     0.017821
      dx2y2   :     0.014826
      dxy     :     0.036604
  7 H s       :     1.000143  s :     1.000143
  8 C s       :     2.938741  s :     2.938741
      pz      :     0.977640  p :     2.981117
      px      :     1.013086
      py      :     0.990392
      dz2     :     0.005856  d :     0.079930
      dxz     :     0.013714
      dyz     :     0.008935
      dx2y2   :     0.034174
      dxy     :     0.017252
  9 H s       :     1.000279  s :     1.000279
 10 C s       :     2.938986  s :     2.938986
      pz      :     0.977246  p :     2.981066
      px      :     1.022114
      py      :     0.981707
      dz2     :     0.005876  d :     0.079949
      dxz     :     0.015445
      dyz     :     0.007174
      dx2y2   :     0.028226
      dxy     :     0.023228
 11 H s       :     0.999852  s :     0.999852


                      *****************************
                      * MAYER POPULATION ANALYSIS *
                      *****************************

  NA   - Mulliken gross atomic population
  ZA   - Total nuclear charge
  QA   - Mulliken gross atomic charge
  VA   - Mayer's total valence
  BVA  - Mayer's bonded valence
  FA   - Mayer's free valence

  ATOM       NA         ZA         QA         VA         BVA        FA
  0 C      5.9999     6.0000     0.0001     4.0110     4.0110    -0.0000
  1 H      1.0001     1.0000    -0.0001     1.0000     1.0000    -0.0000
  2 C      5.9996     6.0000     0.0004     4.0107     4.0107    -0.0000
  3 H      1.0002     1.0000    -0.0002     1.0000     1.0000     0.0000
  4 C      6.0005     6.0000    -0.0005     4.0108     4.0108    -0.0000
  5 H      0.9998     1.0000     0.0002     1.0000     1.0000     0.0000
  6 C      5.9999     6.0000     0.0001     4.0110     4.0110    -0.0000
  7 H      1.0001     1.0000    -0.0001     1.0000     1.0000     0.0000
  8 C      5.9996     6.0000     0.0004     4.0107     4.0107    -0.0000
  9 H      1.0002     1.0000    -0.0002     1.0000     1.0000    -0.0000
 10 C      6.0005     6.0000    -0.0005     4.0108     4.0108    -0.0000
 11 H      0.9998     1.0000     0.0002     1.0000     1.0000    -0.0000

  Mayer bond orders larger than 0.1
B(  0-C ,  2-C ) :   1.8837 B(  0-C ,  6-C ) :   0.1513 B(  0-C , 10-C ) :   1.8840 
B(  1-H ,  3-H ) :   0.4373 B(  1-H ,  7-H ) :   0.1108 B(  1-H , 11-H ) :   0.4484 
B(  2-C ,  4-C ) :   1.8838 B(  2-C ,  8-C ) :   0.1512 B(  3-H ,  5-H ) :   0.4482 
B(  3-H ,  9-H ) :   0.1110 B(  4-C ,  6-C ) :   1.8840 B(  4-C , 10-C ) :   0.1511 
B(  5-H ,  7-H ) :   0.4387 B(  5-H , 11-H ) :   0.1097 B(  6-C ,  8-C ) :   1.8838 
B(  7-H ,  9-H ) :   0.4470 B(  8-C , 10-C ) :   1.8838 B(  9-H , 11-H ) :   0.4385 


-------
TIMINGS
-------

Total SCF time: 0 days 0 hours 2 min 16 sec 

Total time                  ....     136.460 sec
Sum of individual times     ....     135.435 sec  ( 99.2%)

Fock matrix formation       ....     133.094 sec  ( 97.5%)
  XC integration            ....      13.066 sec  (  9.8% of F)
    Basis function eval.    ....       5.148 sec  ( 39.4% of XC)
    Density eval.           ....       1.004 sec  (  7.7% of XC)
    XC-Functional eval.     ....       2.730 sec  ( 20.9% of XC)
    XC-Potential eval.      ....       1.340 sec  ( 10.3% of XC)
Diagonalization             ....       0.144 sec  (  0.1%)
Density matrix formation    ....       0.004 sec  (  0.0%)
Population analysis         ....       0.012 sec  (  0.0%)
Initial guess               ....       0.579 sec  (  0.4%)
Orbital Transformation      ....       0.000 sec  (  0.0%)
Orbital Orthonormalization  ....       0.000 sec  (  0.0%)
DIIS solution               ....       0.000 sec  (  0.0%)
Grid generation             ....       1.604 sec  (  1.2%)


-------------------------------------------------------------------------------
                          DFT DISPERSION CORRECTION                            
                                                                               
                              DFTD3 V3.1  Rev 1                                
                              USING zero damping                               
-------------------------------------------------------------------------------
The omegaB97X-D3 functional is recognized. Fit by Chai et al.
Active option DFTDOPT                   ...         3   

molecular C6(AA) [au] = 2353.787208 


            DFT-D V3
 parameters
 s6 scaling factor         :     1.0000 
 rs6 scaling factor        :     1.2810 
 s8 scaling factor         :     1.0000 
 rs8 scaling factor        :     1.0940 
 Damping factor alpha6     :    14.0000 
 Damping factor alpha8     :    16.0000 
 ad hoc parameters k1-k3   :    16.0000     1.3333    -4.0000 

 Edisp/kcal,au: -0.438803135417  -0.000699277233 
 E6   /kcal   :  -0.313507092 
 E8   /kcal   :  -0.125296044 
 % E8         :  28.554044733 

-------------------------   ----------------
Dispersion correction           -0.000699277
-------------------------   ----------------


-------------------------   --------------------
FINAL SINGLE POINT ENERGY      -230.611116321948
-------------------------   --------------------


                            ***************************************
                            *     ORCA property calculations      *
                            ***************************************

                                    ---------------------
                                    Active property flags
                                    ---------------------
   (+) Dipole Moment


------------------------------------------------------------------------------
                       ORCA ELECTRIC PROPERTIES CALCULATION
------------------------------------------------------------------------------

Dipole Moment Calculation                       ... on
Quadrupole Moment Calculation                   ... off
Polarizability Calculation                      ... off
GBWName                                         ... Scan_40.gbw
Electron density file                           ... Scan_40.scfp.tmp

-------------
DIPOLE MOMENT
-------------
                                X             Y             Z
Electronic contribution:     -0.00021       0.00022      -0.00000
Nuclear contribution   :      0.00014      -0.00019       0.00000
                        -----------------------------------------
Total Dipole Moment    :     -0.00007       0.00002       0.00000
                        -----------------------------------------
Magnitude (a.u.)       :      0.00007
Magnitude (Debye)      :      0.00018


Timings for individual modules:

Sum of individual times         ...      137.253 sec (=   2.288 min)
GTO integral calculation        ...        0.748 sec (=   0.012 min)   0.5 %
SCF iterations                  ...      136.505 sec (=   2.275 min)  99.5 %
                             ****ORCA TERMINATED NORMALLY****
TOTAL RUN TIME: 0 days 0 hours 2 minutes 18 seconds 231 msec
