
                                 *****************
                                 * O   R   C   A *
                                 *****************

           --- An Ab Initio, DFT and Semiempirical electronic structure package ---

                  #######################################################
                  #                        -***-                        #
                  #  Department of molecular theory and spectroscopy    #
                  #              Directorship: Frank Neese              #
                  # Max Planck Institute for Chemical Energy Conversion #
                  #                  D-45470 Muelheim/Ruhr              #
                  #                       Germany                       #
                  #                                                     #
                  #                  All rights reserved                #
                  #                        -***-                        #
                  #######################################################


                         Program Version 4.0.0.2 - RELEASE -


 With contributions from (in alphabetic order):
   Daniel Aravena         : Magnetic Properties
   Michael Atanasov       : Ab Initio Ligand Field Theory
   Ute Becker             : Parallelization
   Martin Brehm           : Molecular dynamics
   Dmytro Bykov           : SCF Hessian
   Vijay G. Chilkuri      : MRCI spin determinant printing
   Dipayan Datta          : RHF DLPNO-CCSD density
   Achintya Kumar Dutta   : EOM-CC, STEOM-CC
   Dmitry Ganyushin       : Spin-Orbit,Spin-Spin,Magnetic field MRCI
   Yang Guo               : DLPNO-NEVPT2, CIM, IAO-localization
   Andreas Hansen         : Spin unrestricted coupled pair/coupled cluster methods
   Lee Huntington         : MR-EOM, pCC
   Robert Izsak           : Overlap fitted RIJCOSX, COSX-SCS-MP3, EOM
   Christian Kollmar      : KDIIS, OOCD, Brueckner-CCSD(T), CCSD density
   Simone Kossmann        : Meta GGA functionals, TD-DFT gradient, OOMP2, MP2 Hessian
   Martin Krupicka        : AUTO-CI
   Dagmar Lenk            : GEPOL surface
   Dimitrios Liakos       : Extrapolation schemes; parallel MDCI
   Dimitrios Manganas     : ROCIS; embedding schemes
   Dimitrios Pantazis     : SARC Basis sets
   Taras Petrenko         : DFT Hessian,TD-DFT gradient, ASA, ECA, R-Raman, ABS, FL, XAS/XES, NRVS
   Peter Pinski           : DLPNO-MP2
   Christoph Reimann      : Effective Core Potentials
   Marius Retegan         : Local ZFS, SOC
   Christoph Riplinger    : Optimizer, TS searches, QM/MM, DLPNO-CCSD(T), (RO)-DLPNO pert. Triples
   Tobias Risthaus        : Range-separated hybrids, TD-DFT gradient, RPA, STAB
   Michael Roemelt        : Restricted open shell CIS
   Masaaki Saitow         : Open-shell DLPNO
   Barbara Sandhoefer     : DKH picture change effects
   Kantharuban Sivalingam : CASSCF convergence, NEVPT2, FIC-MRCI
   Georgi Stoychev        : AutoAux
   Boris Wezisla          : Elementary symmetry handling
   Frank Wennmohs         : Technical directorship


 We gratefully acknowledge several colleagues who have allowed us to
 interface, adapt or use parts of their codes:
   Stefan Grimme, W. Hujo, H. Kruse,             : VdW corrections, initial TS optimization,
                  C. Bannwarth                     DFT functionals, gCP, sTDA/sTD-DF
   Ed Valeev                                     : LibInt (2-el integral package), F12 methods
   Garnet Chan, S. Sharma, J. Yang, R. Olivares  : DMRG
   Ulf Ekstrom                                   : XCFun DFT Library
   Mihaly Kallay                                 : mrcc  (arbitrary order and MRCC methods)
   Jiri Pittner, Ondrej Demel                    : Mk-CCSD
   Frank Weinhold                                : gennbo (NPA and NBO analysis)
   Christopher J. Cramer and Donald G. Truhlar   : smd solvation model


 Your calculation uses the libint2 library for the computation of 2-el integrals
 For citations please refer to: http://libint.valeyev.net

 This ORCA versions uses:
   CBLAS   interface :  Fast vector & matrix operations
   LAPACKE interface :  Fast linear algebra routines
   SCALAPACK package :  Parallel linear algebra routines


Your calculation utilizes the atom-pairwise dispersion correction
with the zero-damping scheme (D30)
Cite in your paper:
S.Grimme, J.Antony, S.Ehrlich and H.Krieg, J.Chem.Phys., 132, (2010), 154104 
   

XCFun DFT library Copyright 2009-2010 Ulf Ekstrom and contributors.
See http://admol.org/xcfun for more information. This is free soft-
ware; see the source code for copying conditions. There is ABSOLUTELY
NO WARRANTY; not even for MERCHANTABILITY or FITNESS FOR A PARTICULAR
PURPOSE. For details see the documentation. Scientific users of this 
library should cite U. Ekstrom, L. Visscher, R. Bast, A. J. Thorvald-
sen and K. Ruud; J.Chem.Theor.Comp. 2010, DOI: 10.1021/ct100117s
XCFun Version 0.99 
Your calculation utilizes the basis: 6-31G(d)
   H-He, Li-Ne : W. J. Hehre, R. Ditchfield and J.A. Pople, J. Chem. Phys. 56, 2257 (1972).
                 Note: He and Ne are unpublished basis sets taken from the Gaussian program.
                 Note: Li and B from J. D. Dill and J. A. Pople, J. Chem. Phys. 62, 2921 (1975).
   Na - Ar     : M. M. Francl, W. J. Pietro, W. J. Hehre, J. S. Binkley, M. S. Gordon, 
                 D. J. DeFrees and J. A. Pople, J. Chem. Phys. 77, 3654 (1982).
   K - Zn      : V. A. Rassolov, J. A. Pople, M. A. Ratner, and T. L. Windus, J. Chem. Phys. 109, 1223 (1998).

================================================================================
                                        WARNINGS
                       Please study these warnings very carefully!
================================================================================

Warning: TCutStore was < 0. Adjusted to Thresh (uncritical)

INFO   : the flag for use of LIBINT has been found!

================================================================================
                                       INPUT FILE
================================================================================
NAME = initial42.inp
|  1> ! WB97X-D3 6-31G(d) VerySlowConv
|  2> ! KDIIS NOSOSCF
|  3> %base "Scan_42"
|  4> 
|  5> %scf
|  6> maxiter 999
|  7> end
|  8> 
|  9> * xyz 0 1
| 10> C          1.459508771324   -2.844741613143    0.000000234752
| 11> H          6.138878489363   -3.203099013495    0.000000218770
| 12> C          0.882808228520   -1.642365667217   -0.000099387626
| 13> H          3.532852626843    2.230899908169    0.000027469017
| 14> C         -0.446828376832   -1.540613514315   -0.000098563466
| 15> H         -2.476215771894    2.690994833989    0.000026554942
| 16> C         -1.199766693787   -2.641235775251   -0.000000259917
| 17> H         -5.879147648772   -2.283026234599   -0.000000139958
| 18> C         -0.623071015707   -3.843613039415    0.000099362664
| 19> H         -3.272964343492   -7.716981940749   -0.000027330040
| 20> C          0.706568457967   -3.945367275117    0.000098537346
| 21> H          2.735987276468   -8.176960668857   -0.000026696483
| 22> **                         ****END OF INPUT****
================================================================================

                       ****************************
                       * Single Point Calculation *
                       ****************************

---------------------------------
CARTESIAN COORDINATES (ANGSTROEM)
---------------------------------
  C      1.459509   -2.844742    0.000000
  H      6.138878   -3.203099    0.000000
  C      0.882808   -1.642366   -0.000099
  H      3.532853    2.230900    0.000027
  C     -0.446828   -1.540614   -0.000099
  H     -2.476216    2.690995    0.000027
  C     -1.199767   -2.641236   -0.000000
  H     -5.879148   -2.283026   -0.000000
  C     -0.623071   -3.843613    0.000099
  H     -3.272964   -7.716982   -0.000027
  C      0.706568   -3.945367    0.000099
  H      2.735987   -8.176961   -0.000027

----------------------------
CARTESIAN COORDINATES (A.U.)
----------------------------
  NO LB      ZA    FRAG     MASS         X           Y           Z
   0 C     6.0000    0    12.011    2.758072   -5.375783    0.000000
   1 H     1.0000    0     1.008   11.600799   -6.052980    0.000000
   2 C     6.0000    0    12.011    1.668266   -3.103621   -0.000188
   3 H     1.0000    0     1.008    6.676124    4.215790    0.000052
   4 C     6.0000    0    12.011   -0.844383   -2.911338   -0.000186
   5 H     1.0000    0     1.008   -4.679370    5.085243    0.000050
   6 C     6.0000    0    12.011   -2.267230   -4.991212   -0.000000
   7 H     1.0000    0     1.008  -11.109979   -4.314294   -0.000000
   8 C     6.0000    0    12.011   -1.177434   -7.263376    0.000188
   9 H     1.0000    0     1.008   -6.185006  -14.582982   -0.000052
  10 C     6.0000    0    12.011    1.335221   -7.455664    0.000186
  11 H     1.0000    0     1.008    5.170267  -15.452216   -0.000050

--------------------------------
INTERNAL COORDINATES (ANGSTROEM)
--------------------------------
 C      0   0   0     0.000000000000     0.00000000     0.00000000
 H      1   0   0     4.693071593795     0.00000000     0.00000000
 C      1   2   0     1.333525943256   120.00326676     0.00000000
 H      3   1   2     4.693071653688   119.99654218     0.00000000
 C      3   1   2     1.333524279086   120.00007002   180.00004035
 H      5   3   1     4.693071747622   119.99746783   179.99329370
 C      5   3   1     1.333523708102   120.00002019     0.00000000
 H      7   5   3     4.693071509885   119.99863381   180.00003906
 C      7   5   3     1.333525028044   120.00012275     0.00000000
 H      9   7   5     4.693071628530   119.99898962   180.00666298
 C      9   7   5     1.333527297972   119.99993689     0.00000000
 H     11   9   7     4.693071851838   119.99797251   180.00670794

---------------------------
INTERNAL COORDINATES (A.U.)
---------------------------
 C      0   0   0     0.000000000000     0.00000000     0.00000000
 H      1   0   0     8.868620039158     0.00000000     0.00000000
 C      1   2   0     2.519998825233   120.00326676     0.00000000
 H      3   1   2     8.868620152338   119.99654218     0.00000000
 C      3   1   2     2.519995680408   120.00007002   180.00004035
 H      5   3   1     8.868620329849   119.99746783   179.99329370
 C      5   3   1     2.519994601404   120.00002019     0.00000000
 H      7   5   3     8.868619880590   119.99863381   180.00003906
 C      7   5   3     2.519997095733   120.00012275     0.00000000
 H      9   7   5     8.868620104797   119.99898962   180.00666298
 C      9   7   5     2.520001385275   119.99993689     0.00000000
 H     11   9   7     8.868620526788   119.99797251   180.00670794

---------------------
BASIS SET INFORMATION
---------------------
There are 2 groups of distinct atoms

 Group   1 Type C   : 10s4p1d contracted to 3s2p1d pattern {631/31/1}
 Group   2 Type H   : 4s contracted to 2s pattern {31}

Atom   0C    basis set group =>   1
Atom   1H    basis set group =>   2
Atom   2C    basis set group =>   1
Atom   3H    basis set group =>   2
Atom   4C    basis set group =>   1
Atom   5H    basis set group =>   2
Atom   6C    basis set group =>   1
Atom   7H    basis set group =>   2
Atom   8C    basis set group =>   1
Atom   9H    basis set group =>   2
Atom  10C    basis set group =>   1
Atom  11H    basis set group =>   2
------------------------------------------------------------------------------
                           ORCA GTO INTEGRAL CALCULATION
------------------------------------------------------------------------------

                         BASIS SET STATISTICS AND STARTUP INFO

 # of primitive gaussian shells          ...  114
 # of primitive gaussian functions       ...  186
 # of contracted shells                  ...   48
 # of contracted basis functions         ...   96
 Highest angular momentum                ...    2
 Maximum contraction depth               ...    6
 Integral package used                   ... LIBINT
 Integral threshhold            Thresh   ...  1.000e-10
 Primitive cut-off              TCut     ...  1.000e-11


------------------------------ INTEGRAL EVALUATION ----------------------------


 * One electron integrals 
 Pre-screening matrix                    ... done
 Shell pair data                         ... done (   0.001 sec)

-------------------------------------------------------------------------------
                                 ORCA SCF
-------------------------------------------------------------------------------

------------
SCF SETTINGS
------------
Hamiltonian:
 Density Functional     Method          .... DFT(GTOs)
 Exchange Functional    Exchange        .... WB97X-D3
 Correlation Functional Correlation     .... WB97X-D3
 Gradients option       PostSCFGGA      .... off
 Hybrid DFT is turned on
   Fraction HF Exchange ScalHFX         ....  0.195728
   Scaling of DF-GGA-X  ScalDFX         ....  0.000000
   Scaling of DF-GGA-C  ScalDFC         ....  1.000000
   Scaling of DF-LDA-C  ScalLDAC        ....  1.000000
   Perturbative correction              ....  0.000000
 Long-range corrected/Screened/Range-Separated Hybrid DFT is turned on
   Amount of maximum screened exact exchange              ....  0.804272
   Range separation parameter mu (erf(mu*r12)/r12)        ....  0.250000


General Settings:
 Integral files         IntName         .... Scan_42
 Hartree-Fock type      HFTyp           .... RHF
 Total Charge           Charge          ....    0
 Multiplicity           Mult            ....    1
 Number of Electrons    NEL             ....   42
 Basis Dimension        Dim             ....   96
 Nuclear Repulsion      ENuc            ....    176.7989635727 Eh

Convergence Acceleration:
 DIIS                   CNVDIIS         .... on
   Start iteration      DIISMaxIt       ....     0
   Startup error        DIISStart       ....  0.200000
   # of expansion vecs  DIISMaxEq       ....     5
   Bias factor          DIISBfac        ....   1.050
   Max. coefficient     DIISMaxC        ....  10.000
 Newton-Raphson         CNVNR           .... off
 SOSCF                  CNVSOSCF        .... off
 Level Shifting         CNVShift        .... off
 Zerner damping         CNVZerner       .... off
 Static damping         CNVDamp         .... off
 Fernandez-Rico         CNVRico         .... off

SCF Procedure:
 Maximum # iterations   MaxIter         ....   999
 SCF integral mode      SCFMode         .... Direct
   Integral package                     .... LIBINT
 Reset frequeny         DirectResetFreq ....    20
 Integral Threshold     Thresh          ....  1.000e-10 Eh
 Primitive CutOff       TCut            ....  1.000e-11 Eh

Convergence Tolerance:
 Convergence Check Mode ConvCheckMode   .... All-Criteria
 Convergence forced     ConvForced      .... 0
 Energy Change          TolE            ....  1.000e-06 Eh
 Max Density Change     TolMaxP         ....  1.000e-05
 RMS Density Change     TolRMSP         ....  1.000e-06
 DIIS Error             TolErr          ....  1.000e-06


Diagonalization of the overlap matrix:
Smallest eigenvalue                        ... 1.267e-03
Time for diagonalization                   ...    0.002 sec
Threshold for overlap eigenvalues          ... 1.000e-08
Number of eigenvalues below threshold      ... 0
Time for construction of square roots      ...    0.006 sec
Total time needed                          ...    0.008 sec

-------------------
DFT GRID GENERATION
-------------------

General Integration Accuracy     IntAcc      ...  4.340
Radial Grid Type                 RadialGrid  ... Gauss-Chebyshev
Angular Grid (max. acc.)         AngularGrid ... Lebedev-110
Angular grid pruning method      GridPruning ... 3 (G Style)
Weight generation scheme         WeightScheme... Becke
Basis function cutoff            BFCut       ...    1.0000e-10
Integration weight cutoff        WCut        ...    1.0000e-14
Grids for H and He will be reduced by one unit

# of grid points (after initial pruning)     ...  14700 (   0.0 sec)
# of grid points (after weights+screening)   ...  14184 (   0.0 sec)
nearest neighbour list constructed           ...    0.0 sec
Grid point re-assignment to atoms done       ...    0.0 sec
Grid point division into batches done        ...    0.0 sec
Reduced shell lists constructed in    0.2 sec

Total number of grid points                  ...    14184
Total number of batches                      ...      228
Average number of points per batch           ...       62
Average number of grid points per atom       ...     1182
Average number of shells per batch           ...    26.91 (56.06%)
Average number of basis functions per batch  ...    58.67 (61.12%)
Average number of large shells per batch     ...    19.45 (72.28%)
Average number of large basis fcns per batch ...    44.98 (76.66%)
Maximum spatial batch extension              ...  16.13, 21.59, 38.86 au
Average spatial batch extension              ...   4.36,  4.91,  5.65 au

Time for grid setup =    0.230 sec

------------------------------
INITIAL GUESS: MODEL POTENTIAL
------------------------------
Loading Hartree-Fock densities                     ... done
Calculating cut-offs                               ... done
Setting up the integral package                    ... done
Initializing the effective Hamiltonian             ... done
Starting the Coulomb interaction                   ... done (   0.1 sec)
Reading the grid                                   ... done
Mapping shells                                     ... done
Starting the XC term evaluation                    ... done (   0.2 sec)
  promolecular density results
     # of electrons  =     41.995954268
     EX              =    -32.042646910
     EC              =     -1.258170140
     EX+EC           =    -33.300817050
Transforming the Hamiltonian                       ... done (   0.0 sec)
Diagonalizing the Hamiltonian                      ... done (   0.0 sec)
Back transforming the eigenvectors                 ... done (   0.0 sec)
Now organizing SCF variables                       ... done
                      ------------------
                      INITIAL GUESS DONE (   0.5 sec)
                      ------------------
--------------
SCF ITERATIONS
--------------
ITER       Energy         Delta-E        Max-DP      RMS-DP      [F,P]   Gradient Norm
               ***  Starting incremental Fock matrix formation  ***
                             ****Resetting KDIIS****
                             ****Turning on KDIIS(Cayley)****
  0   -229.6551541592   0.000000000000 0.03651829  0.00235489  0.1134094   0.098830012
  1   -229.7338628750  -0.078708715844 0.05908561  0.00379999  0.0973303   0.083962978
  2   -229.8285796526  -0.094716777613 0.07593494  0.00589308  0.0764434   0.067103575
  3   -229.9770308953  -0.148451242622 0.07609265  0.00493644  0.1261783   0.044169877
  4   -230.0040859194  -0.027055024141 0.01232762  0.00105190  0.0794250   0.029107379
  5   -230.0156751252  -0.011589205802 0.08033005  0.00836302  0.0987900   0.032414195
  6   -230.2841106748  -0.268435549606 0.08265823  0.00358342  0.1401049   0.042150919
  7   -230.3966519887  -0.112541313905 0.03218244  0.00152512  0.1253580   0.034266529
  8   -230.3911513202   0.005500668538 0.29383219  0.00785399  0.1187134   0.034865216
  9   -230.5287126204  -0.137561300263 0.07237717  0.00467547  0.0428480   0.020276551
 10   -230.5802861365  -0.051573516035 0.03632298  0.00318657  0.0177940   0.007818746
 11   -230.5937439976  -0.013457861082 0.03026538  0.00124472  0.0119762   0.006357818
 12   -230.5978281526  -0.004084155039 0.03960550  0.00130906  0.0063559   0.004405151
 13   -230.6009558630  -0.003127710434 0.02645450  0.00081001  0.0057506   0.003912658
 14   -230.6026879578  -0.001732094756 0.04537019  0.00100154  0.0045822   0.002819644
 15   -230.6044937614  -0.001805803627 0.03774991  0.00076842  0.0034365   0.002065774
 16   -230.6054408233  -0.000947061915 0.02873186  0.00057588  0.0024289   0.001873503
 17   -230.6059982628  -0.000557439453 0.03379165  0.00069189  0.0013152   0.000939337
 18   -230.6063655524  -0.000367289579 0.00644658  0.00015482  0.0009279   0.000765435
 19   -230.6064035283  -0.000037975961 0.01071064  0.00023153  0.0007399   0.000738128
               *** Restarting incremental Fock matrix formation ***
                             ****Resetting KDIIS****
 20   -230.6064515457  -0.000048017385 0.00010350  0.00000579  0.0005586   0.000351929
 21   -230.6064533631  -0.000001817419 0.00023481  0.00001071  0.0005443   0.000288898
 22   -230.6064560135  -0.000002650339 0.00113986  0.00004490  0.0005064   0.000255931
 23   -230.6064649044  -0.000008890893 0.00301740  0.00010726  0.0003521   0.000200047
 24   -230.6064783921  -0.000013487765 0.00043713  0.00001138  0.0002319   0.000092300
 25   -230.6064796531  -0.000001260940 0.00024474  0.00000730  0.0002328   0.000082753
                          ***Energy convergence achieved***
 26   -230.6064803582  -0.000000705162 0.00012422  0.00000316  0.0002383   0.000088329
 27   -230.6064807099  -0.000000351633 0.00048361  0.00001268  0.0002399   0.000088236
 28   -230.6064793256   0.000001384230 0.00189286  0.00004910  0.0002343   0.000087685
 29   -230.6064741410   0.000005184620 0.00118144  0.00003282  0.0001902   0.000079030
 30   -230.6064710978   0.000003043212 0.00115347  0.00003425  0.0001824   0.000076745
 31   -230.6064689350   0.000002162791 0.00168426  0.00004862  0.0001660   0.000098834
 32   -230.6064657071   0.000003227959 0.00248035  0.00006743  0.0001428   0.000090187
 33   -230.6064641161   0.000001590932 0.00240934  0.00007572  0.0001092   0.000094665
 34   -230.6064628259   0.000001290226 0.00152193  0.00004007  0.0001032   0.000054676
                          ***Energy convergence achieved***
 35   -230.6064633836  -0.000000557754 0.00081990  0.00002103  0.0000827   0.000034067
 36   -230.6064638565  -0.000000472807 0.00077181  0.00001979  0.0000660   0.000029627
 37   -230.6064643217  -0.000000465267 0.00034165  0.00000786  0.0000492   0.000040462
 38   -230.6064644976  -0.000000175850 0.00067446  0.00001768  0.0000409   0.000034047
 39   -230.6064648970  -0.000000399387 0.00010031  0.00000238  0.0000478   0.000025969
               *** Restarting incremental Fock matrix formation ***
                             ****Resetting KDIIS****
                           ***RMSP convergence achieved***

            ***Energy convergence in two consecutive cycles with***
                    ***'reasonable' density convergence***
                       *** signaling convergence ***

                    *** KDIIS BlockDiag ( 0.001 sec) ***

               *****************************************************
               *                     SUCCESS                       *
               *           SCF CONVERGED AFTER  40 CYCLES          *
               *****************************************************

Setting up the final grid:

General Integration Accuracy     IntAcc      ...  4.670
Radial Grid Type                 RadialGrid  ... Gauss-Chebyshev
Angular Grid (max. acc.)         AngularGrid ... Lebedev-302
Angular grid pruning method      GridPruning ... 3 (G Style)
Weight generation scheme         WeightScheme... Becke
Basis function cutoff            BFCut       ...    1.0000e-10
Integration weight cutoff        WCut        ...    1.0000e-14
Grids for H and He will be reduced by one unit

# of grid points (after initial pruning)     ...  57636 (   0.0 sec)
# of grid points (after weights+screening)   ...  55254 (   0.1 sec)
nearest neighbour list constructed           ...    0.0 sec
Grid point re-assignment to atoms done       ...    0.0 sec
Grid point division into batches done        ...    0.2 sec
Reduced shell lists constructed in    0.7 sec

Total number of grid points                  ...    55254
Total number of batches                      ...      868
Average number of points per batch           ...       63
Average number of grid points per atom       ...     4604
Average number of shells per batch           ...    22.90 (47.71%)
Average number of basis functions per batch  ...    50.14 (52.23%)
Average number of large shells per batch     ...    16.39 (71.58%)
Average number of large basis fcns per batch ...    37.83 (75.44%)
Maximum spatial batch extension              ...  16.64, 16.62, 21.77 au
Average spatial batch extension              ...   2.96,  2.99,  3.24 au

Final grid set up in    0.8 sec
Final integration                            ... done (   0.6 sec)
Change in XC energy                          ...     0.000801702
Integrated number of electrons               ...    41.999971355
Previous integrated no of electrons          ...    41.999436177

----------------
TOTAL SCF ENERGY
----------------

Total Energy       :         -230.60566323 Eh           -6275.09912 eV

Components:
Nuclear Repulsion  :          176.79896357 Eh            4810.94438 eV
Electronic Energy  :         -407.40462681 Eh          -11086.04350 eV
One Electron Energy:         -658.83821622 Eh          -17927.89930 eV
Two Electron Energy:          251.43358941 Eh            6841.85580 eV

Virial components:
Potential Energy   :         -459.40219864 Eh          -12500.96936 eV
Kinetic Energy     :          228.79653540 Eh            6225.87025 eV
Virial Ratio       :            2.00790715


DFT components:
N(Alpha)           :       20.999985677316 electrons
N(Beta)            :       20.999985677316 electrons
N(Total)           :       41.999971354632 electrons
E(XC)              :      -22.975369791655 Eh       

---------------
SCF CONVERGENCE
---------------

  Last Energy change         ...   -3.8161e-08  Tolerance :   1.0000e-06
  Last MAX-Density change    ...    1.6769e-05  Tolerance :   1.0000e-05
  Last RMS-Density change    ...    4.3345e-07  Tolerance :   1.0000e-06
  Last DIIS Error            ...    4.6217e-05  Tolerance :   1.0000e-06

             **** THE GBW FILE WAS UPDATED (Scan_42.gbw) ****
             **** DENSITY FILE WAS UPDATED (Scan_42.scfp.tmp) ****
             **** ENERGY FILE WAS UPDATED (Scan_42.en.tmp) ****
----------------
ORBITAL ENERGIES
----------------

  NO   OCC          E(Eh)            E(eV) 
   0   2.0000     -10.362576      -281.9800 
   1   2.0000     -10.362270      -281.9717 
   2   2.0000     -10.362166      -281.9689 
   3   2.0000     -10.361442      -281.9492 
   4   2.0000     -10.361329      -281.9461 
   5   2.0000     -10.361009      -281.9374 
   6   2.0000      -1.025407       -27.9027 
   7   2.0000      -0.881947       -23.9990 
   8   2.0000      -0.881882       -23.9972 
   9   2.0000      -0.697157       -18.9706 
  10   2.0000      -0.696979       -18.9658 
  11   2.0000      -0.596292       -16.2259 
  12   2.0000      -0.523867       -14.2551 
  13   2.0000      -0.521123       -14.1805 
  14   2.0000      -0.379068       -10.3150 
  15   2.0000      -0.378865       -10.3095 
  16   2.0000      -0.357540        -9.7292 
  17   2.0000      -0.357222        -9.7205 
  18   2.0000      -0.281034        -7.6473 
  19   2.0000      -0.266423        -7.2497 
  20   2.0000      -0.266390        -7.2488 
  21   0.0000      -0.193213        -5.2576 
  22   0.0000      -0.193174        -5.2565 
  23   0.0000      -0.178635        -4.8609 
  24   0.0000      -0.076290        -2.0760 
  25   0.0000      -0.020177        -0.5490 
  26   0.0000      -0.019787        -0.5384 
  27   0.0000       0.067400         1.8340 
  28   0.0000       0.067465         1.8358 
  29   0.0000       0.275604         7.4996 
  30   0.0000       0.373392        10.1605 
  31   0.0000       0.373490        10.1632 
  32   0.0000       0.497200        13.5295 
  33   0.0000       0.497435        13.5359 
  34   0.0000       0.555320        15.1110 
  35   0.0000       0.555827        15.1248 
  36   0.0000       0.578300        15.7363 
  37   0.0000       0.585766        15.9395 
  38   0.0000       0.586020        15.9464 
  39   0.0000       0.586270        15.9532 
  40   0.0000       0.663747        18.0615 
  41   0.0000       0.663839        18.0640 
  42   0.0000       0.667546        18.1648 
  43   0.0000       0.667793        18.1716 
  44   0.0000       0.692037        18.8313 
  45   0.0000       0.751229        20.4420 
  46   0.0000       0.751303        20.4440 
  47   0.0000       0.760767        20.7015 
  48   0.0000       0.788460        21.4551 
  49   0.0000       0.788668        21.4607 
  50   0.0000       0.837152        22.7801 
  51   0.0000       0.837333        22.7850 
  52   0.0000       0.851173        23.1616 
  53   0.0000       0.853539        23.2260 
  54   0.0000       0.854095        23.2411 
  55   0.0000       0.855257        23.2727 
  56   0.0000       0.855344        23.2751 
  57   0.0000       0.857904        23.3448 
  58   0.0000       0.858000        23.3474 
  59   0.0000       0.876761        23.8579 
  60   0.0000       1.079804        29.3830 
  61   0.0000       1.080122        29.3916 
  62   0.0000       1.130068        30.7507 
  63   0.0000       1.251449        34.0537 
  64   0.0000       1.251619        34.0583 
  65   0.0000       1.313335        35.7377 
  66   0.0000       1.383036        37.6343 
  67   0.0000       1.449168        39.4339 
  68   0.0000       1.573655        42.8213 
  69   0.0000       1.576568        42.9006 
  70   0.0000       1.577022        42.9130 
  71   0.0000       1.606661        43.7195 
  72   0.0000       1.607027        43.7294 
  73   0.0000       1.796925        48.8968 
  74   0.0000       1.797685        48.9175 
  75   0.0000       1.887247        51.3546 
  76   0.0000       1.919706        52.2379 
  77   0.0000       2.205585        60.0170 
  78   0.0000       2.206153        60.0325 
  79   0.0000       2.275287        61.9137 
  80   0.0000       2.275475        61.9188 
  81   0.0000       2.275604        61.9223 
  82   0.0000       2.276480        61.9462 
  83   0.0000       2.425874        66.0114 
  84   0.0000       2.426405        66.0258 
  85   0.0000       2.492791        67.8323 
  86   0.0000       2.493662        67.8560 
  87   0.0000       2.495407        67.9035 
  88   0.0000       2.558700        69.6258 
  89   0.0000       2.818460        76.6942 
  90   0.0000       2.819855        76.7322 
  91   0.0000       2.837413        77.2099 
  92   0.0000       2.892696        78.7143 
  93   0.0000       2.893546        78.7374 
  94   0.0000       3.195265        86.9476 
  95   0.0000       3.487058        94.8877 

                    ********************************
                    * MULLIKEN POPULATION ANALYSIS *
                    ********************************

-----------------------
MULLIKEN ATOMIC CHARGES
-----------------------
   0 C :    0.000038
   1 H :   -0.000060
   2 C :    0.000400
   3 H :   -0.000125
   4 C :   -0.000539
   5 H :    0.000265
   6 C :    0.000089
   7 H :   -0.000040
   8 C :    0.000399
   9 H :   -0.000139
  10 C :   -0.000566
  11 H :    0.000277
Sum of atomic charges:   -0.0000000

--------------------------------
MULLIKEN REDUCED ORBITAL CHARGES
--------------------------------
  0 C s       :     3.126780  s :     3.126780
      pz      :     0.988195  p :     2.838330
      px      :     0.968237
      py      :     0.881899
      dz2     :     0.002412  d :     0.034852
      dxz     :     0.003379
      dyz     :     0.008228
      dx2y2   :     0.008316
      dxy     :     0.012516
  1 H s       :     1.000060  s :     1.000060
  2 C s       :     3.126892  s :     3.126892
      pz      :     0.988656  p :     2.837860
      px      :     0.908832
      py      :     0.940372
      dz2     :     0.002377  d :     0.034848
      dxz     :     0.006710
      dyz     :     0.004941
      dx2y2   :     0.012070
      dxy     :     0.008749
  3 H s       :     1.000125  s :     1.000125
  4 C s       :     3.127750  s :     3.127750
      pz      :     0.988264  p :     2.837858
      px      :     0.898660
      py      :     0.950934
      dz2     :     0.002411  d :     0.034931
      dxz     :     0.007354
      dyz     :     0.004275
      dx2y2   :     0.010918
      dxy     :     0.009972
  5 H s       :     0.999735  s :     0.999735
  6 C s       :     3.126771  s :     3.126771
      pz      :     0.988179  p :     2.838288
      px      :     0.968217
      py      :     0.881893
      dz2     :     0.002412  d :     0.034851
      dxz     :     0.003379
      dyz     :     0.008228
      dx2y2   :     0.008316
      dxy     :     0.012515
  7 H s       :     1.000040  s :     1.000040
  8 C s       :     3.126893  s :     3.126893
      pz      :     0.988654  p :     2.837860
      px      :     0.908834
      py      :     0.940371
      dz2     :     0.002377  d :     0.034848
      dxz     :     0.006710
      dyz     :     0.004941
      dx2y2   :     0.012070
      dxy     :     0.008749
  9 H s       :     1.000139  s :     1.000139
 10 C s       :     3.127756  s :     3.127756
      pz      :     0.988275  p :     2.837879
      px      :     0.898663
      py      :     0.950942
      dz2     :     0.002411  d :     0.034931
      dxz     :     0.007354
      dyz     :     0.004276
      dx2y2   :     0.010918
      dxy     :     0.009973
 11 H s       :     0.999723  s :     0.999723


                     *******************************
                     * LOEWDIN POPULATION ANALYSIS *
                     *******************************

----------------------
LOEWDIN ATOMIC CHARGES
----------------------
   0 C :   -0.000020
   1 H :   -0.000098
   2 C :    0.000113
   3 H :   -0.000164
   4 C :   -0.000076
   5 H :    0.000226
   6 C :    0.000024
   7 H :   -0.000079
   8 C :    0.000113
   9 H :   -0.000178
  10 C :   -0.000100
  11 H :    0.000238

-------------------------------
LOEWDIN REDUCED ORBITAL CHARGES
-------------------------------
  0 C s       :     2.938600  s :     2.938600
      pz      :     0.977262  p :     2.981512
      px      :     0.971868
      py      :     1.032381
      dz2     :     0.005881  d :     0.079908
      dxz     :     0.004780
      dyz     :     0.017820
      dx2y2   :     0.014815
      dxy     :     0.036612
  1 H s       :     1.000098  s :     1.000098
  2 C s       :     2.938733  s :     2.938733
      pz      :     0.977641  p :     2.981233
      px      :     1.013121
      py      :     0.990472
      dz2     :     0.005855  d :     0.079921
      dxz     :     0.013712
      dyz     :     0.008932
      dx2y2   :     0.034179
      dxy     :     0.017243
  3 H s       :     1.000164  s :     1.000164
  4 C s       :     2.938981  s :     2.938981
      pz      :     0.977242  p :     2.981155
      px      :     1.022124
      py      :     0.981789
      dz2     :     0.005875  d :     0.079939
      dxz     :     0.015443
      dyz     :     0.007171
      dx2y2   :     0.028227
      dxy     :     0.023224
  5 H s       :     0.999774  s :     0.999774
  6 C s       :     2.938594  s :     2.938594
      pz      :     0.977248  p :     2.981475
      px      :     0.971849
      py      :     1.032378
      dz2     :     0.005881  d :     0.079907
      dxz     :     0.004780
      dyz     :     0.017820
      dx2y2   :     0.014815
      dxy     :     0.036612
  7 H s       :     1.000079  s :     1.000079
  8 C s       :     2.938733  s :     2.938733
      pz      :     0.977640  p :     2.981233
      px      :     1.013123
      py      :     0.990470
      dz2     :     0.005855  d :     0.079920
      dxz     :     0.013712
      dyz     :     0.008932
      dx2y2   :     0.034179
      dxy     :     0.017243
  9 H s       :     1.000178  s :     1.000178
 10 C s       :     2.938985  s :     2.938985
      pz      :     0.977252  p :     2.981175
      px      :     1.022124
      py      :     0.981798
      dz2     :     0.005875  d :     0.079940
      dxz     :     0.015443
      dyz     :     0.007171
      dx2y2   :     0.028227
      dxy     :     0.023224
 11 H s       :     0.999762  s :     0.999762


                      *****************************
                      * MAYER POPULATION ANALYSIS *
                      *****************************

  NA   - Mulliken gross atomic population
  ZA   - Total nuclear charge
  QA   - Mulliken gross atomic charge
  VA   - Mayer's total valence
  BVA  - Mayer's bonded valence
  FA   - Mayer's free valence

  ATOM       NA         ZA         QA         VA         BVA        FA
  0 C      6.0000     6.0000     0.0000     4.0105     4.0105    -0.0000
  1 H      1.0001     1.0000    -0.0001     1.0000     1.0000     0.0000
  2 C      5.9996     6.0000     0.0004     4.0102     4.0102    -0.0000
  3 H      1.0001     1.0000    -0.0001     1.0000     1.0000    -0.0000
  4 C      6.0005     6.0000    -0.0005     4.0102     4.0102     0.0000
  5 H      0.9997     1.0000     0.0003     1.0000     1.0000    -0.0000
  6 C      5.9999     6.0000     0.0001     4.0105     4.0105    -0.0000
  7 H      1.0000     1.0000    -0.0000     1.0000     1.0000    -0.0000
  8 C      5.9996     6.0000     0.0004     4.0101     4.0101    -0.0000
  9 H      1.0001     1.0000    -0.0001     1.0000     1.0000     0.0000
 10 C      6.0006     6.0000    -0.0006     4.0102     4.0102    -0.0000
 11 H      0.9997     1.0000     0.0003     1.0000     1.0000     0.0000

  Mayer bond orders larger than 0.1
B(  0-C ,  2-C ) :   1.8842 B(  0-C ,  6-C ) :   0.1516 B(  0-C , 10-C ) :   1.8845 
B(  1-H ,  3-H ) :   0.4381 B(  1-H ,  7-H ) :   0.1103 B(  1-H , 11-H ) :   0.4502 
B(  2-C ,  4-C ) :   1.8843 B(  2-C ,  8-C ) :   0.1515 B(  3-H ,  5-H ) :   0.4485 
B(  3-H ,  9-H ) :   0.1120 B(  4-C ,  6-C ) :   1.8845 B(  4-C , 10-C ) :   0.1513 
B(  5-H ,  7-H ) :   0.4398 B(  5-H , 11-H ) :   0.1104 B(  6-C ,  8-C ) :   1.8842 
B(  7-H ,  9-H ) :   0.4485 B(  8-C , 10-C ) :   1.8843 B(  9-H , 11-H ) :   0.4381 


-------
TIMINGS
-------

Total SCF time: 0 days 0 hours 1 min 54 sec 

Total time                  ....     114.306 sec
Sum of individual times     ....     113.814 sec  ( 99.6%)

Fock matrix formation       ....     112.422 sec  ( 98.4%)
  XC integration            ....       8.533 sec  (  7.6% of F)
    Basis function eval.    ....       3.800 sec  ( 44.5% of XC)
    Density eval.           ....       0.589 sec  (  6.9% of XC)
    XC-Functional eval.     ....       1.910 sec  ( 22.4% of XC)
    XC-Potential eval.      ....       0.997 sec  ( 11.7% of XC)
Diagonalization             ....       0.040 sec  (  0.0%)
Density matrix formation    ....       0.005 sec  (  0.0%)
Population analysis         ....       0.012 sec  (  0.0%)
Initial guess               ....       0.323 sec  (  0.3%)
Orbital Transformation      ....       0.000 sec  (  0.0%)
Orbital Orthonormalization  ....       0.000 sec  (  0.0%)
DIIS solution               ....       0.000 sec  (  0.0%)
Grid generation             ....       1.013 sec  (  0.9%)


-------------------------------------------------------------------------------
                          DFT DISPERSION CORRECTION                            
                                                                               
                              DFTD3 V3.1  Rev 1                                
                              USING zero damping                               
-------------------------------------------------------------------------------
The omegaB97X-D3 functional is recognized. Fit by Chai et al.
Active option DFTDOPT                   ...         3   

molecular C6(AA) [au] = 2353.791942 


            DFT-D V3
 parameters
 s6 scaling factor         :     1.0000 
 rs6 scaling factor        :     1.2810 
 s8 scaling factor         :     1.0000 
 rs8 scaling factor        :     1.0940 
 Damping factor alpha6     :    14.0000 
 Damping factor alpha8     :    16.0000 
 ad hoc parameters k1-k3   :    16.0000     1.3333    -4.0000 

 Edisp/kcal,au: -0.358649995166  -0.000571545087 
 E6   /kcal   :  -0.251360448 
 E8   /kcal   :  -0.107289547 
 % E8         :  29.914833069 

-------------------------   ----------------
Dispersion correction           -0.000571545
-------------------------   ----------------


-------------------------   --------------------
FINAL SINGLE POINT ENERGY      -230.606234777825
-------------------------   --------------------


                            ***************************************
                            *     ORCA property calculations      *
                            ***************************************

                                    ---------------------
                                    Active property flags
                                    ---------------------
   (+) Dipole Moment


------------------------------------------------------------------------------
                       ORCA ELECTRIC PROPERTIES CALCULATION
------------------------------------------------------------------------------

Dipole Moment Calculation                       ... on
Quadrupole Moment Calculation                   ... off
Polarizability Calculation                      ... off
GBWName                                         ... Scan_42.gbw
Electron density file                           ... Scan_42.scfp.tmp

-------------
DIPOLE MOMENT
-------------
                                X             Y             Z
Electronic contribution:     -0.00037       0.00030      -0.00000
Nuclear contribution   :      0.00015      -0.00020       0.00000
                        -----------------------------------------
Total Dipole Moment    :     -0.00022       0.00010      -0.00000
                        -----------------------------------------
Magnitude (a.u.)       :      0.00024
Magnitude (Debye)      :      0.00062


Timings for individual modules:

Sum of individual times         ...      114.657 sec (=   1.911 min)
GTO integral calculation        ...        0.329 sec (=   0.005 min)   0.3 %
SCF iterations                  ...      114.328 sec (=   1.905 min)  99.7 %
                             ****ORCA TERMINATED NORMALLY****
TOTAL RUN TIME: 0 days 0 hours 1 minutes 54 seconds 985 msec
