
                                 *****************
                                 * O   R   C   A *
                                 *****************

           --- An Ab Initio, DFT and Semiempirical electronic structure package ---

                  #######################################################
                  #                        -***-                        #
                  #  Department of molecular theory and spectroscopy    #
                  #              Directorship: Frank Neese              #
                  # Max Planck Institute for Chemical Energy Conversion #
                  #                  D-45470 Muelheim/Ruhr              #
                  #                       Germany                       #
                  #                                                     #
                  #                  All rights reserved                #
                  #                        -***-                        #
                  #######################################################


                         Program Version 4.0.0.2 - RELEASE -


 With contributions from (in alphabetic order):
   Daniel Aravena         : Magnetic Properties
   Michael Atanasov       : Ab Initio Ligand Field Theory
   Ute Becker             : Parallelization
   Martin Brehm           : Molecular dynamics
   Dmytro Bykov           : SCF Hessian
   Vijay G. Chilkuri      : MRCI spin determinant printing
   Dipayan Datta          : RHF DLPNO-CCSD density
   Achintya Kumar Dutta   : EOM-CC, STEOM-CC
   Dmitry Ganyushin       : Spin-Orbit,Spin-Spin,Magnetic field MRCI
   Yang Guo               : DLPNO-NEVPT2, CIM, IAO-localization
   Andreas Hansen         : Spin unrestricted coupled pair/coupled cluster methods
   Lee Huntington         : MR-EOM, pCC
   Robert Izsak           : Overlap fitted RIJCOSX, COSX-SCS-MP3, EOM
   Christian Kollmar      : KDIIS, OOCD, Brueckner-CCSD(T), CCSD density
   Simone Kossmann        : Meta GGA functionals, TD-DFT gradient, OOMP2, MP2 Hessian
   Martin Krupicka        : AUTO-CI
   Dagmar Lenk            : GEPOL surface
   Dimitrios Liakos       : Extrapolation schemes; parallel MDCI
   Dimitrios Manganas     : ROCIS; embedding schemes
   Dimitrios Pantazis     : SARC Basis sets
   Taras Petrenko         : DFT Hessian,TD-DFT gradient, ASA, ECA, R-Raman, ABS, FL, XAS/XES, NRVS
   Peter Pinski           : DLPNO-MP2
   Christoph Reimann      : Effective Core Potentials
   Marius Retegan         : Local ZFS, SOC
   Christoph Riplinger    : Optimizer, TS searches, QM/MM, DLPNO-CCSD(T), (RO)-DLPNO pert. Triples
   Tobias Risthaus        : Range-separated hybrids, TD-DFT gradient, RPA, STAB
   Michael Roemelt        : Restricted open shell CIS
   Masaaki Saitow         : Open-shell DLPNO
   Barbara Sandhoefer     : DKH picture change effects
   Kantharuban Sivalingam : CASSCF convergence, NEVPT2, FIC-MRCI
   Georgi Stoychev        : AutoAux
   Boris Wezisla          : Elementary symmetry handling
   Frank Wennmohs         : Technical directorship


 We gratefully acknowledge several colleagues who have allowed us to
 interface, adapt or use parts of their codes:
   Stefan Grimme, W. Hujo, H. Kruse,             : VdW corrections, initial TS optimization,
                  C. Bannwarth                     DFT functionals, gCP, sTDA/sTD-DF
   Ed Valeev                                     : LibInt (2-el integral package), F12 methods
   Garnet Chan, S. Sharma, J. Yang, R. Olivares  : DMRG
   Ulf Ekstrom                                   : XCFun DFT Library
   Mihaly Kallay                                 : mrcc  (arbitrary order and MRCC methods)
   Jiri Pittner, Ondrej Demel                    : Mk-CCSD
   Frank Weinhold                                : gennbo (NPA and NBO analysis)
   Christopher J. Cramer and Donald G. Truhlar   : smd solvation model


 Your calculation uses the libint2 library for the computation of 2-el integrals
 For citations please refer to: http://libint.valeyev.net

 This ORCA versions uses:
   CBLAS   interface :  Fast vector & matrix operations
   LAPACKE interface :  Fast linear algebra routines
   SCALAPACK package :  Parallel linear algebra routines


Your calculation utilizes the atom-pairwise dispersion correction
with the zero-damping scheme (D30)
Cite in your paper:
S.Grimme, J.Antony, S.Ehrlich and H.Krieg, J.Chem.Phys., 132, (2010), 154104 
   

XCFun DFT library Copyright 2009-2010 Ulf Ekstrom and contributors.
See http://admol.org/xcfun for more information. This is free soft-
ware; see the source code for copying conditions. There is ABSOLUTELY
NO WARRANTY; not even for MERCHANTABILITY or FITNESS FOR A PARTICULAR
PURPOSE. For details see the documentation. Scientific users of this 
library should cite U. Ekstrom, L. Visscher, R. Bast, A. J. Thorvald-
sen and K. Ruud; J.Chem.Theor.Comp. 2010, DOI: 10.1021/ct100117s
XCFun Version 0.99 
Your calculation utilizes the basis: 6-31G(d)
   H-He, Li-Ne : W. J. Hehre, R. Ditchfield and J.A. Pople, J. Chem. Phys. 56, 2257 (1972).
                 Note: He and Ne are unpublished basis sets taken from the Gaussian program.
                 Note: Li and B from J. D. Dill and J. A. Pople, J. Chem. Phys. 62, 2921 (1975).
   Na - Ar     : M. M. Francl, W. J. Pietro, W. J. Hehre, J. S. Binkley, M. S. Gordon, 
                 D. J. DeFrees and J. A. Pople, J. Chem. Phys. 77, 3654 (1982).
   K - Zn      : V. A. Rassolov, J. A. Pople, M. A. Ratner, and T. L. Windus, J. Chem. Phys. 109, 1223 (1998).

================================================================================
                                        WARNINGS
                       Please study these warnings very carefully!
================================================================================

Warning: TCutStore was < 0. Adjusted to Thresh (uncritical)

INFO   : the flag for use of LIBINT has been found!

================================================================================
                                       INPUT FILE
================================================================================
NAME = initial44.inp
|  1> ! WB97X-D3 6-31G(d) VerySlowConv
|  2> ! KDIIS NOSOSCF
|  3> %base "Scan_44"
|  4> 
|  5> %scf
|  6> maxiter 999
|  7> end
|  8> 
|  9> * xyz 0 1
| 10> C          1.459518042078   -2.844725629629   -0.000015288502
| 11> H          6.342847167526   -3.218720499838    0.000003210538
| 12> C          0.882800348429   -1.642349560769   -0.000150653753
| 13> H          3.648366621884    2.399731579303    0.000040128928
| 14> C         -0.446847691073   -1.540614864282   -0.000131619462
| 15> H         -2.564671623578    2.875446621682    0.000034364495
| 16> C         -1.199779411159   -2.641253751969    0.000015266447
| 17> H         -6.083120068055   -2.267408502147   -0.000003131451
| 18> C         -0.623061144276   -3.843628538239    0.000150622043
| 19> H         -3.388471655290   -7.885816208935   -0.000039979609
| 20> C          0.706585260653   -3.945362885353    0.000131586813
| 21> H          2.824444152861   -8.361407759825   -0.000034506488
| 22> **                         ****END OF INPUT****
================================================================================

                       ****************************
                       * Single Point Calculation *
                       ****************************

---------------------------------
CARTESIAN COORDINATES (ANGSTROEM)
---------------------------------
  C      1.459518   -2.844726   -0.000015
  H      6.342847   -3.218720    0.000003
  C      0.882800   -1.642350   -0.000151
  H      3.648367    2.399732    0.000040
  C     -0.446848   -1.540615   -0.000132
  H     -2.564672    2.875447    0.000034
  C     -1.199779   -2.641254    0.000015
  H     -6.083120   -2.267409   -0.000003
  C     -0.623061   -3.843629    0.000151
  H     -3.388472   -7.885816   -0.000040
  C      0.706585   -3.945363    0.000132
  H      2.824444   -8.361408   -0.000035

----------------------------
CARTESIAN COORDINATES (A.U.)
----------------------------
  NO LB      ZA    FRAG     MASS         X           Y           Z
   0 C     6.0000    0    12.011    2.758089   -5.375752   -0.000029
   1 H     1.0000    0     1.008   11.986244   -6.082500    0.000006
   2 C     6.0000    0    12.011    1.668251   -3.103591   -0.000285
   3 H     1.0000    0     1.008    6.894414    4.534835    0.000076
   4 C     6.0000    0    12.011   -0.844420   -2.911340   -0.000249
   5 H     1.0000    0     1.008   -4.846527    5.433807    0.000065
   6 C     6.0000    0    12.011   -2.267255   -4.991246    0.000029
   7 H     1.0000    0     1.008  -11.495431   -4.284781   -0.000006
   8 C     6.0000    0    12.011   -1.177415   -7.263405    0.000285
   9 H     1.0000    0     1.008   -6.403283  -14.902033   -0.000076
  10 C     6.0000    0    12.011    1.335253   -7.455655    0.000249
  11 H     1.0000    0     1.008    5.337426  -15.800771   -0.000065

--------------------------------
INTERNAL COORDINATES (ANGSTROEM)
--------------------------------
 C      0   0   0     0.000000000000     0.00000000     0.00000000
 H      1   0   0     4.897629580801     0.00000000     0.00000000
 C      1   2   0     1.333533474443   120.00413609     0.00000000
 H      3   1   2     4.897629711625   119.99568498     0.00000000
 C      3   1   2     1.333534348183   119.99994666   180.00119367
 H      5   3   1     4.897629761880   119.99643803   179.99104207
 C      5   3   1     1.333533710776   120.00016821     0.00000000
 H      7   5   3     4.897629655501   119.99773432   180.00119250
 C      7   5   3     1.333532565907   119.99983910     0.00000000
 H      9   7   5     4.897629681375   119.99784658   180.00986172
 C      9   7   5     1.333532691720   119.99998309     0.00000000
 H     11   9   7     4.897629901110   119.99688122   180.00895894

---------------------------
INTERNAL COORDINATES (A.U.)
---------------------------
 C      0   0   0     0.000000000000     0.00000000     0.00000000
 H      1   0   0     9.255178613105     0.00000000     0.00000000
 C      1   2   0     2.520013057113   120.00413609     0.00000000
 H      3   1   2     9.255178860328   119.99568498     0.00000000
 C      3   1   2     2.520014708243   119.99994666   180.00119367
 H      5   3   1     9.255178955296   119.99643803   179.99104207
 C      5   3   1     2.520013503718   120.00016821     0.00000000
 H      7   5   3     9.255178754269   119.99773432   180.00119250
 C      7   5   3     2.520011340230   119.99983910     0.00000000
 H      9   7   5     9.255178803162   119.99784658   180.00986172
 C      9   7   5     2.520011577981   119.99998309     0.00000000
 H     11   9   7     9.255179218401   119.99688122   180.00895894

---------------------
BASIS SET INFORMATION
---------------------
There are 2 groups of distinct atoms

 Group   1 Type C   : 10s4p1d contracted to 3s2p1d pattern {631/31/1}
 Group   2 Type H   : 4s contracted to 2s pattern {31}

Atom   0C    basis set group =>   1
Atom   1H    basis set group =>   2
Atom   2C    basis set group =>   1
Atom   3H    basis set group =>   2
Atom   4C    basis set group =>   1
Atom   5H    basis set group =>   2
Atom   6C    basis set group =>   1
Atom   7H    basis set group =>   2
Atom   8C    basis set group =>   1
Atom   9H    basis set group =>   2
Atom  10C    basis set group =>   1
Atom  11H    basis set group =>   2
------------------------------------------------------------------------------
                           ORCA GTO INTEGRAL CALCULATION
------------------------------------------------------------------------------

                         BASIS SET STATISTICS AND STARTUP INFO

 # of primitive gaussian shells          ...  114
 # of primitive gaussian functions       ...  186
 # of contracted shells                  ...   48
 # of contracted basis functions         ...   96
 Highest angular momentum                ...    2
 Maximum contraction depth               ...    6
 Integral package used                   ... LIBINT
 Integral threshhold            Thresh   ...  1.000e-10
 Primitive cut-off              TCut     ...  1.000e-11


------------------------------ INTEGRAL EVALUATION ----------------------------


 * One electron integrals 
 Pre-screening matrix                    ... done
 Shell pair data                         ... done (   0.001 sec)

-------------------------------------------------------------------------------
                                 ORCA SCF
-------------------------------------------------------------------------------

------------
SCF SETTINGS
------------
Hamiltonian:
 Density Functional     Method          .... DFT(GTOs)
 Exchange Functional    Exchange        .... WB97X-D3
 Correlation Functional Correlation     .... WB97X-D3
 Gradients option       PostSCFGGA      .... off
 Hybrid DFT is turned on
   Fraction HF Exchange ScalHFX         ....  0.195728
   Scaling of DF-GGA-X  ScalDFX         ....  0.000000
   Scaling of DF-GGA-C  ScalDFC         ....  1.000000
   Scaling of DF-LDA-C  ScalLDAC        ....  1.000000
   Perturbative correction              ....  0.000000
 Long-range corrected/Screened/Range-Separated Hybrid DFT is turned on
   Amount of maximum screened exact exchange              ....  0.804272
   Range separation parameter mu (erf(mu*r12)/r12)        ....  0.250000


General Settings:
 Integral files         IntName         .... Scan_44
 Hartree-Fock type      HFTyp           .... RHF
 Total Charge           Charge          ....    0
 Multiplicity           Mult            ....    1
 Number of Electrons    NEL             ....   42
 Basis Dimension        Dim             ....   96
 Nuclear Repulsion      ENuc            ....    176.1204411582 Eh

Convergence Acceleration:
 DIIS                   CNVDIIS         .... on
   Start iteration      DIISMaxIt       ....     0
   Startup error        DIISStart       ....  0.200000
   # of expansion vecs  DIISMaxEq       ....     5
   Bias factor          DIISBfac        ....   1.050
   Max. coefficient     DIISMaxC        ....  10.000
 Newton-Raphson         CNVNR           .... off
 SOSCF                  CNVSOSCF        .... off
 Level Shifting         CNVShift        .... off
 Zerner damping         CNVZerner       .... off
 Static damping         CNVDamp         .... off
 Fernandez-Rico         CNVRico         .... off

SCF Procedure:
 Maximum # iterations   MaxIter         ....   999
 SCF integral mode      SCFMode         .... Direct
   Integral package                     .... LIBINT
 Reset frequeny         DirectResetFreq ....    20
 Integral Threshold     Thresh          ....  1.000e-10 Eh
 Primitive CutOff       TCut            ....  1.000e-11 Eh

Convergence Tolerance:
 Convergence Check Mode ConvCheckMode   .... All-Criteria
 Convergence forced     ConvForced      .... 0
 Energy Change          TolE            ....  1.000e-06 Eh
 Max Density Change     TolMaxP         ....  1.000e-05
 RMS Density Change     TolRMSP         ....  1.000e-06
 DIIS Error             TolErr          ....  1.000e-06


Diagonalization of the overlap matrix:
Smallest eigenvalue                        ... 1.268e-03
Time for diagonalization                   ...    0.003 sec
Threshold for overlap eigenvalues          ... 1.000e-08
Number of eigenvalues below threshold      ... 0
Time for construction of square roots      ...    0.047 sec
Total time needed                          ...    0.050 sec

-------------------
DFT GRID GENERATION
-------------------

General Integration Accuracy     IntAcc      ...  4.340
Radial Grid Type                 RadialGrid  ... Gauss-Chebyshev
Angular Grid (max. acc.)         AngularGrid ... Lebedev-110
Angular grid pruning method      GridPruning ... 3 (G Style)
Weight generation scheme         WeightScheme... Becke
Basis function cutoff            BFCut       ...    1.0000e-10
Integration weight cutoff        WCut        ...    1.0000e-14
Grids for H and He will be reduced by one unit

# of grid points (after initial pruning)     ...  14700 (   0.0 sec)
# of grid points (after weights+screening)   ...  14198 (   0.1 sec)
nearest neighbour list constructed           ...    0.0 sec
Grid point re-assignment to atoms done       ...    0.0 sec
Grid point division into batches done        ...    0.0 sec
Reduced shell lists constructed in    0.4 sec

Total number of grid points                  ...    14198
Total number of batches                      ...      226
Average number of points per batch           ...       62
Average number of grid points per atom       ...     1183
Average number of shells per batch           ...    26.35 (54.90%)
Average number of basis functions per batch  ...    57.72 (60.12%)
Average number of large shells per batch     ...    19.19 (72.84%)
Average number of large basis fcns per batch ...    44.55 (77.19%)
Maximum spatial batch extension              ...  16.35, 21.59, 22.38 au
Average spatial batch extension              ...   4.45,  5.00,  5.70 au

Time for grid setup =    0.547 sec

------------------------------
INITIAL GUESS: MODEL POTENTIAL
------------------------------
Loading Hartree-Fock densities                     ... done
Calculating cut-offs                               ... done
Setting up the integral package                    ... done
Initializing the effective Hamiltonian             ... done
Starting the Coulomb interaction                   ... done (   0.1 sec)
Reading the grid                                   ... done
Mapping shells                                     ... done
Starting the XC term evaluation                    ... done (   0.3 sec)
  promolecular density results
     # of electrons  =     41.995600424
     EX              =    -32.042517656
     EC              =     -1.258168468
     EX+EC           =    -33.300686124
Transforming the Hamiltonian                       ... done (   0.0 sec)
Diagonalizing the Hamiltonian                      ... done (   0.0 sec)
Back transforming the eigenvectors                 ... done (   0.0 sec)
Now organizing SCF variables                       ... done
                      ------------------
                      INITIAL GUESS DONE (   1.2 sec)
                      ------------------
--------------
SCF ITERATIONS
--------------
ITER       Energy         Delta-E        Max-DP      RMS-DP      [F,P]   Gradient Norm
               ***  Starting incremental Fock matrix formation  ***
                             ****Resetting KDIIS****
                             ****Turning on KDIIS(Cayley)****
  0   -229.1858244072   0.000000000000 0.03882633  0.00249409  0.1579891   0.111935312
  1   -229.2939747302  -0.108150322956 0.05788649  0.00386712  0.1600076   0.096915246
  2   -229.4388507397  -0.144876009582 0.07037085  0.00500164  0.1652727   0.081909093
  3   -229.5723967708  -0.133546031095 0.18502844  0.00974091  0.1620932   0.059874536
  4   -229.8232742631  -0.250877492313 0.03780423  0.00100807  0.1062307   0.032490896
  5   -229.7884076523   0.034866610805 0.09010488  0.00255347  0.1194288   0.034538780
  6   -229.8656739770  -0.077266324676 0.12269602  0.00281781  0.0894150   0.028063347
  7   -229.9371979527  -0.071523975688 0.39599801  0.01307832  0.0772182   0.020589707
  8   -229.9675592649  -0.030361312209 0.26443558  0.00831226  0.0705101   0.034377240
  9   -230.0406768116  -0.073117546664 0.00846493  0.00047585  0.0367153   0.015015303
 10   -230.0368897744   0.003787037185 0.03564987  0.00129923  0.0382136   0.015366206
 11   -230.0280571055   0.008832668929 0.00294361  0.00012880  0.0448240   0.015993795
 12   -230.0279187494   0.000138356060 0.08848237  0.00385036  0.0448498   0.015898350
 13   -230.0815519752  -0.053633225798 0.03520833  0.00161496  0.0492204   0.017930013
 14   -230.1026737056  -0.021121730365 0.02146887  0.00138546  0.0516114   0.018783631
 15   -230.0916391142   0.011034591371 0.02094313  0.00156771  0.0506832   0.017420571
 16   -230.0962871667  -0.004648052522 0.03421179  0.00188478  0.0658288   0.020485289
 17   -230.1079735029  -0.011686336152 0.07763557  0.00322200  0.0846005   0.027208311
 18   -230.1702495581  -0.062276055267 0.01727948  0.00117423  0.0975179   0.025186019
 19   -230.1940627229  -0.023813164753 0.04855258  0.00282356  0.1060231   0.026818095
               *** Restarting incremental Fock matrix formation ***
                             ****Resetting KDIIS****
 20   -230.2627119266  -0.068649203739 0.01009357  0.00045935  0.1145497   0.027829091
 21   -230.2748430865  -0.012131159868 0.03004491  0.00142633  0.1146057   0.027574543
 22   -230.3118036883  -0.036960601807 0.06399704  0.00321322  0.1132382   0.027142523
 23   -230.3903003656  -0.078496677296 0.07831536  0.00502318  0.0997869   0.023811739
 24   -230.4862772198  -0.095976854210 0.03452083  0.00185333  0.0615614   0.018398642
 25   -230.5121475196  -0.025870299814 0.03524888  0.00172284  0.0495812   0.013225834
 26   -230.5289973829  -0.016849863239 0.03352698  0.00179710  0.0362230   0.011891898
 27   -230.5309361766  -0.001938793781 0.03448360  0.00151665  0.0342590   0.019634231
 28   -230.5414060357  -0.010469859090 0.06089658  0.00435889  0.0311178   0.011409454
 29   -230.5676172105  -0.026211174728 0.02585608  0.00122087  0.0077961   0.005380233
 30   -230.5708626217  -0.003245411242 0.02143827  0.00073777  0.0068171   0.004089991
 31   -230.5726466772  -0.001784055542 0.01958574  0.00054008  0.0063679   0.003306145
 32   -230.5740013853  -0.001354708054 0.03468884  0.00086476  0.0063459   0.002196409
 33   -230.5760555142  -0.002054128901 0.01550762  0.00040352  0.0052367   0.002124190
 34   -230.5769301137  -0.000874599461 0.04211556  0.00101685  0.0053210   0.002109378
 35   -230.5791415306  -0.002211416928 0.04637664  0.00117305  0.0051360   0.001706816
 36   -230.5813971159  -0.002255585292 0.04051814  0.00116069  0.0039449   0.001670103
 37   -230.5833351302  -0.001938014365 0.02567099  0.00079250  0.0034773   0.001749132
 38   -230.5845021536  -0.001167023301 0.03612706  0.00108597  0.0032195   0.001656194
 39   -230.5858018155  -0.001299661964 0.02077341  0.00062195  0.0027289   0.001500325
               *** Restarting incremental Fock matrix formation ***
                             ****Resetting KDIIS****
 40   -230.5864035639  -0.000601748431 0.00070356  0.00002891  0.0024148   0.001471882
 41   -230.5864441093  -0.000040545350 0.00169056  0.00005052  0.0022969   0.001204132
 42   -230.5865042332  -0.000060123944 0.00592920  0.00017156  0.0022623   0.001061317
 43   -230.5866831260  -0.000178892730 0.05035926  0.00142839  0.0021548   0.000967795
 44   -230.5876774372  -0.000994311189 0.00986060  0.00027303  0.0011273   0.000656125
 45   -230.5877879188  -0.000110481646 0.00917274  0.00024681  0.0009930   0.000417748
 46   -230.5878727879  -0.000084869091 0.01838933  0.00049771  0.0008758   0.000317444
 47   -230.5880201924  -0.000147404532 0.00829481  0.00022698  0.0006941   0.000314266
 48   -230.5880626252  -0.000042432803 0.00403986  0.00011653  0.0006043   0.000295784
 49   -230.5880733960  -0.000010770791 0.00279481  0.00010506  0.0007480   0.000267189
 50   -230.5880920551  -0.000018659042 0.00053779  0.00001756  0.0004787   0.000171756
 51   -230.5880949150  -0.000002859973 0.00158492  0.00004438  0.0004801   0.000160136
                          ***Energy convergence achieved***
 52   -230.5880953026  -0.000000387569 0.00284143  0.00007486  0.0004915   0.000165984
 53   -230.5880981134  -0.000002810768 0.00434260  0.00011392  0.0004929   0.000180117
 54   -230.5880994612  -0.000001347875 0.00044968  0.00001398  0.0004729   0.000164442
 55   -230.5881020026  -0.000002541369 0.00005392  0.00000175  0.0005326   0.000163896
                          ***Energy convergence achieved***
 56   -230.5881023034  -0.000000300748 0.00122834  0.00004529  0.0005264   0.000165214
 57   -230.5881086687  -0.000006365330 0.00057302  0.00001503  0.0005572   0.000174946
                          ***Energy convergence achieved***
 58   -230.5881090928  -0.000000424138 0.00144949  0.00003882  0.0005592   0.000174876
 59   -230.5881065500   0.000002542845 0.00303584  0.00008115  0.0005474   0.000176487
               *** Restarting incremental Fock matrix formation ***
                             ****Resetting KDIIS****
 60   -230.5880999843   0.000006565733 0.00015548  0.00000425  0.0004629   0.000175108
                          ***Energy convergence achieved***
 61   -230.5881009280  -0.000000943786 0.00036685  0.00000945  0.0004621   0.000169410
 62   -230.5881030315  -0.000002103443 0.00196924  0.00004953  0.0004814   0.000167571
 63   -230.5880925453   0.000010486198 0.01117026  0.00027849  0.0004869   0.000164108
 64   -230.5880529875   0.000039557769 0.00267759  0.00007389  0.0002131   0.000097712
                          ***Energy convergence achieved***
 65   -230.5880520977   0.000000889864 0.00068792  0.00002212  0.0002104   0.000143627
 66   -230.5880514099   0.000000687748 0.00191482  0.00007093  0.0002051   0.000105652
 67   -230.5880541225  -0.000002712592 0.00032865  0.00001313  0.0000952   0.000073690
                          ***Energy convergence achieved***
 68   -230.5880546966  -0.000000574135 0.00064764  0.00002265  0.0001261   0.000059646
 69   -230.5880554494  -0.000000752758 0.00047001  0.00001868  0.0001071   0.000051610
 70   -230.5880561480  -0.000000698601 0.00094554  0.00003508  0.0000899   0.000035273
 71   -230.5880574172  -0.000001269183 0.00018857  0.00000714  0.0000773   0.000035737
                          ***Energy convergence achieved***
 72   -230.5880576566  -0.000000239437 0.00029166  0.00000969  0.0000704   0.000034957
 73   -230.5880580167  -0.000000360117 0.00013600  0.00000490  0.0000644   0.000028096
 74   -230.5880581950  -0.000000178226 0.00011950  0.00000424  0.0000678   0.000028101

            ***Energy convergence in two consecutive cycles with***
                    ***'reasonable' density convergence***
                       *** signaling convergence ***

                    *** KDIIS BlockDiag ( 0.002 sec) ***

               *****************************************************
               *                     SUCCESS                       *
               *           SCF CONVERGED AFTER  75 CYCLES          *
               *****************************************************

Setting up the final grid:

General Integration Accuracy     IntAcc      ...  4.670
Radial Grid Type                 RadialGrid  ... Gauss-Chebyshev
Angular Grid (max. acc.)         AngularGrid ... Lebedev-302
Angular grid pruning method      GridPruning ... 3 (G Style)
Weight generation scheme         WeightScheme... Becke
Basis function cutoff            BFCut       ...    1.0000e-10
Integration weight cutoff        WCut        ...    1.0000e-14
Grids for H and He will be reduced by one unit

# of grid points (after initial pruning)     ...  57636 (   0.0 sec)
# of grid points (after weights+screening)   ...  55318 (   0.1 sec)
nearest neighbour list constructed           ...    0.0 sec
Grid point re-assignment to atoms done       ...    0.0 sec
Grid point division into batches done        ...    0.4 sec
Reduced shell lists constructed in    1.0 sec

Total number of grid points                  ...    55318
Total number of batches                      ...      872
Average number of points per batch           ...       63
Average number of grid points per atom       ...     4610
Average number of shells per batch           ...    22.39 (46.64%)
Average number of basis functions per batch  ...    49.37 (51.42%)
Average number of large shells per batch     ...    16.07 (71.80%)
Average number of large basis fcns per batch ...    37.19 (75.33%)
Maximum spatial batch extension              ...  16.89, 19.28, 21.77 au
Average spatial batch extension              ...   2.95,  3.01,  3.22 au

Final grid set up in    1.3 sec
Final integration                            ... done (   1.1 sec)
Change in XC energy                          ...     0.000827501
Integrated number of electrons               ...    41.999975787
Previous integrated no of electrons          ...    41.998824691

----------------
TOTAL SCF ENERGY
----------------

Total Energy       :         -230.58723085 Eh           -6274.59755 eV

Components:
Nuclear Repulsion  :          176.12044116 Eh            4792.48085 eV
Electronic Energy  :         -406.70767201 Eh          -11067.07839 eV
One Electron Energy:         -657.48618331 Eh          -17891.10861 eV
Two Electron Energy:          250.77851131 Eh            6824.03022 eV

Virial components:
Potential Energy   :         -459.38548974 Eh          -12500.51469 eV
Kinetic Energy     :          228.79825890 Eh            6225.91714 eV
Virial Ratio       :            2.00781899


DFT components:
N(Alpha)           :       20.999987893253 electrons
N(Beta)            :       20.999987893253 electrons
N(Total)           :       41.999975786506 electrons
E(XC)              :      -22.975693409358 Eh       

---------------
SCF CONVERGENCE
---------------

  Last Energy change         ...   -1.5332e-07  Tolerance :   1.0000e-06
  Last MAX-Density change    ...    3.7260e-05  Tolerance :   1.0000e-05
  Last RMS-Density change    ...    1.2893e-06  Tolerance :   1.0000e-06
  Last DIIS Error            ...    7.0637e-05  Tolerance :   1.0000e-06

             **** THE GBW FILE WAS UPDATED (Scan_44.gbw) ****
             **** DENSITY FILE WAS UPDATED (Scan_44.scfp.tmp) ****
             **** ENERGY FILE WAS UPDATED (Scan_44.en.tmp) ****
----------------
ORBITAL ENERGIES
----------------

  NO   OCC          E(Eh)            E(eV) 
   0   2.0000     -10.362404      -281.9754 
   1   2.0000     -10.362091      -281.9668 
   2   2.0000     -10.362005      -281.9645 
   3   2.0000     -10.361264      -281.9443 
   4   2.0000     -10.361171      -281.9418 
   5   2.0000     -10.360841      -281.9328 
   6   2.0000      -1.025249       -27.8984 
   7   2.0000      -0.881800       -23.9950 
   8   2.0000      -0.881742       -23.9934 
   9   2.0000      -0.697022       -18.9669 
  10   2.0000      -0.696838       -18.9619 
  11   2.0000      -0.596148       -16.2220 
  12   2.0000      -0.523736       -14.2516 
  13   2.0000      -0.521024       -14.1778 
  14   2.0000      -0.378942       -10.3115 
  15   2.0000      -0.378739       -10.3060 
  16   2.0000      -0.357454        -9.7268 
  17   2.0000      -0.357124        -9.7179 
  18   2.0000      -0.272188        -7.4066 
  19   2.0000      -0.272171        -7.4061 
  20   2.0000      -0.251004        -6.8302 
  21   0.0000      -0.208540        -5.6747 
  22   0.0000      -0.187284        -5.0962 
  23   0.0000      -0.187258        -5.0956 
  24   0.0000      -0.076193        -2.0733 
  25   0.0000      -0.020071        -0.5462 
  26   0.0000      -0.019686        -0.5357 
  27   0.0000       0.067514         1.8372 
  28   0.0000       0.067579         1.8389 
  29   0.0000       0.275715         7.5026 
  30   0.0000       0.373498        10.1634 
  31   0.0000       0.373594        10.1660 
  32   0.0000       0.497300        13.5322 
  33   0.0000       0.497539        13.5387 
  34   0.0000       0.555402        15.1133 
  35   0.0000       0.556402        15.1405 
  36   0.0000       0.578444        15.7403 
  37   0.0000       0.585874        15.9425 
  38   0.0000       0.586259        15.9529 
  39   0.0000       0.586517        15.9599 
  40   0.0000       0.663847        18.0642 
  41   0.0000       0.663937        18.0667 
  42   0.0000       0.668036        18.1782 
  43   0.0000       0.668298        18.1853 
  44   0.0000       0.692344        18.8396 
  45   0.0000       0.751328        20.4447 
  46   0.0000       0.751397        20.4466 
  47   0.0000       0.760876        20.7045 
  48   0.0000       0.789071        21.4717 
  49   0.0000       0.789296        21.4778 
  50   0.0000       0.839399        22.8412 
  51   0.0000       0.839604        22.8468 
  52   0.0000       0.851267        23.1642 
  53   0.0000       0.853363        23.2212 
  54   0.0000       0.853664        23.2294 
  55   0.0000       0.854117        23.2417 
  56   0.0000       0.854166        23.2430 
  57   0.0000       0.855539        23.2804 
  58   0.0000       0.855613        23.2824 
  59   0.0000       0.876516        23.8512 
  60   0.0000       1.079896        29.3855 
  61   0.0000       1.080218        29.3942 
  62   0.0000       1.130194        30.7542 
  63   0.0000       1.251468        34.0542 
  64   0.0000       1.251635        34.0587 
  65   0.0000       1.313467        35.7412 
  66   0.0000       1.383172        37.6380 
  67   0.0000       1.449303        39.4375 
  68   0.0000       1.573197        42.8089 
  69   0.0000       1.576696        42.9041 
  70   0.0000       1.577149        42.9164 
  71   0.0000       1.606791        43.7230 
  72   0.0000       1.607158        43.7330 
  73   0.0000       1.797023        48.8995 
  74   0.0000       1.797784        48.9202 
  75   0.0000       1.887369        51.3579 
  76   0.0000       1.919835        52.2414 
  77   0.0000       2.205636        60.0184 
  78   0.0000       2.206199        60.0337 
  79   0.0000       2.275411        61.9171 
  80   0.0000       2.275572        61.9215 
  81   0.0000       2.275731        61.9258 
  82   0.0000       2.276580        61.9489 
  83   0.0000       2.425997        66.0147 
  84   0.0000       2.426523        66.0291 
  85   0.0000       2.492864        67.8343 
  86   0.0000       2.493735        67.8580 
  87   0.0000       2.495528        67.9068 
  88   0.0000       2.558572        69.6223 
  89   0.0000       2.818572        76.6973 
  90   0.0000       2.819971        76.7353 
  91   0.0000       2.837524        77.2129 
  92   0.0000       2.892821        78.7177 
  93   0.0000       2.893666        78.7406 
  94   0.0000       3.195392        86.9510 
  95   0.0000       3.487159        94.8904 

                    ********************************
                    * MULLIKEN POPULATION ANALYSIS *
                    ********************************

-----------------------
MULLIKEN ATOMIC CHARGES
-----------------------
   0 C :    0.000024
   1 H :    0.000058
   2 C :    0.000347
   3 H :   -0.000149
   4 C :   -0.000577
   5 H :    0.000303
   6 C :    0.000051
   7 H :    0.000104
   8 C :    0.000361
   9 H :   -0.000154
  10 C :   -0.000578
  11 H :    0.000209
Sum of atomic charges:   -0.0000000

--------------------------------
MULLIKEN REDUCED ORBITAL CHARGES
--------------------------------
  0 C s       :     3.126885  s :     3.126885
      pz      :     0.988192  p :     2.838245
      px      :     0.968114
      py      :     0.881938
      dz2     :     0.002412  d :     0.034847
      dxz     :     0.003377
      dyz     :     0.008227
      dx2y2   :     0.008314
      dxy     :     0.012516
  1 H s       :     0.999942  s :     0.999942
  2 C s       :     3.127008  s :     3.127008
      pz      :     0.988661  p :     2.837800
      px      :     0.908823
      py      :     0.940316
      dz2     :     0.002377  d :     0.034844
      dxz     :     0.006709
      dyz     :     0.004940
      dx2y2   :     0.012072
      dxy     :     0.008747
  3 H s       :     1.000149  s :     1.000149
  4 C s       :     3.127922  s :     3.127922
      pz      :     0.988270  p :     2.837727
      px      :     0.898663
      py      :     0.950794
      dz2     :     0.002410  d :     0.034927
      dxz     :     0.007353
      dyz     :     0.004274
      dx2y2   :     0.010919
      dxy     :     0.009972
  5 H s       :     0.999697  s :     0.999697
  6 C s       :     3.126882  s :     3.126882
      pz      :     0.988185  p :     2.838220
      px      :     0.968101
      py      :     0.881934
      dz2     :     0.002412  d :     0.034846
      dxz     :     0.003377
      dyz     :     0.008227
      dx2y2   :     0.008314
      dxy     :     0.012516
  7 H s       :     0.999896  s :     0.999896
  8 C s       :     3.127009  s :     3.127009
      pz      :     0.988657  p :     2.837786
      px      :     0.908819
      py      :     0.940309
      dz2     :     0.002377  d :     0.034845
      dxz     :     0.006709
      dyz     :     0.004940
      dx2y2   :     0.012072
      dxy     :     0.008747
  9 H s       :     1.000154  s :     1.000154
 10 C s       :     3.127923  s :     3.127923
      pz      :     0.988274  p :     2.837727
      px      :     0.898661
      py      :     0.950791
      dz2     :     0.002410  d :     0.034928
      dxz     :     0.007353
      dyz     :     0.004274
      dx2y2   :     0.010919
      dxy     :     0.009972
 11 H s       :     0.999791  s :     0.999791


                     *******************************
                     * LOEWDIN POPULATION ANALYSIS *
                     *******************************

----------------------
LOEWDIN ATOMIC CHARGES
----------------------
   0 C :   -0.000082
   1 H :    0.000047
   2 C :    0.000038
   3 H :   -0.000165
   4 C :   -0.000116
   5 H :    0.000288
   6 C :   -0.000058
   7 H :    0.000092
   8 C :    0.000050
   9 H :   -0.000169
  10 C :   -0.000116
  11 H :    0.000193

-------------------------------
LOEWDIN REDUCED ORBITAL CHARGES
-------------------------------
  0 C s       :     2.938602  s :     2.938602
      pz      :     0.977260  p :     2.981580
      px      :     0.971945
      py      :     1.032375
      dz2     :     0.005880  d :     0.079900
      dxz     :     0.004778
      dyz     :     0.017819
      dx2y2   :     0.014808
      dxy     :     0.036615
  1 H s       :     0.999953  s :     0.999953
  2 C s       :     2.938738  s :     2.938738
      pz      :     0.977647  p :     2.981308
      px      :     1.013134
      py      :     0.990527
      dz2     :     0.005854  d :     0.079916
      dxz     :     0.013710
      dyz     :     0.008930
      dx2y2   :     0.034183
      dxy     :     0.017239
  3 H s       :     1.000165  s :     1.000165
  4 C s       :     2.938985  s :     2.938985
      pz      :     0.977248  p :     2.981195
      px      :     1.022117
      py      :     0.981830
      dz2     :     0.005874  d :     0.079935
      dxz     :     0.015441
      dyz     :     0.007169
      dx2y2   :     0.028229
      dxy     :     0.023222
  5 H s       :     0.999712  s :     0.999712
  6 C s       :     2.938600  s :     2.938600
      pz      :     0.977253  p :     2.981559
      px      :     0.971933
      py      :     1.032372
      dz2     :     0.005880  d :     0.079900
      dxz     :     0.004778
      dyz     :     0.017819
      dx2y2   :     0.014808
      dxy     :     0.036615
  7 H s       :     0.999908  s :     0.999908
  8 C s       :     2.938736  s :     2.938736
      pz      :     0.977643  p :     2.981298
      px      :     1.013133
      py      :     0.990522
      dz2     :     0.005854  d :     0.079916
      dxz     :     0.013711
      dyz     :     0.008930
      dx2y2   :     0.034183
      dxy     :     0.017239
  9 H s       :     1.000169  s :     1.000169
 10 C s       :     2.938985  s :     2.938985
      pz      :     0.977252  p :     2.981196
      px      :     1.022115
      py      :     0.981829
      dz2     :     0.005874  d :     0.079936
      dxz     :     0.015441
      dyz     :     0.007169
      dx2y2   :     0.028229
      dxy     :     0.023222
 11 H s       :     0.999807  s :     0.999807


                      *****************************
                      * MAYER POPULATION ANALYSIS *
                      *****************************

  NA   - Mulliken gross atomic population
  ZA   - Total nuclear charge
  QA   - Mulliken gross atomic charge
  VA   - Mayer's total valence
  BVA  - Mayer's bonded valence
  FA   - Mayer's free valence

  ATOM       NA         ZA         QA         VA         BVA        FA
  0 C      6.0000     6.0000     0.0000     4.0102     4.0102    -0.0000
  1 H      0.9999     1.0000     0.0001     1.0000     1.0000    -0.0000
  2 C      5.9997     6.0000     0.0003     4.0099     4.0099    -0.0000
  3 H      1.0001     1.0000    -0.0001     1.0000     1.0000    -0.0000
  4 C      6.0006     6.0000    -0.0006     4.0100     4.0100     0.0000
  5 H      0.9997     1.0000     0.0003     1.0000     1.0000    -0.0000
  6 C      5.9999     6.0000     0.0001     4.0102     4.0102    -0.0000
  7 H      0.9999     1.0000     0.0001     1.0000     1.0000    -0.0000
  8 C      5.9996     6.0000     0.0004     4.0099     4.0099    -0.0000
  9 H      1.0002     1.0000    -0.0002     1.0000     1.0000     0.0000
 10 C      6.0006     6.0000    -0.0006     4.0100     4.0100    -0.0000
 11 H      0.9998     1.0000     0.0002     1.0000     1.0000     0.0000

  Mayer bond orders larger than 0.1
B(  0-C ,  2-C ) :   1.8845 B(  0-C ,  6-C ) :   0.1517 B(  0-C , 10-C ) :   1.8848 
B(  1-H ,  7-H ) :   0.9997 B(  2-C ,  4-C ) :   1.8844 B(  2-C ,  8-C ) :   0.1516 
B(  3-H ,  5-H ) :   0.9996 B(  4-C ,  6-C ) :   1.8848 B(  4-C , 10-C ) :   0.1514 
B(  6-C ,  8-C ) :   1.8845 B(  8-C , 10-C ) :   1.8844 B(  9-H , 11-H ) :   0.9996 


-------
TIMINGS
-------

Total SCF time: 0 days 0 hours 6 min 56 sec 

Total time                  ....     416.235 sec
Sum of individual times     ....     412.676 sec  ( 99.1%)

Fock matrix formation       ....     409.810 sec  ( 98.5%)
  XC integration            ....      39.021 sec  (  9.5% of F)
    Basis function eval.    ....      14.515 sec  ( 37.2% of XC)
    Density eval.           ....       2.914 sec  (  7.5% of XC)
    XC-Functional eval.     ....       8.361 sec  ( 21.4% of XC)
    XC-Potential eval.      ....       3.762 sec  (  9.6% of XC)
Diagonalization             ....       0.311 sec  (  0.1%)
Density matrix formation    ....       0.011 sec  (  0.0%)
Population analysis         ....       0.030 sec  (  0.0%)
Initial guess               ....       0.670 sec  (  0.2%)
Orbital Transformation      ....       0.000 sec  (  0.0%)
Orbital Orthonormalization  ....       0.000 sec  (  0.0%)
DIIS solution               ....       0.000 sec  (  0.0%)
Grid generation             ....       1.844 sec  (  0.4%)


-------------------------------------------------------------------------------
                          DFT DISPERSION CORRECTION                            
                                                                               
                              DFTD3 V3.1  Rev 1                                
                              USING zero damping                               
-------------------------------------------------------------------------------
The omegaB97X-D3 functional is recognized. Fit by Chai et al.
Active option DFTDOPT                   ...         3   

molecular C6(AA) [au] = 2353.796250 


            DFT-D V3
 parameters
 s6 scaling factor         :     1.0000 
 rs6 scaling factor        :     1.2810 
 s8 scaling factor         :     1.0000 
 rs8 scaling factor        :     1.0940 
 Damping factor alpha6     :    14.0000 
 Damping factor alpha8     :    16.0000 
 ad hoc parameters k1-k3   :    16.0000     1.3333    -4.0000 

 Edisp/kcal,au: -0.297697550347  -0.000474411194 
 E6   /kcal   :  -0.202931793 
 E8   /kcal   :  -0.094765758 
 % E8         :  31.832898040 

-------------------------   ----------------
Dispersion correction           -0.000474411
-------------------------   ----------------


-------------------------   --------------------
FINAL SINGLE POINT ENERGY      -230.587705258112
-------------------------   --------------------


                            ***************************************
                            *     ORCA property calculations      *
                            ***************************************

                                    ---------------------
                                    Active property flags
                                    ---------------------
   (+) Dipole Moment


------------------------------------------------------------------------------
                       ORCA ELECTRIC PROPERTIES CALCULATION
------------------------------------------------------------------------------

Dipole Moment Calculation                       ... on
Quadrupole Moment Calculation                   ... off
Polarizability Calculation                      ... off
GBWName                                         ... Scan_44.gbw
Electron density file                           ... Scan_44.scfp.tmp

-------------
DIPOLE MOMENT
-------------
                                X             Y             Z
Electronic contribution:     -0.00123       0.00126      -0.00000
Nuclear contribution   :      0.00016      -0.00021       0.00000
                        -----------------------------------------
Total Dipole Moment    :     -0.00108       0.00106       0.00000
                        -----------------------------------------
Magnitude (a.u.)       :      0.00151
Magnitude (Debye)      :      0.00384


Timings for individual modules:

Sum of individual times         ...      418.712 sec (=   6.979 min)
GTO integral calculation        ...        1.725 sec (=   0.029 min)   0.4 %
SCF iterations                  ...      416.986 sec (=   6.950 min)  99.6 %
                             ****ORCA TERMINATED NORMALLY****
TOTAL RUN TIME: 0 days 0 hours 7 minutes 0 seconds 805 msec
