
                                 *****************
                                 * O   R   C   A *
                                 *****************

           --- An Ab Initio, DFT and Semiempirical electronic structure package ---

                  #######################################################
                  #                        -***-                        #
                  #  Department of molecular theory and spectroscopy    #
                  #              Directorship: Frank Neese              #
                  # Max Planck Institute for Chemical Energy Conversion #
                  #                  D-45470 Muelheim/Ruhr              #
                  #                       Germany                       #
                  #                                                     #
                  #                  All rights reserved                #
                  #                        -***-                        #
                  #######################################################


                         Program Version 4.0.0.2 - RELEASE -


 With contributions from (in alphabetic order):
   Daniel Aravena         : Magnetic Properties
   Michael Atanasov       : Ab Initio Ligand Field Theory
   Ute Becker             : Parallelization
   Martin Brehm           : Molecular dynamics
   Dmytro Bykov           : SCF Hessian
   Vijay G. Chilkuri      : MRCI spin determinant printing
   Dipayan Datta          : RHF DLPNO-CCSD density
   Achintya Kumar Dutta   : EOM-CC, STEOM-CC
   Dmitry Ganyushin       : Spin-Orbit,Spin-Spin,Magnetic field MRCI
   Yang Guo               : DLPNO-NEVPT2, CIM, IAO-localization
   Andreas Hansen         : Spin unrestricted coupled pair/coupled cluster methods
   Lee Huntington         : MR-EOM, pCC
   Robert Izsak           : Overlap fitted RIJCOSX, COSX-SCS-MP3, EOM
   Christian Kollmar      : KDIIS, OOCD, Brueckner-CCSD(T), CCSD density
   Simone Kossmann        : Meta GGA functionals, TD-DFT gradient, OOMP2, MP2 Hessian
   Martin Krupicka        : AUTO-CI
   Dagmar Lenk            : GEPOL surface
   Dimitrios Liakos       : Extrapolation schemes; parallel MDCI
   Dimitrios Manganas     : ROCIS; embedding schemes
   Dimitrios Pantazis     : SARC Basis sets
   Taras Petrenko         : DFT Hessian,TD-DFT gradient, ASA, ECA, R-Raman, ABS, FL, XAS/XES, NRVS
   Peter Pinski           : DLPNO-MP2
   Christoph Reimann      : Effective Core Potentials
   Marius Retegan         : Local ZFS, SOC
   Christoph Riplinger    : Optimizer, TS searches, QM/MM, DLPNO-CCSD(T), (RO)-DLPNO pert. Triples
   Tobias Risthaus        : Range-separated hybrids, TD-DFT gradient, RPA, STAB
   Michael Roemelt        : Restricted open shell CIS
   Masaaki Saitow         : Open-shell DLPNO
   Barbara Sandhoefer     : DKH picture change effects
   Kantharuban Sivalingam : CASSCF convergence, NEVPT2, FIC-MRCI
   Georgi Stoychev        : AutoAux
   Boris Wezisla          : Elementary symmetry handling
   Frank Wennmohs         : Technical directorship


 We gratefully acknowledge several colleagues who have allowed us to
 interface, adapt or use parts of their codes:
   Stefan Grimme, W. Hujo, H. Kruse,             : VdW corrections, initial TS optimization,
                  C. Bannwarth                     DFT functionals, gCP, sTDA/sTD-DF
   Ed Valeev                                     : LibInt (2-el integral package), F12 methods
   Garnet Chan, S. Sharma, J. Yang, R. Olivares  : DMRG
   Ulf Ekstrom                                   : XCFun DFT Library
   Mihaly Kallay                                 : mrcc  (arbitrary order and MRCC methods)
   Jiri Pittner, Ondrej Demel                    : Mk-CCSD
   Frank Weinhold                                : gennbo (NPA and NBO analysis)
   Christopher J. Cramer and Donald G. Truhlar   : smd solvation model


 Your calculation uses the libint2 library for the computation of 2-el integrals
 For citations please refer to: http://libint.valeyev.net

 This ORCA versions uses:
   CBLAS   interface :  Fast vector & matrix operations
   LAPACKE interface :  Fast linear algebra routines
   SCALAPACK package :  Parallel linear algebra routines


Your calculation utilizes the atom-pairwise dispersion correction
with the zero-damping scheme (D30)
Cite in your paper:
S.Grimme, J.Antony, S.Ehrlich and H.Krieg, J.Chem.Phys., 132, (2010), 154104 
   

XCFun DFT library Copyright 2009-2010 Ulf Ekstrom and contributors.
See http://admol.org/xcfun for more information. This is free soft-
ware; see the source code for copying conditions. There is ABSOLUTELY
NO WARRANTY; not even for MERCHANTABILITY or FITNESS FOR A PARTICULAR
PURPOSE. For details see the documentation. Scientific users of this 
library should cite U. Ekstrom, L. Visscher, R. Bast, A. J. Thorvald-
sen and K. Ruud; J.Chem.Theor.Comp. 2010, DOI: 10.1021/ct100117s
XCFun Version 0.99 
Your calculation utilizes the basis: 6-31G(d)
   H-He, Li-Ne : W. J. Hehre, R. Ditchfield and J.A. Pople, J. Chem. Phys. 56, 2257 (1972).
                 Note: He and Ne are unpublished basis sets taken from the Gaussian program.
                 Note: Li and B from J. D. Dill and J. A. Pople, J. Chem. Phys. 62, 2921 (1975).
   Na - Ar     : M. M. Francl, W. J. Pietro, W. J. Hehre, J. S. Binkley, M. S. Gordon, 
                 D. J. DeFrees and J. A. Pople, J. Chem. Phys. 77, 3654 (1982).
   K - Zn      : V. A. Rassolov, J. A. Pople, M. A. Ratner, and T. L. Windus, J. Chem. Phys. 109, 1223 (1998).

================================================================================
                                        WARNINGS
                       Please study these warnings very carefully!
================================================================================

Warning: TCutStore was < 0. Adjusted to Thresh (uncritical)

INFO   : the flag for use of LIBINT has been found!

================================================================================
                                       INPUT FILE
================================================================================
NAME = initial45.inp
|  1> ! WB97X-D3 6-31G(d) VerySlowConv
|  2> ! KDIIS NOSOSCF
|  3> %base "Scan_45"
|  4> 
|  5> %scf
|  6> maxiter 999
|  7> end
|  8> 
|  9> * xyz 0 1
| 10> C          1.459517757301   -2.844710581651   -0.000019347429
| 11> H          6.444824956961   -3.226533695416    0.000004389070
| 12> C          0.882785067296   -1.642340907172   -0.000178352230
| 13> H          3.706123438505    2.484139178815    0.000046459166
| 14> C         -0.446859295098   -1.540610093996   -0.000157980990
| 15> H         -2.608902621016    2.967675785251    0.000040826167
| 16> C         -1.199775345646   -2.641257859649    0.000019316069
| 17> H         -6.185095795161   -2.259604528990   -0.000004304423
| 18> C         -0.623055124803   -3.843636866780    0.000178323287
| 19> H         -3.446224566562   -7.970232295326   -0.000046308326
| 20> C          0.706598587267   -3.945363456106    0.000157950227
| 21> H          2.868672940955   -8.453634678979   -0.000040970589
| 22> **                         ****END OF INPUT****
================================================================================

                       ****************************
                       * Single Point Calculation *
                       ****************************

---------------------------------
CARTESIAN COORDINATES (ANGSTROEM)
---------------------------------
  C      1.459518   -2.844711   -0.000019
  H      6.444825   -3.226534    0.000004
  C      0.882785   -1.642341   -0.000178
  H      3.706123    2.484139    0.000046
  C     -0.446859   -1.540610   -0.000158
  H     -2.608903    2.967676    0.000041
  C     -1.199775   -2.641258    0.000019
  H     -6.185096   -2.259605   -0.000004
  C     -0.623055   -3.843637    0.000178
  H     -3.446225   -7.970232   -0.000046
  C      0.706599   -3.945363    0.000158
  H      2.868673   -8.453635   -0.000041

----------------------------
CARTESIAN COORDINATES (A.U.)
----------------------------
  NO LB      ZA    FRAG     MASS         X           Y           Z
   0 C     6.0000    0    12.011    2.758089   -5.375724   -0.000037
   1 H     1.0000    0     1.008   12.178954   -6.097265    0.000008
   2 C     6.0000    0    12.011    1.668222   -3.103575   -0.000337
   3 H     1.0000    0     1.008    7.003558    4.694343    0.000088
   4 C     6.0000    0    12.011   -0.844442   -2.911331   -0.000299
   5 H     1.0000    0     1.008   -4.930111    5.608094    0.000077
   6 C     6.0000    0    12.011   -2.267247   -4.991254    0.000037
   7 H     1.0000    0     1.008  -11.688137   -4.270034   -0.000008
   8 C     6.0000    0    12.011   -1.177404   -7.263421    0.000337
   9 H     1.0000    0     1.008   -6.512421  -15.061556   -0.000088
  10 C     6.0000    0    12.011    1.335278   -7.455656    0.000298
  11 H     1.0000    0     1.008    5.421006  -15.975054   -0.000077

--------------------------------
INTERNAL COORDINATES (ANGSTROEM)
--------------------------------
 C      0   0   0     0.000000000000     0.00000000     0.00000000
 H      1   0   0     4.999907675723     0.00000000     0.00000000
 C      1   2   0     1.333534197203   120.00504314     0.00000000
 H      3   1   2     4.999907750042   119.99473088     0.00000000
 C      3   1   2     1.333530385560   120.00049203   180.00132404
 H      5   3   1     4.999907294309   119.99619138   179.98948076
 C      5   3   1     1.333532194828   119.99955141     0.00000000
 H      7   5   3     4.999907924124   119.99695181   180.00132274
 C      7   5   3     1.333537219279   120.00061302     0.00000000
 H      9   7   5     4.999907556969   119.99773137   180.01176798
 C      1   2   3     1.333538172714   119.99498699   180.00122076
 H     11   1   2     4.999907496087   120.00387647     0.00000000

---------------------------
INTERNAL COORDINATES (A.U.)
---------------------------
 C      0   0   0     0.000000000000     0.00000000     0.00000000
 H      1   0   0     9.448456202007     0.00000000     0.00000000
 C      1   2   0     2.520014422932   120.00504314     0.00000000
 H      3   1   2     9.448456342449   119.99473088     0.00000000
 C      3   1   2     2.520007219970   120.00049203   180.00132404
 H      5   3   1     9.448455481240   119.99619138   179.98948076
 C      5   3   1     2.520010638993   119.99955141     0.00000000
 H      7   5   3     9.448456671416   119.99695181   180.00132274
 C      7   5   3     2.520020133828   120.00061302     0.00000000
 H      9   7   5     9.448455977595   119.99773137   180.01176798
 C      1   2   3     2.520021935559   119.99498699   180.00122076
 H     11   1   2     9.448455862545   120.00387647     0.00000000

---------------------
BASIS SET INFORMATION
---------------------
There are 2 groups of distinct atoms

 Group   1 Type C   : 10s4p1d contracted to 3s2p1d pattern {631/31/1}
 Group   2 Type H   : 4s contracted to 2s pattern {31}

Atom   0C    basis set group =>   1
Atom   1H    basis set group =>   2
Atom   2C    basis set group =>   1
Atom   3H    basis set group =>   2
Atom   4C    basis set group =>   1
Atom   5H    basis set group =>   2
Atom   6C    basis set group =>   1
Atom   7H    basis set group =>   2
Atom   8C    basis set group =>   1
Atom   9H    basis set group =>   2
Atom  10C    basis set group =>   1
Atom  11H    basis set group =>   2
------------------------------------------------------------------------------
                           ORCA GTO INTEGRAL CALCULATION
------------------------------------------------------------------------------

                         BASIS SET STATISTICS AND STARTUP INFO

 # of primitive gaussian shells          ...  114
 # of primitive gaussian functions       ...  186
 # of contracted shells                  ...   48
 # of contracted basis functions         ...   96
 Highest angular momentum                ...    2
 Maximum contraction depth               ...    6
 Integral package used                   ... LIBINT
 Integral threshhold            Thresh   ...  1.000e-10
 Primitive cut-off              TCut     ...  1.000e-11


------------------------------ INTEGRAL EVALUATION ----------------------------


 * One electron integrals 
 Pre-screening matrix                    ... done
 Shell pair data                         ... done (   0.001 sec)

-------------------------------------------------------------------------------
                                 ORCA SCF
-------------------------------------------------------------------------------

------------
SCF SETTINGS
------------
Hamiltonian:
 Density Functional     Method          .... DFT(GTOs)
 Exchange Functional    Exchange        .... WB97X-D3
 Correlation Functional Correlation     .... WB97X-D3
 Gradients option       PostSCFGGA      .... off
 Hybrid DFT is turned on
   Fraction HF Exchange ScalHFX         ....  0.195728
   Scaling of DF-GGA-X  ScalDFX         ....  0.000000
   Scaling of DF-GGA-C  ScalDFC         ....  1.000000
   Scaling of DF-LDA-C  ScalLDAC        ....  1.000000
   Perturbative correction              ....  0.000000
 Long-range corrected/Screened/Range-Separated Hybrid DFT is turned on
   Amount of maximum screened exact exchange              ....  0.804272
   Range separation parameter mu (erf(mu*r12)/r12)        ....  0.250000


General Settings:
 Integral files         IntName         .... Scan_45
 Hartree-Fock type      HFTyp           .... RHF
 Total Charge           Charge          ....    0
 Multiplicity           Mult            ....    1
 Number of Electrons    NEL             ....   42
 Basis Dimension        Dim             ....   96
 Nuclear Repulsion      ENuc            ....    175.7983963775 Eh

Convergence Acceleration:
 DIIS                   CNVDIIS         .... on
   Start iteration      DIISMaxIt       ....     0
   Startup error        DIISStart       ....  0.200000
   # of expansion vecs  DIISMaxEq       ....     5
   Bias factor          DIISBfac        ....   1.050
   Max. coefficient     DIISMaxC        ....  10.000
 Newton-Raphson         CNVNR           .... off
 SOSCF                  CNVSOSCF        .... off
 Level Shifting         CNVShift        .... off
 Zerner damping         CNVZerner       .... off
 Static damping         CNVDamp         .... off
 Fernandez-Rico         CNVRico         .... off

SCF Procedure:
 Maximum # iterations   MaxIter         ....   999
 SCF integral mode      SCFMode         .... Direct
   Integral package                     .... LIBINT
 Reset frequeny         DirectResetFreq ....    20
 Integral Threshold     Thresh          ....  1.000e-10 Eh
 Primitive CutOff       TCut            ....  1.000e-11 Eh

Convergence Tolerance:
 Convergence Check Mode ConvCheckMode   .... All-Criteria
 Convergence forced     ConvForced      .... 0
 Energy Change          TolE            ....  1.000e-06 Eh
 Max Density Change     TolMaxP         ....  1.000e-05
 RMS Density Change     TolRMSP         ....  1.000e-06
 DIIS Error             TolErr          ....  1.000e-06


Diagonalization of the overlap matrix:
Smallest eigenvalue                        ... 1.268e-03
Time for diagonalization                   ...    0.003 sec
Threshold for overlap eigenvalues          ... 1.000e-08
Number of eigenvalues below threshold      ... 0
Time for construction of square roots      ...    0.007 sec
Total time needed                          ...    0.010 sec

-------------------
DFT GRID GENERATION
-------------------

General Integration Accuracy     IntAcc      ...  4.340
Radial Grid Type                 RadialGrid  ... Gauss-Chebyshev
Angular Grid (max. acc.)         AngularGrid ... Lebedev-110
Angular grid pruning method      GridPruning ... 3 (G Style)
Weight generation scheme         WeightScheme... Becke
Basis function cutoff            BFCut       ...    1.0000e-10
Integration weight cutoff        WCut        ...    1.0000e-14
Grids for H and He will be reduced by one unit

# of grid points (after initial pruning)     ...  14700 (   0.0 sec)
# of grid points (after weights+screening)   ...  14202 (   0.0 sec)
nearest neighbour list constructed           ...    0.0 sec
Grid point re-assignment to atoms done       ...    0.0 sec
Grid point division into batches done        ...    0.0 sec
Reduced shell lists constructed in    0.2 sec

Total number of grid points                  ...    14202
Total number of batches                      ...      226
Average number of points per batch           ...       62
Average number of grid points per atom       ...     1184
Average number of shells per batch           ...    26.20 (54.59%)
Average number of basis functions per batch  ...    57.66 (60.06%)
Average number of large shells per batch     ...    19.04 (72.66%)
Average number of large basis fcns per batch ...    44.21 (76.68%)
Maximum spatial batch extension              ...  16.46, 21.59, 22.46 au
Average spatial batch extension              ...   4.43,  5.02,  5.75 au

Time for grid setup =    0.254 sec

------------------------------
INITIAL GUESS: MODEL POTENTIAL
------------------------------
Loading Hartree-Fock densities                     ... done
Calculating cut-offs                               ... done
Setting up the integral package                    ... done
Initializing the effective Hamiltonian             ... done
Starting the Coulomb interaction                   ... done (   0.1 sec)
Reading the grid                                   ... done
Mapping shells                                     ... done
Starting the XC term evaluation                    ... done (   0.2 sec)
  promolecular density results
     # of electrons  =     41.995477420
     EX              =    -32.042486223
     EC              =     -1.258169540
     EX+EC           =    -33.300655763
Transforming the Hamiltonian                       ... done (   0.0 sec)
Diagonalizing the Hamiltonian                      ... done (   0.0 sec)
Back transforming the eigenvectors                 ... done (   0.0 sec)
Now organizing SCF variables                       ... done
                      ------------------
                      INITIAL GUESS DONE (   0.8 sec)
                      ------------------
--------------
SCF ITERATIONS
--------------
ITER       Energy         Delta-E        Max-DP      RMS-DP      [F,P]   Gradient Norm
               ***  Starting incremental Fock matrix formation  ***
                             ****Resetting KDIIS****
                             ****Turning on KDIIS(Cayley)****
  0   -229.1746989125   0.000000000000 0.03977490  0.00247014  0.1629271   0.111900316
  1   -229.2799160582  -0.105217145707 0.05728909  0.00380414  0.1655132   0.096858560
  2   -229.4179648934  -0.138048835187 0.06857973  0.00489374  0.1725040   0.081274997
  3   -229.5286334815  -0.110668588113 0.12562340  0.00744195  0.1742394   0.059107857
  4   -229.6455385652  -0.116905083656 0.03475652  0.00229116  0.1667976   0.039282644
  5   -229.6949639292  -0.049425363987 0.11879951  0.00349665  0.1578860   0.040663932
  6   -229.7821372974  -0.087173368280 0.06679518  0.00321666  0.1160582   0.035652005
  7   -229.7062986864   0.075838611015 0.06094720  0.00348502  0.1472114   0.036951204
  8   -229.6374326981   0.068865988300 0.14065301  0.00371346  0.1655885   0.038180751
  9   -229.7529734143  -0.115540716176 0.12188549  0.00273860  0.1363170   0.034607572
 10   -229.8144519614  -0.061478547111 0.15665688  0.00397240  0.1101834   0.030334630
 11   -229.6907031963   0.123748765152 0.04476663  0.00178611  0.1592658   0.038738497
 12   -229.6699109570   0.020792239261 0.08901896  0.00234887  0.1655666   0.038034438
 13   -229.5901653360   0.079745620977 0.22671487  0.00576854  0.1699244   0.039809954
 14   -229.7922054782  -0.202040142178 0.05105577  0.00172395  0.1316745   0.035335531
 15   -229.7354113992   0.056794078977 0.09728139  0.00364750  0.1476748   0.038640355
 16   -229.6599398561   0.075471543070 0.20838185  0.00479871  0.1678920   0.037806027
 17   -229.8082044269  -0.148264570746 0.07021309  0.00164330  0.1143740   0.027780711
 18   -229.7622676977   0.045936729155 0.01305219  0.00098794  0.1386220   0.032911034
 19   -229.7683725665  -0.006104868803 0.01189358  0.00037438  0.1367131   0.031647158
               *** Restarting incremental Fock matrix formation ***
                             ****Resetting KDIIS****
 20   -229.7767695074  -0.008396940859 0.01734664  0.00040318  0.1333726   0.030611404
 21   -229.7887293666  -0.011959859242 0.02131187  0.00051909  0.1280021   0.029392440
 22   -229.8021898292  -0.013460462533 0.02164084  0.00066825  0.1210467   0.027759245
 23   -229.8123038315  -0.010114002287 0.03528331  0.00105165  0.1128781   0.025760685
 24   -229.8290465568  -0.016742725362 0.01611560  0.00073270  0.0990584   0.023473564
 25   -229.8303430156  -0.001296458814 0.15402163  0.00358667  0.0965164   0.022259214
 26   -229.8863538097  -0.056010794075 0.13012994  0.00435257  0.0401413   0.012289183
 27   -229.9175155151  -0.031161705386 0.02476118  0.00139739  0.0287058   0.016162750
 28   -229.9296838803  -0.012168365210 0.02604756  0.00114310  0.0386074   0.015108755
 29   -229.9282466740   0.001437206323 0.04737571  0.00160053  0.0441678   0.016564785
 30   -229.9323334005  -0.004086726510 0.04091279  0.00209540  0.0438031   0.016055850
 31   -229.9160773118   0.016256088658 0.05044756  0.00205562  0.0342212   0.015892713
 32   -229.9445812624  -0.028503950573 0.04845183  0.00269808  0.0544313   0.020251159
 33   -229.9447714877  -0.000190225273 0.01611488  0.00091052  0.0625727   0.032297742
 34   -229.9635487940  -0.018777306285 0.02693083  0.00162757  0.0768725   0.028383735
 35   -229.9440561222   0.019492671727 0.02873014  0.00144288  0.0523176   0.027369354
 36   -229.9336887082   0.010367414034 0.07197858  0.00485441  0.0463789   0.024861829
 37   -230.0580085172  -0.124319809003 0.05927499  0.00389565  0.1093228   0.035242208
 38   -230.1609903758  -0.102981858565 0.05525084  0.00364115  0.1211053   0.034845824
 39   -230.2111492079  -0.050158832100 0.02409279  0.00096080  0.1097519   0.028923412
               *** Restarting incremental Fock matrix formation ***
                             ****Resetting KDIIS****
 40   -230.1830256232   0.028123584701 0.01302226  0.00054939  0.1185766   0.030940638
 41   -230.1997718232  -0.016746200006 0.02678100  0.00108974  0.1133280   0.029601623
 42   -230.2310212912  -0.031249468002 0.08183008  0.00320674  0.1012576   0.027362495
 43   -230.3038141401  -0.072792848870 0.16638702  0.00597626  0.0640656   0.023049474
 44   -230.3658213432  -0.062007203129 0.04254627  0.00279312  0.0235794   0.018453637
 45   -230.3741180194  -0.008296676257 0.01060333  0.00093045  0.0304446   0.011327271
 46   -230.3779295298  -0.003811510360 0.06987534  0.00273241  0.0295493   0.008572771
 47   -230.3877564419  -0.009826912056 0.05083389  0.00220485  0.0245961   0.008003627
 48   -230.3982351318  -0.010478689895 0.02124443  0.00099604  0.0219668   0.009052347
 49   -230.3953342278   0.002900903956 0.00121846  0.00006157  0.0156166   0.006824414
 50   -230.3953658371  -0.000031609322 0.00498013  0.00028075  0.0157377   0.007025374
 51   -230.3955275815  -0.000161744432 0.03655339  0.00153156  0.0159192   0.007054001
 52   -230.4038095207  -0.008281939192 0.00632554  0.00035653  0.0178041   0.006981133
 53   -230.4034262013   0.000383319463 0.02082365  0.00089110  0.0170700   0.006741794
 54   -230.4085564974  -0.005130296141 0.00519642  0.00022616  0.0169477   0.007058687
 55   -230.4071476301   0.001408867361 0.00602796  0.00030863  0.0165940   0.007024565
 56   -230.4058260906   0.001321539449 0.02531974  0.00116543  0.0166609   0.007645984
 57   -230.4117553849  -0.005929294307 0.01531658  0.00076556  0.0184270   0.008595831
 58   -230.4112707749   0.000484609978 0.03203410  0.00114175  0.0172612   0.007355323
 59   -230.4187318367  -0.007461061770 0.01448621  0.00077621  0.0186615   0.008121438
               *** Restarting incremental Fock matrix formation ***
                             ****Resetting KDIIS****
 60   -230.4236713281  -0.004939491385 0.00566488  0.00019539  0.0190072   0.007357893
 61   -230.4252157465  -0.001544418442 0.01122405  0.00038556  0.0188333   0.007201714
 62   -230.4282396004  -0.003023853859 0.02050703  0.00078570  0.0186062   0.007108384
 63   -230.4225003102   0.005739290228 0.08310398  0.00298733  0.0165645   0.006845870
 64   -230.4040565783   0.018443731883 0.05095804  0.00250150  0.0135771   0.006146023
 65   -230.4086302031  -0.004573624843 0.03284868  0.00153193  0.0149825   0.009459609
 66   -230.4024168472   0.006213355903 0.01379864  0.00092284  0.0169082   0.006085285
 67   -230.4075887399  -0.005171892683 0.01047599  0.00069897  0.0167173   0.006089516
 68   -230.4115968510  -0.004008111046 0.03712839  0.00149251  0.0179069   0.005710319
 69   -230.4173968164  -0.005799965403 0.01564241  0.00058810  0.0148088   0.005423925
 70   -230.4192532315  -0.001856415143 0.01557726  0.00075843  0.0145874   0.005604351
 71   -230.4230980557  -0.003844824217 0.01750181  0.00091104  0.0137071   0.005831541
 72   -230.4257578812  -0.002659825440 0.02077840  0.00136675  0.0154302   0.005331562
 73   -230.4335098572  -0.007751976003 0.00300622  0.00015901  0.0164457   0.005493282
 74   -230.4344092376  -0.000899380432 0.01634478  0.00063691  0.0168562   0.005406015
 75   -230.4309607794   0.003448458238 0.05156802  0.00180392  0.0157435   0.005279133
 76   -230.4281463598   0.002814419507 0.06536673  0.00246943  0.0133388   0.006443631
 77   -230.4308203338  -0.002673973916 0.01739444  0.00092496  0.0100226   0.005204263
 78   -230.4285219481   0.002298385665 0.02270718  0.00134233  0.0095669   0.004319387
 79   -230.4337308916  -0.005208943472 0.01251732  0.00053645  0.0074748   0.003938652
               *** Restarting incremental Fock matrix formation ***
                             ****Resetting KDIIS****
 80   -230.4360771023  -0.002346210757 0.00257914  0.00010262  0.0083688   0.003914661
 81   -230.4365690695  -0.000491967154 0.00179406  0.00007274  0.0085388   0.003945909
 82   -230.4367382804  -0.000169210888 0.02197088  0.00093688  0.0085323   0.003968532
 83   -230.4327694904   0.003968789930 0.04593917  0.00180268  0.0070582   0.003315141
 84   -230.4290493840   0.003720106407 0.01288792  0.00047317  0.0057093   0.002841732
 85   -230.4302517465  -0.001202362474 0.02630695  0.00095268  0.0045635   0.002568394
 86   -230.4327176676  -0.002465921117 0.00182104  0.00008801  0.0056650   0.002790427
 87   -230.4328726542  -0.000154986598 0.01400216  0.00057224  0.0057698   0.002576747
 88   -230.4312994701   0.001573184156 0.00898663  0.00038978  0.0055249   0.002876350
 89   -230.4308745483   0.000424921753 0.01790856  0.00062491  0.0038491   0.002510934
 90   -230.4308405975   0.000033950764 0.00708560  0.00030743  0.0037823   0.002032621
 91   -230.4311210994  -0.000280501854 0.01490940  0.00068310  0.0037646   0.001851495
 92   -230.4321754000  -0.001054300609 0.00497302  0.00019910  0.0029324   0.001615210
 93   -230.4323791228  -0.000203722806 0.00814041  0.00026425  0.0032147   0.001686474
 94   -230.4327076227  -0.000328499870 0.00851662  0.00026494  0.0030531   0.001648729
 95   -230.4324419333   0.000265689357 0.00616317  0.00018534  0.0032825   0.001779747
 96   -230.4323835122   0.000058421101 0.00617294  0.00025890  0.0033728   0.001474339
 97   -230.4327840004  -0.000400488185 0.00363973  0.00015484  0.0039323   0.001574607
 98   -230.4330567214  -0.000272720992 0.00293127  0.00013037  0.0041966   0.001597567
 99   -230.4328528359   0.000203885502 0.00462591  0.00013515  0.0039621   0.001611137
               *** Restarting incremental Fock matrix formation ***
                             ****Resetting KDIIS****
100   -230.4328441811   0.000008654784 0.00089371  0.00004069  0.0038483   0.001607501
101   -230.4329250392  -0.000080858090 0.00144616  0.00006696  0.0039421   0.001592676
102   -230.4330553701  -0.000130330855 0.00712363  0.00026849  0.0040915   0.001597962
103   -230.4325928880   0.000462482087 0.01575529  0.00057111  0.0034001   0.001416741
104   -230.4320781605   0.000514727439 0.01126697  0.00057533  0.0022222   0.001066583
105   -230.4327372916  -0.000659131041 0.00332113  0.00017379  0.0022066   0.001179849
106   -230.4325823216   0.000154969962 0.00038041  0.00001599  0.0022103   0.001060566
107   -230.4325758042   0.000006517459 0.00149467  0.00005900  0.0021686   0.001060256
108   -230.4326433528  -0.000067548642 0.00105189  0.00004430  0.0023060   0.001076909
109   -230.4326680030  -0.000024650202 0.01206570  0.00035650  0.0022446   0.001119015
110   -230.4327291812  -0.000061178170 0.00327875  0.00014407  0.0031245   0.001124059
111   -230.4325673498   0.000161831369 0.00598844  0.00022943  0.0025896   0.001216154
112   -230.4328087762  -0.000241426407 0.00215574  0.00008411  0.0031599   0.001225400
113   -230.4328870467  -0.000078270495 0.00122175  0.00005168  0.0032276   0.001290245
114   -230.4329236516  -0.000036604853 0.00541867  0.00018411  0.0033407   0.001308605
115   -230.4330145790  -0.000090927418 0.00732781  0.00024713  0.0039527   0.001361753
116   -230.4329415848   0.000072994201 0.00689685  0.00024299  0.0031721   0.001333723
117   -230.4332004519  -0.000258867119 0.00253100  0.00012379  0.0030628   0.001609238
118   -230.4333760465  -0.000175594645 0.00033771  0.00001343  0.0034610   0.001640397
119   -230.4333580548   0.000017991788 0.01146494  0.00032116  0.0034277   0.001691916
               *** Restarting incremental Fock matrix formation ***
                             ****Resetting KDIIS****
120   -230.4330899296   0.000268125104 0.00093117  0.00004185  0.0034062   0.001931398
121   -230.4331665462  -0.000076616512 0.00238534  0.00008032  0.0036339   0.001660437
122   -230.4333080208  -0.000141474679 0.00598367  0.00016516  0.0040524   0.001533818
123   -230.4330753678   0.000232653014 0.02302402  0.00062070  0.0034217   0.001305315
124   -230.4325976286   0.000477739192 0.00278897  0.00009864  0.0014083   0.000733434
125   -230.4326795159  -0.000081887236 0.00448835  0.00014993  0.0014388   0.000677541
126   -230.4328107046  -0.000131188770 0.00134176  0.00004725  0.0014451   0.000696327
127   -230.4327687843   0.000041920296 0.00308912  0.00011184  0.0014346   0.000700263
128   -230.4326831064   0.000085677979 0.00496230  0.00014454  0.0014306   0.000694309
129   -230.4326442932   0.000038813135 0.00663988  0.00022373  0.0014103   0.000705828
130   -230.4327753633  -0.000131070072 0.00289735  0.00010565  0.0014364   0.000697415
131   -230.4327487405   0.000026622807 0.00488173  0.00014199  0.0014181   0.000601897
132   -230.4328450147  -0.000096274221 0.00130343  0.00003516  0.0014428   0.000562087
133   -230.4328678199  -0.000022805197 0.00181580  0.00005092  0.0014498   0.000566550
134   -230.4328331584   0.000034661517 0.00073266  0.00002860  0.0014479   0.000566417
135   -230.4328264123   0.000006746093 0.00268932  0.00010343  0.0014307   0.000552584
136   -230.4327958925   0.000030519784 0.00241776  0.00005956  0.0014080   0.000541550
137   -230.4328357388  -0.000039846247 0.00095486  0.00003415  0.0014199   0.000550413
138   -230.4328531858  -0.000017447022 0.00282083  0.00008768  0.0014164   0.000536413
139   -230.4329038399  -0.000050654071 0.00203277  0.00006912  0.0014491   0.000554618
               *** Restarting incremental Fock matrix formation ***
                             ****Resetting KDIIS****
140   -230.4328613926   0.000042447270 0.00052269  0.00001368  0.0014307   0.000596162
141   -230.4328711731  -0.000009780471 0.00123069  0.00003102  0.0014324   0.000563171
142   -230.4328930310  -0.000021857936 0.00079112  0.00002764  0.0014388   0.000546219
143   -230.4328776753   0.000015355680 0.00355336  0.00011715  0.0014239   0.000534776
144   -230.4328158577   0.000061817568 0.00458008  0.00011197  0.0014173   0.000493319
145   -230.4328859608  -0.000070103034 0.00246003  0.00005911  0.0014301   0.000497840
146   -230.4329227951  -0.000036834325 0.00182628  0.00004265  0.0014339   0.000487284
147   -230.4329503534  -0.000027558299 0.00101180  0.00002405  0.0014403   0.000485908
148   -230.4329350515   0.000015301891 0.00086031  0.00002855  0.0014424   0.000490236
149   -230.4329218206   0.000013230875 0.00261070  0.00006546  0.0014361   0.000504122
150   -230.4328844116   0.000037409007 0.00210482  0.00005565  0.0014371   0.000483101
151   -230.4329159161  -0.000031504515 0.00215606  0.00005016  0.0014432   0.000476592
152   -230.4329473061  -0.000031389913 0.00505090  0.00011398  0.0014502   0.000475574
153   -230.4330194354  -0.000072129383 0.00240157  0.00005425  0.0014615   0.000477082
154   -230.4329849747   0.000034460747 0.00402720  0.00009122  0.0014596   0.000481702
155   -230.4329289150   0.000056059672 0.00158881  0.00003684  0.0014487   0.000479703
156   -230.4329078643   0.000021050702 0.00022501  0.00000745  0.0014478   0.000476515
                          ***Energy convergence achieved***
157   -230.4329084063  -0.000000542000 0.00449847  0.00010291  0.0014472   0.000476148
158   -230.4329739185  -0.000065512167 0.00060205  0.00001496  0.0014580   0.000482719
159   -230.4329647338   0.000009184734 0.01298111  0.00028753  0.0014566   0.000484607
               *** Restarting incremental Fock matrix formation ***
                             ****Resetting KDIIS****
160   -230.4327848124   0.000179921354 0.00051111  0.00001162  0.0014239   0.000483749
161   -230.4327921335  -0.000007321065 0.00124082  0.00002773  0.0014264   0.000475101
162   -230.4328095304  -0.000017396975 0.00059605  0.00001407  0.0014298   0.000471023
163   -230.4328180804  -0.000008549972 0.00394121  0.00008808  0.0014316   0.000467116
164   -230.4327646681   0.000053412297 0.00318610  0.00008032  0.0014206   0.000461988
165   -230.4328106245  -0.000045956341 0.00019859  0.00000912  0.0014206   0.000466653
166   -230.4328087398   0.000001884643 0.00207641  0.00004599  0.0014213   0.000461396
167   -230.4328367277  -0.000027987936 0.00120084  0.00002788  0.0014259   0.000463967
168   -230.4328533700  -0.000016642269 0.00078303  0.00001950  0.0014305   0.000469757
169   -230.4328421904   0.000011179610 0.00114593  0.00003591  0.0014288   0.000462567
170   -230.4328320173   0.000010173084 0.00375176  0.00008399  0.0014243   0.000466671
171   -230.4327797845   0.000052232821 0.00468207  0.00010528  0.0014149   0.000469017
172   -230.4328421890  -0.000062404462 0.00214058  0.00005260  0.0014316   0.000484984
173   -230.4328134086   0.000028780334 0.01636806  0.00035120  0.0014168   0.000476160
174   -230.4326054786   0.000207930022 0.00914177  0.00019787  0.0013663   0.000530660
175   -230.4327205643  -0.000115085662 0.02218940  0.00047487  0.0013896   0.000480769
176   -230.4324617749   0.000258789396 0.00282909  0.00006381  0.0012900   0.000483799
177   -230.4324339561   0.000027818744 0.00236475  0.00005044  0.0012730   0.000466877
178   -230.4324597800  -0.000025823868 0.01081006  0.00022677  0.0012798   0.000466765
179   -230.4325847115  -0.000124931503 0.00107205  0.00003314  0.0013257   0.000473781
               *** Restarting incremental Fock matrix formation ***
                             ****Resetting KDIIS****
180   -230.4325960844  -0.000011372914 0.00049910  0.00001177  0.0013287   0.000499409
181   -230.4326034660  -0.000007381593 0.00105540  0.00002457  0.0013294   0.000484649
182   -230.4326188190  -0.000015353027 0.00254107  0.00006736  0.0013375   0.000475305
183   -230.4325800933   0.000038725707 0.00493897  0.00014164  0.0013249   0.000459216
184   -230.4325150496   0.000065043705 0.00379618  0.00008110  0.0013195   0.000432250
185   -230.4324682088   0.000046840868 0.00499135  0.00010841  0.0013099   0.000438554
186   -230.4325292121  -0.000061003367 0.01798207  0.00038123  0.0013220   0.000450087
187   -230.4323170480   0.000212164155 0.00067912  0.00002988  0.0012885   0.000466859
188   -230.4323264820  -0.000009434035 0.00109900  0.00003464  0.0012791   0.000451867
189   -230.4323171723   0.000009309737 0.00518604  0.00010864  0.0012765   0.000418483
190   -230.4323765204  -0.000059348112 0.00353656  0.00007637  0.0012878   0.000425834
191   -230.4323364059   0.000040114497 0.00028419  0.00000952  0.0012727   0.000434007
192   -230.4323330030   0.000003402866 0.00252687  0.00005799  0.0012730   0.000434235
193   -230.4323080340   0.000024969033 0.00260649  0.00005661  0.0012691   0.000433908
194   -230.4322759251   0.000032108832 0.00623444  0.00013500  0.0012637   0.000444342
195   -230.4323423654  -0.000066440279 0.00084075  0.00003065  0.0012782   0.000477960
                          ***Energy convergence achieved***
196   -230.4323427088  -0.000000343368 0.00074931  0.00001733  0.0012696   0.000419119
197   -230.4323517836  -0.000009074779 0.00039399  0.00000870  0.0012691   0.000416992
198   -230.4323564945  -0.000004710928 0.00405675  0.00009058  0.0012699   0.000417869
199   -230.4324053717  -0.000048877154 0.00049823  0.00001869  0.0012825   0.000417109
               *** Restarting incremental Fock matrix formation ***
                             ****Resetting KDIIS****
                          ***Energy convergence achieved***
200   -230.4324062490  -0.000000877297 0.00048467  0.00001034  0.0012879   0.000427889
201   -230.4324120680  -0.000005819095 0.00112548  0.00002370  0.0012884   0.000422157
202   -230.4324253832  -0.000013315103 0.00468669  0.00009836  0.0012912   0.000419526
203   -230.4323707380   0.000054645107 0.03407774  0.00069885  0.0012743   0.000421286
204   -230.4320085234   0.000362214653 0.00211291  0.00005519  0.0011645   0.000394797
205   -230.4320362278  -0.000027704402 0.00047609  0.00001032  0.0011535   0.000402586
206   -230.4320406978  -0.000004469964 0.01553502  0.00031459  0.0011538   0.000407962
207   -230.4318829573   0.000157740467 0.01059820  0.00021060  0.0011294   0.000399555
208   -230.4317871094   0.000095847933 0.02211969  0.00043211  0.0010809   0.000419806
209   -230.4316133601   0.000173749293 0.00173435  0.00005203  0.0010014   0.000457076
210   -230.4316148439  -0.000001483826 0.01186449  0.00024459  0.0010092   0.000373597
211   -230.4315525557   0.000062288233 0.00197323  0.00004240  0.0009424   0.000362819
212   -230.4315361831   0.000016372550 0.01043317  0.00020179  0.0009435   0.000348086
213   -230.4316103653  -0.000074182182 0.00393748  0.00007707  0.0009531   0.000353338
214   -230.4315797353   0.000030629991 0.00646100  0.00013065  0.0009476   0.000364366
215   -230.4315431944   0.000036540890 0.00442598  0.00009055  0.0009297   0.000427142
216   -230.4315249713   0.000018223095 0.00552590  0.00014219  0.0009163   0.000395657
217   -230.4314610352   0.000063936121 0.01522883  0.00029536  0.0009368   0.000388764
218   -230.4315640264  -0.000102991184 0.00613799  0.00012485  0.0009624   0.000402422
219   -230.4315184708   0.000045555547 0.00118887  0.00003202  0.0009480   0.000329390
               *** Restarting incremental Fock matrix formation ***
                             ****Resetting KDIIS****
220   -230.4315294672  -0.000010996326 0.00033440  0.00000776  0.0009554   0.000325906
221   -230.4315326135  -0.000003146316 0.00079848  0.00001744  0.0009535   0.000310651
222   -230.4315395992  -0.000006985683 0.00093731  0.00002063  0.0009512   0.000305923
223   -230.4315478257  -0.000008226498 0.00032335  0.00001378  0.0009480   0.000300998
224   -230.4315460412   0.000001784469 0.00550041  0.00014376  0.0009466   0.000298156
225   -230.4315925631  -0.000046521897 0.00100218  0.00003456  0.0009279   0.000298045
226   -230.4315833705   0.000009192555 0.00380784  0.00007924  0.0009393   0.000293339
227   -230.4316133983  -0.000030027801 0.00484749  0.00009974  0.0009262   0.000289304
228   -230.4315761637   0.000037234668 0.00384507  0.00007921  0.0009344   0.000308272
229   -230.4315486551   0.000027508589 0.00089189  0.00002580  0.0009440   0.000283276
230   -230.4315569833  -0.000008328257 0.00027431  0.00001079  0.0009431   0.000284223
231   -230.4315582681  -0.000001284784 0.00265256  0.00006037  0.0009431   0.000305102
232   -230.4315371552   0.000021112870 0.00323767  0.00006537  0.0009418   0.000280516
233   -230.4315607349  -0.000023579640 0.00160152  0.00003313  0.0009406   0.000281154
234   -230.4315727319  -0.000011997044 0.00067999  0.00001392  0.0009389   0.000277870
235   -230.4315778345  -0.000005102545 0.00101977  0.00002423  0.0009379   0.000277649
236   -230.4315706230   0.000007211440 0.00025660  0.00000593  0.0009386   0.000279073
237   -230.4315685964   0.000002026637 0.00034170  0.00001422  0.0009390   0.000281172
238   -230.4315657409   0.000002855446 0.00242277  0.00004900  0.0009345   0.000282452
239   -230.4315836811  -0.000017940192 0.00181752  0.00003679  0.0009351   0.000282566
               *** Restarting incremental Fock matrix formation ***
                             ****Resetting KDIIS****
240   -230.4315972592  -0.000013578017 0.00034309  0.00000682  0.0009332   0.000279170
241   -230.4315998053  -0.000002546117 0.00044725  0.00000899  0.0009326   0.000278969
242   -230.4316031398  -0.000003334577 0.00639691  0.00012524  0.0009312   0.000278737
243   -230.4315570480   0.000046091845 0.01539675  0.00029908  0.0009333   0.000274437
244   -230.4314539544   0.000103093566 0.00693309  0.00016507  0.0009178   0.000265351
245   -230.4314276782   0.000026276219 0.00137518  0.00005660  0.0008921   0.000290735
246   -230.4314244975   0.000003180744 0.00019622  0.00000406  0.0009027   0.000263145
247   -230.4314258690  -0.000001371550 0.00199245  0.00003980  0.0009022   0.000263301
248   -230.4314389988  -0.000013129788 0.00413461  0.00007981  0.0009016   0.000270910
249   -230.4314639275  -0.000024928729 0.00304220  0.00006518  0.0009048   0.000266884
250   -230.4314500614   0.000013866122 0.00505365  0.00010618  0.0008963   0.000273330
251   -230.4314129972   0.000037064192 0.00454502  0.00009175  0.0008962   0.000293911
252   -230.4314382779  -0.000025280659 0.01048542  0.00020111  0.0009065   0.000266030
253   -230.4313762266   0.000062051288 0.00587164  0.00011546  0.0008954   0.000255620
254   -230.4313492352   0.000026991427 0.00358627  0.00007332  0.0008825   0.000286050
255   -230.4313684822  -0.000019247029 0.00608823  0.00012053  0.0008907   0.000261167
256   -230.4313433749   0.000025107337 0.00128847  0.00002786  0.0008918   0.000248602
257   -230.4313484773  -0.000005102413 0.00536688  0.00010246  0.0008931   0.000264611
258   -230.4313772797  -0.000028802386 0.00333805  0.00006430  0.0008970   0.000245961
259   -230.4313602745   0.000017005184 0.00111697  0.00002594  0.0008981   0.000261392
               *** Restarting incremental Fock matrix formation ***
                             ****Resetting KDIIS****
260   -230.4313669536  -0.000006679153 0.00026354  0.00000650  0.0008970   0.000272678
261   -230.4313691511  -0.000002197496 0.00059990  0.00001435  0.0008978   0.000261544
262   -230.4313739733  -0.000004822209 0.00078563  0.00002321  0.0008995   0.000257619
263   -230.4313670663   0.000006907084 0.00242030  0.00007456  0.0008988   0.000254741
264   -230.4313489635   0.000018102706 0.00240190  0.00005299  0.0008899   0.000230371
                           ***RMSP convergence achieved***
                           ***MAXP convergence achieved***
                 *** KDIIS - Everything but energy is converged ***
                 *** Energy is reasonable - Signaling convergence ***
                    *** KDIIS BlockDiag ( 0.001 sec) ***

               *****************************************************
               *                     SUCCESS                       *
               *           SCF CONVERGED AFTER 265 CYCLES          *
               *****************************************************

Setting up the final grid:

General Integration Accuracy     IntAcc      ...  4.670
Radial Grid Type                 RadialGrid  ... Gauss-Chebyshev
Angular Grid (max. acc.)         AngularGrid ... Lebedev-302
Angular grid pruning method      GridPruning ... 3 (G Style)
Weight generation scheme         WeightScheme... Becke
Basis function cutoff            BFCut       ...    1.0000e-10
Integration weight cutoff        WCut        ...    1.0000e-14
Grids for H and He will be reduced by one unit

# of grid points (after initial pruning)     ...  57636 (   0.0 sec)
# of grid points (after weights+screening)   ...  55350 (   0.1 sec)
nearest neighbour list constructed           ...    0.0 sec
Grid point re-assignment to atoms done       ...    0.0 sec
Grid point division into batches done        ...    0.2 sec
Reduced shell lists constructed in    1.0 sec

Total number of grid points                  ...    55350
Total number of batches                      ...      874
Average number of points per batch           ...       63
Average number of grid points per atom       ...     4612
Average number of shells per batch           ...    22.20 (46.24%)
Average number of basis functions per batch  ...    49.12 (51.16%)
Average number of large shells per batch     ...    15.99 (72.02%)
Average number of large basis fcns per batch ...    37.07 (75.48%)
Maximum spatial batch extension              ...  16.78, 19.28, 21.77 au
Average spatial batch extension              ...   2.95,  3.05,  3.22 au

Final grid set up in    1.1 sec
Final integration                            ... done (   1.0 sec)
Change in XC energy                          ...     0.000903816
Integrated number of electrons               ...    41.999990753
Previous integrated no of electrons          ...    41.998423134

----------------
TOTAL SCF ENERGY
----------------

Total Energy       :         -230.43046129 Eh           -6270.33163 eV

Components:
Nuclear Repulsion  :          175.79839638 Eh            4783.71756 eV
Electronic Energy  :         -406.22885767 Eh          -11054.04919 eV
One Electron Energy:         -656.17323823 Eh          -17855.38156 eV
Two Electron Energy:          249.94438056 Eh            6801.33237 eV

Virial components:
Potential Energy   :         -459.70499620 Eh          -12509.20890 eV
Kinetic Energy     :          229.27453491 Eh            6238.87727 eV
Virial Ratio       :            2.00504167


DFT components:
N(Alpha)           :       20.999995376472 electrons
N(Beta)            :       20.999995376472 electrons
N(Total)           :       41.999990752945 electrons
E(XC)              :      -22.992071904114 Eh       

---------------
SCF CONVERGENCE
---------------

  Last Energy change         ...   -1.6145e-05  Tolerance :   1.0000e-06
  Last MAX-Density change    ...    5.3691e-06  Tolerance :   1.0000e-05
  Last RMS-Density change    ...    2.9843e-07  Tolerance :   1.0000e-06
  Last DIIS Error            ...    9.0088e-04  Tolerance :   1.0000e-06

             **** THE GBW FILE WAS UPDATED (Scan_45.gbw) ****
             **** DENSITY FILE WAS UPDATED (Scan_45.scfp.tmp) ****
             **** ENERGY FILE WAS UPDATED (Scan_45.en.tmp) ****
----------------
ORBITAL ENERGIES
----------------

  NO   OCC          E(Eh)            E(eV) 
   0   2.0000     -10.396595      -282.9057 
   1   2.0000     -10.390885      -282.7503 
   2   2.0000     -10.377559      -282.3877 
   3   2.0000     -10.371373      -282.2194 
   4   2.0000     -10.364312      -282.0273 
   5   2.0000     -10.358933      -281.8809 
   6   2.0000      -1.054075       -28.6828 
   7   2.0000      -0.909423       -24.7467 
   8   2.0000      -0.898797       -24.4575 
   9   2.0000      -0.720191       -19.5974 
  10   2.0000      -0.712235       -19.3809 
  11   2.0000      -0.612986       -16.6802 
  12   2.0000      -0.541990       -14.7483 
  13   2.0000      -0.524598       -14.2750 
  14   2.0000      -0.401548       -10.9267 
  15   2.0000      -0.388682       -10.5766 
  16   2.0000      -0.367432        -9.9983 
  17   2.0000      -0.326556        -8.8861 
  18   2.0000      -0.251901        -6.8546 
  19   2.0000      -0.250058        -6.8044 
  20   2.0000      -0.212038        -5.7698 
  21   0.0000      -0.238721        -6.4959 
  22   0.0000      -0.209819        -5.7095 
  23   0.0000      -0.207984        -5.6595 
  24   0.0000      -0.124076        -3.3763 
  25   0.0000      -0.040444        -1.1005 
  26   0.0000      -0.031682        -0.8621 
  27   0.0000       0.049503         1.3470 
  28   0.0000       0.058457         1.5907 
  29   0.0000       0.262286         7.1372 
  30   0.0000       0.361825         9.8458 
  31   0.0000       0.363716         9.8972 
  32   0.0000       0.484191        13.1755 
  33   0.0000       0.489065        13.3081 
  34   0.0000       0.547170        14.8892 
  35   0.0000       0.547803        14.9065 
  36   0.0000       0.562021        15.2934 
  37   0.0000       0.571565        15.5531 
  38   0.0000       0.576773        15.6948 
  39   0.0000       0.583057        15.8658 
  40   0.0000       0.648010        17.6332 
  41   0.0000       0.652377        17.7521 
  42   0.0000       0.656131        17.8542 
  43   0.0000       0.659834        17.9550 
  44   0.0000       0.675606        18.3842 
  45   0.0000       0.737443        20.0668 
  46   0.0000       0.744263        20.2524 
  47   0.0000       0.752320        20.4717 
  48   0.0000       0.775591        21.1049 
  49   0.0000       0.777623        21.1602 
  50   0.0000       0.787134        21.4190 
  51   0.0000       0.826269        22.4839 
  52   0.0000       0.829639        22.5756 
  53   0.0000       0.841654        22.9026 
  54   0.0000       0.849410        23.1136 
  55   0.0000       0.852072        23.1861 
  56   0.0000       0.854006        23.2387 
  57   0.0000       0.855693        23.2846 
  58   0.0000       0.857963        23.3464 
  59   0.0000       0.936217        25.4757 
  60   0.0000       1.065806        29.0021 
  61   0.0000       1.069142        29.0928 
  62   0.0000       1.121762        30.5247 
  63   0.0000       1.236466        33.6460 
  64   0.0000       1.240861        33.7655 
  65   0.0000       1.296614        35.2827 
  66   0.0000       1.364534        37.1309 
  67   0.0000       1.430492        38.9257 
  68   0.0000       1.558338        42.4045 
  69   0.0000       1.561268        42.4843 
  70   0.0000       1.562925        42.5293 
  71   0.0000       1.584080        43.1050 
  72   0.0000       1.594344        43.3843 
  73   0.0000       1.772144        48.2225 
  74   0.0000       1.782527        48.5050 
  75   0.0000       1.870547        50.9002 
  76   0.0000       1.900205        51.7072 
  77   0.0000       2.185353        59.4665 
  78   0.0000       2.186506        59.4978 
  79   0.0000       2.254530        61.3489 
  80   0.0000       2.256529        61.4033 
  81   0.0000       2.260939        61.5233 
  82   0.0000       2.265894        61.6581 
  83   0.0000       2.408450        65.5373 
  84   0.0000       2.415751        65.7359 
  85   0.0000       2.471144        67.2433 
  86   0.0000       2.475758        67.3688 
  87   0.0000       2.477457        67.4150 
  88   0.0000       2.539977        69.1163 
  89   0.0000       2.800846        76.2149 
  90   0.0000       2.808593        76.4257 
  91   0.0000       2.825007        76.8723 
  92   0.0000       2.870464        78.1093 
  93   0.0000       2.879728        78.3614 
  94   0.0000       3.179768        86.5259 
  95   0.0000       3.472845        94.5009 

                    ********************************
                    * MULLIKEN POPULATION ANALYSIS *
                    ********************************

-----------------------
MULLIKEN ATOMIC CHARGES
-----------------------
   0 C :    0.004294
   1 H :    0.018278
   2 C :    0.001098
   3 H :   -0.018016
   4 C :    0.005811
   5 H :    0.151577
   6 C :    0.005966
   7 H :   -0.027308
   8 C :    0.000383
   9 H :    0.027008
  10 C :    0.028962
  11 H :   -0.198052
Sum of atomic charges:   -0.0000000

--------------------------------
MULLIKEN REDUCED ORBITAL CHARGES
--------------------------------
  0 C s       :     3.198315  s :     3.198315
      pz      :     0.970723  p :     2.759366
      px      :     0.936035
      py      :     0.852608
      dz2     :     0.003054  d :     0.038025
      dxz     :     0.004482
      dyz     :     0.008118
      dx2y2   :     0.009882
      dxy     :     0.012490
  1 H s       :     0.981722  s :     0.981722
  2 C s       :     3.167446  s :     3.167446
      pz      :     0.964477  p :     2.795350
      px      :     0.901226
      py      :     0.929647
      dz2     :     0.002884  d :     0.036105
      dxz     :     0.007099
      dyz     :     0.005248
      dx2y2   :     0.011464
      dxy     :     0.009409
  3 H s       :     1.018016  s :     1.018016
  4 C s       :     3.209509  s :     3.209509
      pz      :     1.038569  p :     2.746613
      px      :     0.878955
      py      :     0.829089
      dz2     :     0.002894  d :     0.038067
      dxz     :     0.007901
      dyz     :     0.004892
      dx2y2   :     0.011224
      dxy     :     0.011156
  5 H s       :     0.848423  s :     0.848423
  6 C s       :     3.190215  s :     3.190215
      pz      :     0.994594  p :     2.766601
      px      :     0.911484
      py      :     0.860523
      dz2     :     0.002959  d :     0.037218
      dxz     :     0.004180
      dyz     :     0.008317
      dx2y2   :     0.009079
      dxy     :     0.012684
  7 H s       :     1.027308  s :     1.027308
  8 C s       :     3.174919  s :     3.174919
      pz      :     0.942929  p :     2.787774
      px      :     0.877207
      py      :     0.967639
      dz2     :     0.002983  d :     0.036923
      dxz     :     0.007004
      dyz     :     0.005492
      dx2y2   :     0.011331
      dxy     :     0.010113
  9 H s       :     0.972992  s :     0.972992
 10 C s       :     3.237454  s :     3.237454
      pz      :     1.013340  p :     2.693336
      px      :     0.863201
      py      :     0.816795
      dz2     :     0.003070  d :     0.040248
      dxz     :     0.007467
      dyz     :     0.005168
      dx2y2   :     0.012138
      dxy     :     0.012404
 11 H s       :     1.198052  s :     1.198052


                     *******************************
                     * LOEWDIN POPULATION ANALYSIS *
                     *******************************

----------------------
LOEWDIN ATOMIC CHARGES
----------------------
   0 C :   -0.001093
   1 H :    0.018271
   2 C :   -0.026457
   3 H :   -0.018020
   4 C :    0.042220
   5 H :    0.151537
   6 C :    0.004728
   7 H :   -0.027316
   8 C :   -0.030968
   9 H :    0.027004
  10 C :    0.058178
  11 H :   -0.198085

-------------------------------
LOEWDIN REDUCED ORBITAL CHARGES
-------------------------------
  0 C s       :     2.986371  s :     2.986371
      pz      :     0.962155  p :     2.929034
      px      :     0.948614
      py      :     1.018265
      dz2     :     0.007045  d :     0.085688
      dxz     :     0.005829
      dyz     :     0.017630
      dx2y2   :     0.020558
      dxy     :     0.034625
  1 H s       :     0.981729  s :     0.981729
  2 C s       :     2.974947  s :     2.974947
      pz      :     0.958745  p :     2.969751
      px      :     1.020743
      py      :     0.990263
      dz2     :     0.006861  d :     0.081759
      dxz     :     0.014422
      dyz     :     0.009067
      dx2y2   :     0.031433
      dxy     :     0.019975
  3 H s       :     1.018020  s :     1.018020
  4 C s       :     2.985172  s :     2.985172
      pz      :     1.018211  p :     2.886188
      px      :     1.001395
      py      :     0.866582
      dz2     :     0.006662  d :     0.086420
      dxz     :     0.016260
      dyz     :     0.007766
      dx2y2   :     0.029500
      dxy     :     0.026232
  5 H s       :     0.848463  s :     0.848463
  6 C s       :     2.981389  s :     2.981389
      pz      :     0.983068  p :     2.929593
      px      :     0.923958
      py      :     1.022566
      dz2     :     0.006846  d :     0.084290
      dxz     :     0.005535
      dyz     :     0.018045
      dx2y2   :     0.018327
      dxy     :     0.035536
  7 H s       :     1.027316  s :     1.027316
  8 C s       :     2.979835  s :     2.979835
      pz      :     0.939904  p :     2.967922
      px      :     1.000744
      py      :     1.027275
      dz2     :     0.007059  d :     0.083211
      dxz     :     0.014038
      dyz     :     0.009426
      dx2y2   :     0.030825
      dxy     :     0.021863
  9 H s       :     0.972996  s :     0.972996
 10 C s       :     2.996935  s :     2.996935
      pz      :     0.996818  p :     2.854237
      px      :     0.994329
      py      :     0.863089
      dz2     :     0.006992  d :     0.090650
      dxz     :     0.015205
      dyz     :     0.007875
      dx2y2   :     0.031370
      dxy     :     0.029207
 11 H s       :     1.198085  s :     1.198085


                      *****************************
                      * MAYER POPULATION ANALYSIS *
                      *****************************

  NA   - Mulliken gross atomic population
  ZA   - Total nuclear charge
  QA   - Mulliken gross atomic charge
  VA   - Mayer's total valence
  BVA  - Mayer's bonded valence
  FA   - Mayer's free valence

  ATOM       NA         ZA         QA         VA         BVA        FA
  0 C      5.9957     6.0000     0.0043     3.9347     3.9347    -0.0000
  1 H      0.9817     1.0000     0.0183     0.9997     0.9997    -0.0000
  2 C      5.9989     6.0000     0.0011     3.9445     3.9445    -0.0000
  3 H      1.0180     1.0000    -0.0180     0.9997     0.9997    -0.0000
  4 C      5.9942     6.0000     0.0058     3.9371     3.9371    -0.0000
  5 H      0.8484     1.0000     0.1516     0.9770     0.9770    -0.0000
  6 C      5.9940     6.0000     0.0060     3.9489     3.9489    -0.0000
  7 H      1.0273     1.0000    -0.0273     0.9993     0.9993    -0.0000
  8 C      5.9996     6.0000     0.0004     3.9260     3.9260    -0.0000
  9 H      0.9730     1.0000     0.0270     0.9993     0.9993    -0.0000
 10 C      5.9710     6.0000     0.0290     3.9188     3.9188    -0.0000
 11 H      1.1981     1.0000    -0.1981     0.9608     0.9608    -0.0000

  Mayer bond orders larger than 0.1
B(  0-C ,  2-C ) :   1.8151 B(  0-C ,  5-H ) :   0.1397 B(  0-C ,  6-C ) :   0.1384 
B(  0-C , 10-C ) :   1.5363 B(  0-C , 11-H ) :   0.1886 B(  1-H ,  7-H ) :   0.9549 
B(  2-C ,  4-C ) :   1.6853 B(  2-C ,  8-C ) :   0.1786 B(  2-C , 11-H ) :   0.1467 
B(  3-H ,  9-H ) :   0.9547 B(  4-C ,  5-H ) :   0.3514 B(  4-C ,  6-C ) :   1.5791 
B(  5-H ,  6-C ) :   0.1434 B(  5-H , 10-C ) :   0.2692 B(  6-C ,  8-C ) :   1.8095 
B(  6-C , 10-C ) :   0.1243 B(  6-C , 11-H ) :   0.1347 B(  8-C , 10-C ) :   1.6345 
B(  8-C , 11-H ) :   0.2012 B( 10-C , 11-H ) :   0.1954 

-------
TIMINGS
-------

Total SCF time: 0 days 0 hours 16 min 40 sec 

Total time                  ....    1000.910 sec
Sum of individual times     ....     995.661 sec  ( 99.5%)

Fock matrix formation       ....     993.344 sec  ( 99.2%)
  XC integration            ....      76.389 sec  (  7.7% of F)
    Basis function eval.    ....      31.911 sec  ( 41.8% of XC)
    Density eval.           ....       5.788 sec  (  7.6% of XC)
    XC-Functional eval.     ....      16.454 sec  ( 21.5% of XC)
    XC-Potential eval.      ....       8.124 sec  ( 10.6% of XC)
Diagonalization             ....       0.390 sec  (  0.0%)
Density matrix formation    ....       0.032 sec  (  0.0%)
Population analysis         ....       0.014 sec  (  0.0%)
Initial guess               ....       0.557 sec  (  0.1%)
Orbital Transformation      ....       0.000 sec  (  0.0%)
Orbital Orthonormalization  ....       0.000 sec  (  0.0%)
DIIS solution               ....       0.000 sec  (  0.0%)
Grid generation             ....       1.322 sec  (  0.1%)


-------------------------------------------------------------------------------
                          DFT DISPERSION CORRECTION                            
                                                                               
                              DFTD3 V3.1  Rev 1                                
                              USING zero damping                               
-------------------------------------------------------------------------------
The omegaB97X-D3 functional is recognized. Fit by Chai et al.
Active option DFTDOPT                   ...         3   

molecular C6(AA) [au] = 2353.797631 


            DFT-D V3
 parameters
 s6 scaling factor         :     1.0000 
 rs6 scaling factor        :     1.2810 
 s8 scaling factor         :     1.0000 
 rs8 scaling factor        :     1.0940 
 Damping factor alpha6     :    14.0000 
 Damping factor alpha8     :    16.0000 
 ad hoc parameters k1-k3   :    16.0000     1.3333    -4.0000 

 Edisp/kcal,au: -0.272874835562  -0.000434853684 
 E6   /kcal   :  -0.182906229 
 E8   /kcal   :  -0.089968607 
 % E8         :  32.970649904 

-------------------------   ----------------
Dispersion correction           -0.000434854
-------------------------   ----------------


-------------------------   --------------------
FINAL SINGLE POINT ENERGY      -230.430896146857
-------------------------   --------------------


                            ***************************************
                            *     ORCA property calculations      *
                            ***************************************

                                    ---------------------
                                    Active property flags
                                    ---------------------
   (+) Dipole Moment


------------------------------------------------------------------------------
                       ORCA ELECTRIC PROPERTIES CALCULATION
------------------------------------------------------------------------------

Dipole Moment Calculation                       ... on
Quadrupole Moment Calculation                   ... off
Polarizability Calculation                      ... off
GBWName                                         ... Scan_45.gbw
Electron density file                           ... Scan_45.scfp.tmp

-------------
DIPOLE MOMENT
-------------
                                X             Y             Z
Electronic contribution:     -1.58610       3.31026       0.00002
Nuclear contribution   :      0.00016      -0.00023       0.00000
                        -----------------------------------------
Total Dipole Moment    :     -1.58594       3.31003       0.00002
                        -----------------------------------------
Magnitude (a.u.)       :      3.67035
Magnitude (Debye)      :      9.32929


Timings for individual modules:

Sum of individual times         ...     1001.635 sec (=  16.694 min)
GTO integral calculation        ...        0.696 sec (=   0.012 min)   0.1 %
SCF iterations                  ...     1000.939 sec (=  16.682 min)  99.9 %
                             ****ORCA TERMINATED NORMALLY****
TOTAL RUN TIME: 0 days 0 hours 16 minutes 42 seconds 377 msec
