
                                 *****************
                                 * O   R   C   A *
                                 *****************

           --- An Ab Initio, DFT and Semiempirical electronic structure package ---

                  #######################################################
                  #                        -***-                        #
                  #  Department of molecular theory and spectroscopy    #
                  #              Directorship: Frank Neese              #
                  # Max Planck Institute for Chemical Energy Conversion #
                  #                  D-45470 Muelheim/Ruhr              #
                  #                       Germany                       #
                  #                                                     #
                  #                  All rights reserved                #
                  #                        -***-                        #
                  #######################################################


                         Program Version 4.0.0.2 - RELEASE -


 With contributions from (in alphabetic order):
   Daniel Aravena         : Magnetic Properties
   Michael Atanasov       : Ab Initio Ligand Field Theory
   Ute Becker             : Parallelization
   Martin Brehm           : Molecular dynamics
   Dmytro Bykov           : SCF Hessian
   Vijay G. Chilkuri      : MRCI spin determinant printing
   Dipayan Datta          : RHF DLPNO-CCSD density
   Achintya Kumar Dutta   : EOM-CC, STEOM-CC
   Dmitry Ganyushin       : Spin-Orbit,Spin-Spin,Magnetic field MRCI
   Yang Guo               : DLPNO-NEVPT2, CIM, IAO-localization
   Andreas Hansen         : Spin unrestricted coupled pair/coupled cluster methods
   Lee Huntington         : MR-EOM, pCC
   Robert Izsak           : Overlap fitted RIJCOSX, COSX-SCS-MP3, EOM
   Christian Kollmar      : KDIIS, OOCD, Brueckner-CCSD(T), CCSD density
   Simone Kossmann        : Meta GGA functionals, TD-DFT gradient, OOMP2, MP2 Hessian
   Martin Krupicka        : AUTO-CI
   Dagmar Lenk            : GEPOL surface
   Dimitrios Liakos       : Extrapolation schemes; parallel MDCI
   Dimitrios Manganas     : ROCIS; embedding schemes
   Dimitrios Pantazis     : SARC Basis sets
   Taras Petrenko         : DFT Hessian,TD-DFT gradient, ASA, ECA, R-Raman, ABS, FL, XAS/XES, NRVS
   Peter Pinski           : DLPNO-MP2
   Christoph Reimann      : Effective Core Potentials
   Marius Retegan         : Local ZFS, SOC
   Christoph Riplinger    : Optimizer, TS searches, QM/MM, DLPNO-CCSD(T), (RO)-DLPNO pert. Triples
   Tobias Risthaus        : Range-separated hybrids, TD-DFT gradient, RPA, STAB
   Michael Roemelt        : Restricted open shell CIS
   Masaaki Saitow         : Open-shell DLPNO
   Barbara Sandhoefer     : DKH picture change effects
   Kantharuban Sivalingam : CASSCF convergence, NEVPT2, FIC-MRCI
   Georgi Stoychev        : AutoAux
   Boris Wezisla          : Elementary symmetry handling
   Frank Wennmohs         : Technical directorship


 We gratefully acknowledge several colleagues who have allowed us to
 interface, adapt or use parts of their codes:
   Stefan Grimme, W. Hujo, H. Kruse,             : VdW corrections, initial TS optimization,
                  C. Bannwarth                     DFT functionals, gCP, sTDA/sTD-DF
   Ed Valeev                                     : LibInt (2-el integral package), F12 methods
   Garnet Chan, S. Sharma, J. Yang, R. Olivares  : DMRG
   Ulf Ekstrom                                   : XCFun DFT Library
   Mihaly Kallay                                 : mrcc  (arbitrary order and MRCC methods)
   Jiri Pittner, Ondrej Demel                    : Mk-CCSD
   Frank Weinhold                                : gennbo (NPA and NBO analysis)
   Christopher J. Cramer and Donald G. Truhlar   : smd solvation model


 Your calculation uses the libint2 library for the computation of 2-el integrals
 For citations please refer to: http://libint.valeyev.net

 This ORCA versions uses:
   CBLAS   interface :  Fast vector & matrix operations
   LAPACKE interface :  Fast linear algebra routines
   SCALAPACK package :  Parallel linear algebra routines


Your calculation utilizes the atom-pairwise dispersion correction
with the zero-damping scheme (D30)
Cite in your paper:
S.Grimme, J.Antony, S.Ehrlich and H.Krieg, J.Chem.Phys., 132, (2010), 154104 
   

XCFun DFT library Copyright 2009-2010 Ulf Ekstrom and contributors.
See http://admol.org/xcfun for more information. This is free soft-
ware; see the source code for copying conditions. There is ABSOLUTELY
NO WARRANTY; not even for MERCHANTABILITY or FITNESS FOR A PARTICULAR
PURPOSE. For details see the documentation. Scientific users of this 
library should cite U. Ekstrom, L. Visscher, R. Bast, A. J. Thorvald-
sen and K. Ruud; J.Chem.Theor.Comp. 2010, DOI: 10.1021/ct100117s
XCFun Version 0.99 
Your calculation utilizes the basis: 6-31G(d)
   H-He, Li-Ne : W. J. Hehre, R. Ditchfield and J.A. Pople, J. Chem. Phys. 56, 2257 (1972).
                 Note: He and Ne are unpublished basis sets taken from the Gaussian program.
                 Note: Li and B from J. D. Dill and J. A. Pople, J. Chem. Phys. 62, 2921 (1975).
   Na - Ar     : M. M. Francl, W. J. Pietro, W. J. Hehre, J. S. Binkley, M. S. Gordon, 
                 D. J. DeFrees and J. A. Pople, J. Chem. Phys. 77, 3654 (1982).
   K - Zn      : V. A. Rassolov, J. A. Pople, M. A. Ratner, and T. L. Windus, J. Chem. Phys. 109, 1223 (1998).

================================================================================
                                        WARNINGS
                       Please study these warnings very carefully!
================================================================================

Warning: TCutStore was < 0. Adjusted to Thresh (uncritical)

INFO   : the flag for use of LIBINT has been found!

================================================================================
                                       INPUT FILE
================================================================================
NAME = initial5.inp
|  1> ! WB97X-D3 6-31G(d) VerySlowConv
|  2> ! KDIIS NOSOSCF
|  3> %base "Scan_5"
|  4> 
|  5> %scf
|  6> maxiter 999
|  7> end
|  8> 
|  9> * xyz 0 1
| 10> C          1.515846375281   -2.849112911499    0.000000000000
| 11> H          2.503655546373   -2.924735644432    0.000000000000
| 12> C          0.914753807349   -1.595782552030   -0.000000000002
| 13> H          1.474149619056   -0.778126095129   -0.000000000002
| 14> C         -0.471208407353   -1.489678806076    0.000000000002
| 15> H         -0.899621768455   -0.596399596104    0.000000000002
| 16> C         -1.256078054997   -2.636905422385    0.000000000000
| 17> H         -2.243887224658   -2.561282682939    0.000000000000
| 18> C         -0.654985485085   -3.890235783856   -0.000000000002
| 19> H         -1.214381268142   -4.707892259631   -0.000000000002
| 20> C          0.730976730035   -3.996339527252    0.000000000002
| 21> H          1.159390130595   -4.889618718666    0.000000000002
| 22> **                         ****END OF INPUT****
================================================================================

                       ****************************
                       * Single Point Calculation *
                       ****************************

---------------------------------
CARTESIAN COORDINATES (ANGSTROEM)
---------------------------------
  C      1.515846   -2.849113    0.000000
  H      2.503656   -2.924736    0.000000
  C      0.914754   -1.595783   -0.000000
  H      1.474150   -0.778126   -0.000000
  C     -0.471208   -1.489679    0.000000
  H     -0.899622   -0.596400    0.000000
  C     -1.256078   -2.636905    0.000000
  H     -2.243887   -2.561283    0.000000
  C     -0.654985   -3.890236   -0.000000
  H     -1.214381   -4.707892   -0.000000
  C      0.730977   -3.996340    0.000000
  H      1.159390   -4.889619    0.000000

----------------------------
CARTESIAN COORDINATES (A.U.)
----------------------------
  NO LB      ZA    FRAG     MASS         X           Y           Z
   0 C     6.0000    0    12.011    2.864535   -5.384043    0.000000
   1 H     1.0000    0     1.008    4.731223   -5.526949    0.000000
   2 C     6.0000    0    12.011    1.728634   -3.015592   -0.000000
   3 H     1.0000    0     1.008    2.785739   -1.470445   -0.000000
   4 C     6.0000    0    12.011   -0.890455   -2.815085    0.000000
   5 H     1.0000    0     1.008   -1.700039   -1.127032    0.000000
   6 C     6.0000    0    12.011   -2.373644   -4.983029    0.000000
   7 H     1.0000    0     1.008   -4.240332   -4.840123    0.000000
   8 C     6.0000    0    12.011   -1.237743   -7.351480   -0.000000
   9 H     1.0000    0     1.008   -2.294848   -8.896627   -0.000000
  10 C     6.0000    0    12.011    1.381346   -7.551987    0.000000
  11 H     1.0000    0     1.008    2.190930   -9.240040    0.000000

--------------------------------
INTERNAL COORDINATES (ANGSTROEM)
--------------------------------
 C      0   0   0     0.000000000000     0.00000000     0.00000000
 H      1   0   0     0.990699629671     0.00000000     0.00000000
 C      1   2   0     1.390017721178   119.99999988     0.00000000
 H      3   1   2     0.990699629387   119.99999882     0.00000000
 C      3   1   2     1.390017721285   120.00000000   180.00000000
 H      5   3   1     0.990699629019   119.99999907   180.00000000
 C      5   3   1     1.390017723974   119.99999997     0.00000000
 H      7   5   3     0.990699628741   119.99999971   180.00000000
 C      7   5   3     1.390017723840   119.99999999     0.00000000
 H      9   7   5     0.990699628787   120.00000077   180.00000000
 C      9   7   5     1.390017721507   119.99999993     0.00000000
 H     11   9   7     0.990699629349   120.00000149   179.99999915

---------------------------
INTERNAL COORDINATES (A.U.)
---------------------------
 C      0   0   0     0.000000000000     0.00000000     0.00000000
 H      1   0   0     1.872150981055     0.00000000     0.00000000
 C      1   2   0     2.626752814324   119.99999988     0.00000000
 H      3   1   2     1.872150980518   119.99999882     0.00000000
 C      3   1   2     2.626752814526   120.00000000   180.00000000
 H      5   3   1     1.872150979824   119.99999907   180.00000000
 C      5   3   1     2.626752819607   119.99999997     0.00000000
 H      7   5   3     1.872150979298   119.99999971   180.00000000
 C      7   5   3     2.626752819354   119.99999999     0.00000000
 H      9   7   5     1.872150979385   120.00000077   180.00000000
 C      9   7   5     2.626752814945   119.99999993     0.00000000
 H     11   9   7     1.872150980447   120.00000149   179.99999915

---------------------
BASIS SET INFORMATION
---------------------
There are 2 groups of distinct atoms

 Group   1 Type C   : 10s4p1d contracted to 3s2p1d pattern {631/31/1}
 Group   2 Type H   : 4s contracted to 2s pattern {31}

Atom   0C    basis set group =>   1
Atom   1H    basis set group =>   2
Atom   2C    basis set group =>   1
Atom   3H    basis set group =>   2
Atom   4C    basis set group =>   1
Atom   5H    basis set group =>   2
Atom   6C    basis set group =>   1
Atom   7H    basis set group =>   2
Atom   8C    basis set group =>   1
Atom   9H    basis set group =>   2
Atom  10C    basis set group =>   1
Atom  11H    basis set group =>   2
------------------------------------------------------------------------------
                           ORCA GTO INTEGRAL CALCULATION
------------------------------------------------------------------------------

                         BASIS SET STATISTICS AND STARTUP INFO

 # of primitive gaussian shells          ...  114
 # of primitive gaussian functions       ...  186
 # of contracted shells                  ...   48
 # of contracted basis functions         ...   96
 Highest angular momentum                ...    2
 Maximum contraction depth               ...    6
 Integral package used                   ... LIBINT
 Integral threshhold            Thresh   ...  1.000e-10
 Primitive cut-off              TCut     ...  1.000e-11


------------------------------ INTEGRAL EVALUATION ----------------------------


 * One electron integrals 
 Pre-screening matrix                    ... done
 Shell pair data                         ... done (   0.001 sec)

-------------------------------------------------------------------------------
                                 ORCA SCF
-------------------------------------------------------------------------------

------------
SCF SETTINGS
------------
Hamiltonian:
 Density Functional     Method          .... DFT(GTOs)
 Exchange Functional    Exchange        .... WB97X-D3
 Correlation Functional Correlation     .... WB97X-D3
 Gradients option       PostSCFGGA      .... off
 Hybrid DFT is turned on
   Fraction HF Exchange ScalHFX         ....  0.195728
   Scaling of DF-GGA-X  ScalDFX         ....  0.000000
   Scaling of DF-GGA-C  ScalDFC         ....  1.000000
   Scaling of DF-LDA-C  ScalLDAC        ....  1.000000
   Perturbative correction              ....  0.000000
 Long-range corrected/Screened/Range-Separated Hybrid DFT is turned on
   Amount of maximum screened exact exchange              ....  0.804272
   Range separation parameter mu (erf(mu*r12)/r12)        ....  0.250000


General Settings:
 Integral files         IntName         .... Scan_5
 Hartree-Fock type      HFTyp           .... RHF
 Total Charge           Charge          ....    0
 Multiplicity           Mult            ....    1
 Number of Electrons    NEL             ....   42
 Basis Dimension        Dim             ....   96
 Nuclear Repulsion      ENuc            ....    206.9121131367 Eh

Convergence Acceleration:
 DIIS                   CNVDIIS         .... on
   Start iteration      DIISMaxIt       ....     0
   Startup error        DIISStart       ....  0.200000
   # of expansion vecs  DIISMaxEq       ....     5
   Bias factor          DIISBfac        ....   1.050
   Max. coefficient     DIISMaxC        ....  10.000
 Newton-Raphson         CNVNR           .... off
 SOSCF                  CNVSOSCF        .... off
 Level Shifting         CNVShift        .... off
 Zerner damping         CNVZerner       .... off
 Static damping         CNVDamp         .... off
 Fernandez-Rico         CNVRico         .... off

SCF Procedure:
 Maximum # iterations   MaxIter         ....   999
 SCF integral mode      SCFMode         .... Direct
   Integral package                     .... LIBINT
 Reset frequeny         DirectResetFreq ....    20
 Integral Threshold     Thresh          ....  1.000e-10 Eh
 Primitive CutOff       TCut            ....  1.000e-11 Eh

Convergence Tolerance:
 Convergence Check Mode ConvCheckMode   .... All-Criteria
 Convergence forced     ConvForced      .... 0
 Energy Change          TolE            ....  1.000e-06 Eh
 Max Density Change     TolMaxP         ....  1.000e-05
 RMS Density Change     TolRMSP         ....  1.000e-06
 DIIS Error             TolErr          ....  1.000e-06


Diagonalization of the overlap matrix:
Smallest eigenvalue                        ... 4.857e-04
Time for diagonalization                   ...    0.003 sec
Threshold for overlap eigenvalues          ... 1.000e-08
Number of eigenvalues below threshold      ... 0
Time for construction of square roots      ...    0.006 sec
Total time needed                          ...    0.008 sec

-------------------
DFT GRID GENERATION
-------------------

General Integration Accuracy     IntAcc      ...  4.340
Radial Grid Type                 RadialGrid  ... Gauss-Chebyshev
Angular Grid (max. acc.)         AngularGrid ... Lebedev-110
Angular grid pruning method      GridPruning ... 3 (G Style)
Weight generation scheme         WeightScheme... Becke
Basis function cutoff            BFCut       ...    1.0000e-10
Integration weight cutoff        WCut        ...    1.0000e-14
Grids for H and He will be reduced by one unit

# of grid points (after initial pruning)     ...  14700 (   0.0 sec)
# of grid points (after weights+screening)   ...  13740 (   0.1 sec)
nearest neighbour list constructed           ...    0.0 sec
Grid point re-assignment to atoms done       ...    0.0 sec
Grid point division into batches done        ...    0.0 sec
Reduced shell lists constructed in    0.3 sec

Total number of grid points                  ...    13740
Total number of batches                      ...      220
Average number of points per batch           ...       62
Average number of grid points per atom       ...     1145
Average number of shells per batch           ...    37.83 (78.81%)
Average number of basis functions per batch  ...    78.19 (81.45%)
Average number of large shells per batch     ...    31.50 (83.28%)
Average number of large basis fcns per batch ...    65.34 (83.56%)
Maximum spatial batch extension              ...  18.19, 20.10, 38.86 au
Average spatial batch extension              ...   3.58,  3.98,  5.35 au

Time for grid setup =    0.414 sec

------------------------------
INITIAL GUESS: MODEL POTENTIAL
------------------------------
Loading Hartree-Fock densities                     ... done
Calculating cut-offs                               ... done
Setting up the integral package                    ... done
Initializing the effective Hamiltonian             ... done
Starting the Coulomb interaction                   ... done (   0.2 sec)
Reading the grid                                   ... done
Mapping shells                                     ... done
Starting the XC term evaluation                    ... done (   0.3 sec)
  promolecular density results
     # of electrons  =     42.007084963
     EX              =    -32.533326351
     EC              =     -1.379590254
     EX+EC           =    -33.912916605
Transforming the Hamiltonian                       ... done (   0.0 sec)
Diagonalizing the Hamiltonian                      ... done (   0.0 sec)
Back transforming the eigenvectors                 ... done (   0.0 sec)
Now organizing SCF variables                       ... done
                      ------------------
                      INITIAL GUESS DONE (   1.0 sec)
                      ------------------
--------------
SCF ITERATIONS
--------------
ITER       Energy         Delta-E        Max-DP      RMS-DP      [F,P]   Gradient Norm
               ***  Starting incremental Fock matrix formation  ***
                             ****Resetting KDIIS****
                             ****Turning on KDIIS(Cayley)****
  0   -231.9925570926   0.000000000000 0.01551546  0.00099815  0.0881784   0.072881629
  1   -232.0296913792  -0.037134286664 0.01484493  0.00119498  0.0761977   0.061936931
  2   -232.0634484876  -0.033757108407 0.02396585  0.00190780  0.0617292   0.050332266
  3   -232.1040488324  -0.040600344743 0.03571886  0.00280728  0.0375876   0.030769820
  4   -232.1279658860  -0.023917053624 0.00172548  0.00017469  0.0010350   0.000855280
  5   -232.1279905572  -0.000024671195 0.00036713  0.00003412  0.0001795   0.000141987
                          ***Energy convergence achieved***
  6   -232.1279908139  -0.000000256706 0.00017444  0.00001833  0.0001349   0.000120706

            ***Energy convergence in two consecutive cycles with***
                    ***'reasonable' density convergence***
                       *** signaling convergence ***

                    *** KDIIS BlockDiag ( 0.002 sec) ***

               *****************************************************
               *                     SUCCESS                       *
               *           SCF CONVERGED AFTER   7 CYCLES          *
               *****************************************************

Setting up the final grid:

General Integration Accuracy     IntAcc      ...  4.670
Radial Grid Type                 RadialGrid  ... Gauss-Chebyshev
Angular Grid (max. acc.)         AngularGrid ... Lebedev-302
Angular grid pruning method      GridPruning ... 3 (G Style)
Weight generation scheme         WeightScheme... Becke
Basis function cutoff            BFCut       ...    1.0000e-10
Integration weight cutoff        WCut        ...    1.0000e-14
Grids for H and He will be reduced by one unit

# of grid points (after initial pruning)     ...  57636 (   0.0 sec)
# of grid points (after weights+screening)   ...  53292 (   0.1 sec)
nearest neighbour list constructed           ...    0.0 sec
Grid point re-assignment to atoms done       ...    0.0 sec
Grid point division into batches done        ...    0.2 sec
Reduced shell lists constructed in    0.9 sec

Total number of grid points                  ...    53292
Total number of batches                      ...      838
Average number of points per batch           ...       63
Average number of grid points per atom       ...     4441
Average number of shells per batch           ...    34.46 (71.80%)
Average number of basis functions per batch  ...    71.18 (74.14%)
Average number of large shells per batch     ...    27.95 (81.09%)
Average number of large basis fcns per batch ...    57.53 (80.82%)
Maximum spatial batch extension              ...  15.20, 16.75, 17.88 au
Average spatial batch extension              ...   2.47,  2.58,  2.91 au

Final grid set up in    1.1 sec
Final integration                            ... done (   1.2 sec)
Change in XC energy                          ...     0.001119121
Integrated number of electrons               ...    41.999898282
Previous integrated no of electrons          ...    42.005274673

----------------
TOTAL SCF ENERGY
----------------

Total Energy       :         -232.12687213 Eh           -6316.49331 eV

Components:
Nuclear Repulsion  :          206.91211314 Eh            5630.36484 eV
Electronic Energy  :         -439.03898526 Eh          -11946.85816 eV
One Electron Energy:         -720.93296854 Eh          -19617.58341 eV
Two Electron Energy:          281.89398328 Eh            7670.72526 eV

Virial components:
Potential Energy   :         -463.75265535 Eh          -12619.35131 eV
Kinetic Energy     :          231.62578322 Eh            6302.85799 eV
Virial Ratio       :            2.00216336


DFT components:
N(Alpha)           :       20.999949141097 electrons
N(Beta)            :       20.999949141097 electrons
N(Total)           :       41.999898282195 electrons
E(XC)              :      -23.941004740978 Eh       

---------------
SCF CONVERGENCE
---------------

  Last Energy change         ...   -4.3260e-07  Tolerance :   1.0000e-06
  Last MAX-Density change    ...    7.8580e-05  Tolerance :   1.0000e-05
  Last RMS-Density change    ...    5.3636e-06  Tolerance :   1.0000e-06
  Last DIIS Error            ...    3.3010e-05  Tolerance :   1.0000e-06

             **** THE GBW FILE WAS UPDATED (Scan_5.gbw) ****
             **** DENSITY FILE WAS UPDATED (Scan_5.scfp.tmp) ****
             **** ENERGY FILE WAS UPDATED (Scan_5.en.tmp) ****
----------------
ORBITAL ENERGIES
----------------

  NO   OCC          E(Eh)            E(eV) 
   0   2.0000     -10.268799      -279.4282 
   1   2.0000     -10.268609      -279.4230 
   2   2.0000     -10.268566      -279.4219 
   3   2.0000     -10.268106      -279.4094 
   4   2.0000     -10.268065      -279.4083 
   5   2.0000     -10.267873      -279.4030 
   6   2.0000      -0.968318       -26.3493 
   7   2.0000      -0.863437       -23.4953 
   8   2.0000      -0.863375       -23.4936 
   9   2.0000      -0.720001       -19.5922 
  10   2.0000      -0.719952       -19.5909 
  11   2.0000      -0.642438       -17.4816 
  12   2.0000      -0.586989       -15.9728 
  13   2.0000      -0.535584       -14.5740 
  14   2.0000      -0.525104       -14.2888 
  15   2.0000      -0.524923       -14.2839 
  16   2.0000      -0.462078       -12.5738 
  17   2.0000      -0.437895       -11.9157 
  18   2.0000      -0.437622       -11.9083 
  19   2.0000      -0.329290        -8.9604 
  20   2.0000      -0.329130        -8.9561 
  21   0.0000       0.085040         2.3140 
  22   0.0000       0.085230         2.3192 
  23   0.0000       0.215516         5.8645 
  24   0.0000       0.265547         7.2259 
  25   0.0000       0.266327         7.2471 
  26   0.0000       0.266920         7.2633 
  27   0.0000       0.294665         8.0182 
  28   0.0000       0.294964         8.0264 
  29   0.0000       0.317146         8.6300 
  30   0.0000       0.407059        11.0766 
  31   0.0000       0.407229        11.0813 
  32   0.0000       0.412082        11.2133 
  33   0.0000       0.412327        11.2200 
  34   0.0000       0.572111        15.5679 
  35   0.0000       0.630641        17.1606 
  36   0.0000       0.645609        17.5679 
  37   0.0000       0.671167        18.2634 
  38   0.0000       0.671688        18.2776 
  39   0.0000       0.691772        18.8241 
  40   0.0000       0.706282        19.2189 
  41   0.0000       0.706582        19.2271 
  42   0.0000       0.718734        19.5578 
  43   0.0000       0.718865        19.5613 
  44   0.0000       0.741949        20.1895 
  45   0.0000       0.742236        20.1973 
  46   0.0000       0.776538        21.1307 
  47   0.0000       0.777222        21.1493 
  48   0.0000       0.856855        23.3162 
  49   0.0000       0.994109        27.0511 
  50   0.0000       1.022726        27.8298 
  51   0.0000       1.023022        27.8378 
  52   0.0000       1.024702        27.8836 
  53   0.0000       1.024939        27.8900 
  54   0.0000       1.064038        28.9540 
  55   0.0000       1.064710        28.9722 
  56   0.0000       1.085787        29.5458 
  57   0.0000       1.125334        30.6219 
  58   0.0000       1.175220        31.9794 
  59   0.0000       1.175989        32.0003 
  60   0.0000       1.252525        34.0829 
  61   0.0000       1.253261        34.1030 
  62   0.0000       1.337154        36.3858 
  63   0.0000       1.359176        36.9851 
  64   0.0000       1.478969        40.2448 
  65   0.0000       1.584754        43.1233 
  66   0.0000       1.585301        43.1382 
  67   0.0000       1.598557        43.4990 
  68   0.0000       1.598777        43.5049 
  69   0.0000       1.603760        43.6405 
  70   0.0000       1.604323        43.6559 
  71   0.0000       1.876165        51.0530 
  72   0.0000       1.892295        51.4920 
  73   0.0000       2.075858        56.4870 
  74   0.0000       2.080490        56.6130 
  75   0.0000       2.190929        59.6182 
  76   0.0000       2.191811        59.6422 
  77   0.0000       2.199174        59.8426 
  78   0.0000       2.200079        59.8672 
  79   0.0000       2.247864        61.1675 
  80   0.0000       2.248466        61.1839 
  81   0.0000       2.272220        61.8303 
  82   0.0000       2.273838        61.8743 
  83   0.0000       2.414317        65.6969 
  84   0.0000       2.414655        65.7061 
  85   0.0000       2.420038        65.8526 
  86   0.0000       2.679186        72.9043 
  87   0.0000       2.679889        72.9235 
  88   0.0000       2.767912        75.3187 
  89   0.0000       2.831445        77.0475 
  90   0.0000       2.833268        77.0971 
  91   0.0000       2.892931        78.7207 
  92   0.0000       2.894048        78.7510 
  93   0.0000       2.904654        79.0396 
  94   0.0000       3.124774        85.0294 
  95   0.0000       3.618145        98.4547 

                    ********************************
                    * MULLIKEN POPULATION ANALYSIS *
                    ********************************

-----------------------
MULLIKEN ATOMIC CHARGES
-----------------------
   0 C :   -0.161670
   1 H :    0.160611
   2 C :   -0.157611
   3 H :    0.159055
   4 C :   -0.158294
   5 H :    0.157909
   6 C :   -0.161670
   7 H :    0.160611
   8 C :   -0.157611
   9 H :    0.159055
  10 C :   -0.158294
  11 H :    0.157909
Sum of atomic charges:   -0.0000000

--------------------------------
MULLIKEN REDUCED ORBITAL CHARGES
--------------------------------
  0 C s       :     3.164011  s :     3.164011
      pz      :     0.991782  p :     2.960519
      px      :     1.016246
      py      :     0.952490
      dz2     :     0.003610  d :     0.037140
      dxz     :     0.001764
      dyz     :     0.006533
      dx2y2   :     0.016041
      dxy     :     0.009192
  1 H s       :     0.839389  s :     0.839389
  2 C s       :     3.163915  s :     3.163915
      pz      :     0.991666  p :     2.956592
      px      :     0.970868
      py      :     0.994058
      dz2     :     0.003581  d :     0.037105
      dxz     :     0.005028
      dyz     :     0.003270
      dx2y2   :     0.010001
      dxy     :     0.015224
  3 H s       :     0.840945  s :     0.840945
  4 C s       :     3.164164  s :     3.164164
      pz      :     0.991655  p :     2.956992
      px      :     0.962804
      py      :     1.002533
      dz2     :     0.003599  d :     0.037138
      dxz     :     0.005669
      dyz     :     0.002632
      dx2y2   :     0.011842
      dxy     :     0.013397
  5 H s       :     0.842091  s :     0.842091
  6 C s       :     3.164011  s :     3.164011
      pz      :     0.991783  p :     2.960518
      px      :     1.016246
      py      :     0.952490
      dz2     :     0.003610  d :     0.037140
      dxz     :     0.001764
      dyz     :     0.006533
      dx2y2   :     0.016041
      dxy     :     0.009192
  7 H s       :     0.839389  s :     0.839389
  8 C s       :     3.163915  s :     3.163915
      pz      :     0.991666  p :     2.956592
      px      :     0.970868
      py      :     0.994058
      dz2     :     0.003581  d :     0.037105
      dxz     :     0.005028
      dyz     :     0.003270
      dx2y2   :     0.010001
      dxy     :     0.015224
  9 H s       :     0.840945  s :     0.840945
 10 C s       :     3.164164  s :     3.164164
      pz      :     0.991655  p :     2.956992
      px      :     0.962804
      py      :     1.002533
      dz2     :     0.003599  d :     0.037138
      dxz     :     0.005669
      dyz     :     0.002632
      dx2y2   :     0.011842
      dxy     :     0.013397
 11 H s       :     0.842091  s :     0.842091


                     *******************************
                     * LOEWDIN POPULATION ANALYSIS *
                     *******************************

----------------------
LOEWDIN ATOMIC CHARGES
----------------------
   0 C :   -0.139953
   1 H :    0.139782
   2 C :   -0.139357
   3 H :    0.139527
   4 C :   -0.139490
   5 H :    0.139491
   6 C :   -0.139953
   7 H :    0.139782
   8 C :   -0.139357
   9 H :    0.139527
  10 C :   -0.139490
  11 H :    0.139491

-------------------------------
LOEWDIN REDUCED ORBITAL CHARGES
-------------------------------
  0 C s       :     2.897960  s :     2.897960
      pz      :     0.983008  p :     3.154005
      px      :     1.093966
      py      :     1.077032
      dz2     :     0.006419  d :     0.087988
      dxz     :     0.003025
      dyz     :     0.013925
      dx2y2   :     0.038352
      dxy     :     0.026267
  1 H s       :     0.860218  s :     0.860218
  2 C s       :     2.897927  s :     2.897927
      pz      :     0.983126  p :     3.153401
      px      :     1.082094
      py      :     1.088181
      dz2     :     0.006401  d :     0.088029
      dxz     :     0.010478
      dyz     :     0.006477
      dx2y2   :     0.027707
      dxy     :     0.036967
  3 H s       :     0.860473  s :     0.860473
  4 C s       :     2.897878  s :     2.897878
      pz      :     0.983009  p :     3.153603
      px      :     1.080290
      py      :     1.090304
      dz2     :     0.006408  d :     0.088009
      dxz     :     0.011933
      dyz     :     0.005019
      dx2y2   :     0.030963
      dxy     :     0.033686
  5 H s       :     0.860509  s :     0.860509
  6 C s       :     2.897960  s :     2.897960
      pz      :     0.983008  p :     3.154005
      px      :     1.093966
      py      :     1.077032
      dz2     :     0.006419  d :     0.087988
      dxz     :     0.003025
      dyz     :     0.013925
      dx2y2   :     0.038352
      dxy     :     0.026267
  7 H s       :     0.860218  s :     0.860218
  8 C s       :     2.897927  s :     2.897927
      pz      :     0.983126  p :     3.153401
      px      :     1.082094
      py      :     1.088181
      dz2     :     0.006401  d :     0.088029
      dxz     :     0.010478
      dyz     :     0.006477
      dx2y2   :     0.027707
      dxy     :     0.036967
  9 H s       :     0.860473  s :     0.860473
 10 C s       :     2.897878  s :     2.897878
      pz      :     0.983009  p :     3.153603
      px      :     1.080290
      py      :     1.090304
      dz2     :     0.006408  d :     0.088009
      dxz     :     0.011933
      dyz     :     0.005019
      dx2y2   :     0.030963
      dxy     :     0.033686
 11 H s       :     0.860509  s :     0.860509


                      *****************************
                      * MAYER POPULATION ANALYSIS *
                      *****************************

  NA   - Mulliken gross atomic population
  ZA   - Total nuclear charge
  QA   - Mulliken gross atomic charge
  VA   - Mayer's total valence
  BVA  - Mayer's bonded valence
  FA   - Mayer's free valence

  ATOM       NA         ZA         QA         VA         BVA        FA
  0 C      6.1617     6.0000    -0.1617     3.9593     3.9593     0.0000
  1 H      0.8394     1.0000     0.1606     0.9248     0.9248    -0.0000
  2 C      6.1576     6.0000    -0.1576     3.9591     3.9591    -0.0000
  3 H      0.8409     1.0000     0.1591     0.9252     0.9252    -0.0000
  4 C      6.1583     6.0000    -0.1583     3.9612     3.9612    -0.0000
  5 H      0.8421     1.0000     0.1579     0.9258     0.9258     0.0000
  6 C      6.1617     6.0000    -0.1617     3.9593     3.9593    -0.0000
  7 H      0.8394     1.0000     0.1606     0.9248     0.9248    -0.0000
  8 C      6.1576     6.0000    -0.1576     3.9591     3.9591     0.0000
  9 H      0.8409     1.0000     0.1591     0.9252     0.9252    -0.0000
 10 C      6.1583     6.0000    -0.1583     3.9612     3.9612     0.0000
 11 H      0.8421     1.0000     0.1579     0.9258     0.9258     0.0000

  Mayer bond orders larger than 0.1
B(  0-C ,  1-H ) :   0.9356 B(  0-C ,  2-C ) :   1.4637 B(  0-C , 10-C ) :   1.4650 
B(  2-C ,  3-H ) :   0.9360 B(  2-C ,  4-C ) :   1.4649 B(  4-C ,  5-H ) :   0.9364 
B(  4-C ,  6-C ) :   1.4650 B(  6-C ,  7-H ) :   0.9356 B(  6-C ,  8-C ) :   1.4637 
B(  8-C ,  9-H ) :   0.9360 B(  8-C , 10-C ) :   1.4649 B( 10-C , 11-H ) :   0.9364 


-------
TIMINGS
-------

Total SCF time: 0 days 0 hours 0 min 50 sec 

Total time                  ....      50.916 sec
Sum of individual times     ....      50.710 sec  ( 99.6%)

Fock matrix formation       ....      48.513 sec  ( 95.3%)
  XC integration            ....       4.245 sec  (  8.8% of F)
    Basis function eval.    ....       2.012 sec  ( 47.4% of XC)
    Density eval.           ....       0.354 sec  (  8.3% of XC)
    XC-Functional eval.     ....       0.649 sec  ( 15.3% of XC)
    XC-Potential eval.      ....       0.690 sec  ( 16.2% of XC)
Diagonalization             ....       0.081 sec  (  0.2%)
Density matrix formation    ....       0.001 sec  (  0.0%)
Population analysis         ....       0.012 sec  (  0.0%)
Initial guess               ....       0.619 sec  (  1.2%)
Orbital Transformation      ....       0.000 sec  (  0.0%)
Orbital Orthonormalization  ....       0.000 sec  (  0.0%)
DIIS solution               ....       0.000 sec  (  0.0%)
Grid generation             ....       1.484 sec  (  2.9%)


-------------------------------------------------------------------------------
                          DFT DISPERSION CORRECTION                            
                                                                               
                              DFTD3 V3.1  Rev 1                                
                              USING zero damping                               
-------------------------------------------------------------------------------
The omegaB97X-D3 functional is recognized. Fit by Chai et al.
Active option DFTDOPT                   ...         3   

molecular C6(AA) [au] = 1655.889651 


            DFT-D V3
 parameters
 s6 scaling factor         :     1.0000 
 rs6 scaling factor        :     1.2810 
 s8 scaling factor         :     1.0000 
 rs8 scaling factor        :     1.0940 
 Damping factor alpha6     :    14.0000 
 Damping factor alpha8     :    16.0000 
 ad hoc parameters k1-k3   :    16.0000     1.3333    -4.0000 

 Edisp/kcal,au: -1.362609895296  -0.002171456856 
 E6   /kcal   :  -0.565413872 
 E8   /kcal   :  -0.797196024 
 % E8         :  58.505081045 

-------------------------   ----------------
Dispersion correction           -0.002171457
-------------------------   ----------------


-------------------------   --------------------
FINAL SINGLE POINT ENERGY      -232.129043582158
-------------------------   --------------------


                            ***************************************
                            *     ORCA property calculations      *
                            ***************************************

                                    ---------------------
                                    Active property flags
                                    ---------------------
   (+) Dipole Moment


------------------------------------------------------------------------------
                       ORCA ELECTRIC PROPERTIES CALCULATION
------------------------------------------------------------------------------

Dipole Moment Calculation                       ... on
Quadrupole Moment Calculation                   ... off
Polarizability Calculation                      ... off
GBWName                                         ... Scan_5.gbw
Electron density file                           ... Scan_5.scfp.tmp

-------------
DIPOLE MOMENT
-------------
                                X             Y             Z
Electronic contribution:     -0.00000      -0.00000       0.00000
Nuclear contribution   :      0.00000       0.00000       0.00000
                        -----------------------------------------
Total Dipole Moment    :      0.00000       0.00000       0.00000
                        -----------------------------------------
Magnitude (a.u.)       :      0.00000
Magnitude (Debye)      :      0.00000


Timings for individual modules:

Sum of individual times         ...       51.643 sec (=   0.861 min)
GTO integral calculation        ...        0.699 sec (=   0.012 min)   1.4 %
SCF iterations                  ...       50.944 sec (=   0.849 min)  98.6 %
                             ****ORCA TERMINATED NORMALLY****
TOTAL RUN TIME: 0 days 0 hours 0 minutes 52 seconds 226 msec
