
                                 *****************
                                 * O   R   C   A *
                                 *****************

           --- An Ab Initio, DFT and Semiempirical electronic structure package ---

                  #######################################################
                  #                        -***-                        #
                  #  Department of molecular theory and spectroscopy    #
                  #              Directorship: Frank Neese              #
                  # Max Planck Institute for Chemical Energy Conversion #
                  #                  D-45470 Muelheim/Ruhr              #
                  #                       Germany                       #
                  #                                                     #
                  #                  All rights reserved                #
                  #                        -***-                        #
                  #######################################################


                         Program Version 4.0.0.2 - RELEASE -


 With contributions from (in alphabetic order):
   Daniel Aravena         : Magnetic Properties
   Michael Atanasov       : Ab Initio Ligand Field Theory
   Ute Becker             : Parallelization
   Martin Brehm           : Molecular dynamics
   Dmytro Bykov           : SCF Hessian
   Vijay G. Chilkuri      : MRCI spin determinant printing
   Dipayan Datta          : RHF DLPNO-CCSD density
   Achintya Kumar Dutta   : EOM-CC, STEOM-CC
   Dmitry Ganyushin       : Spin-Orbit,Spin-Spin,Magnetic field MRCI
   Yang Guo               : DLPNO-NEVPT2, CIM, IAO-localization
   Andreas Hansen         : Spin unrestricted coupled pair/coupled cluster methods
   Lee Huntington         : MR-EOM, pCC
   Robert Izsak           : Overlap fitted RIJCOSX, COSX-SCS-MP3, EOM
   Christian Kollmar      : KDIIS, OOCD, Brueckner-CCSD(T), CCSD density
   Simone Kossmann        : Meta GGA functionals, TD-DFT gradient, OOMP2, MP2 Hessian
   Martin Krupicka        : AUTO-CI
   Dagmar Lenk            : GEPOL surface
   Dimitrios Liakos       : Extrapolation schemes; parallel MDCI
   Dimitrios Manganas     : ROCIS; embedding schemes
   Dimitrios Pantazis     : SARC Basis sets
   Taras Petrenko         : DFT Hessian,TD-DFT gradient, ASA, ECA, R-Raman, ABS, FL, XAS/XES, NRVS
   Peter Pinski           : DLPNO-MP2
   Christoph Reimann      : Effective Core Potentials
   Marius Retegan         : Local ZFS, SOC
   Christoph Riplinger    : Optimizer, TS searches, QM/MM, DLPNO-CCSD(T), (RO)-DLPNO pert. Triples
   Tobias Risthaus        : Range-separated hybrids, TD-DFT gradient, RPA, STAB
   Michael Roemelt        : Restricted open shell CIS
   Masaaki Saitow         : Open-shell DLPNO
   Barbara Sandhoefer     : DKH picture change effects
   Kantharuban Sivalingam : CASSCF convergence, NEVPT2, FIC-MRCI
   Georgi Stoychev        : AutoAux
   Boris Wezisla          : Elementary symmetry handling
   Frank Wennmohs         : Technical directorship


 We gratefully acknowledge several colleagues who have allowed us to
 interface, adapt or use parts of their codes:
   Stefan Grimme, W. Hujo, H. Kruse,             : VdW corrections, initial TS optimization,
                  C. Bannwarth                     DFT functionals, gCP, sTDA/sTD-DF
   Ed Valeev                                     : LibInt (2-el integral package), F12 methods
   Garnet Chan, S. Sharma, J. Yang, R. Olivares  : DMRG
   Ulf Ekstrom                                   : XCFun DFT Library
   Mihaly Kallay                                 : mrcc  (arbitrary order and MRCC methods)
   Jiri Pittner, Ondrej Demel                    : Mk-CCSD
   Frank Weinhold                                : gennbo (NPA and NBO analysis)
   Christopher J. Cramer and Donald G. Truhlar   : smd solvation model


 Your calculation uses the libint2 library for the computation of 2-el integrals
 For citations please refer to: http://libint.valeyev.net

 This ORCA versions uses:
   CBLAS   interface :  Fast vector & matrix operations
   LAPACKE interface :  Fast linear algebra routines
   SCALAPACK package :  Parallel linear algebra routines


Your calculation utilizes the atom-pairwise dispersion correction
with the zero-damping scheme (D30)
Cite in your paper:
S.Grimme, J.Antony, S.Ehrlich and H.Krieg, J.Chem.Phys., 132, (2010), 154104 
   

XCFun DFT library Copyright 2009-2010 Ulf Ekstrom and contributors.
See http://admol.org/xcfun for more information. This is free soft-
ware; see the source code for copying conditions. There is ABSOLUTELY
NO WARRANTY; not even for MERCHANTABILITY or FITNESS FOR A PARTICULAR
PURPOSE. For details see the documentation. Scientific users of this 
library should cite U. Ekstrom, L. Visscher, R. Bast, A. J. Thorvald-
sen and K. Ruud; J.Chem.Theor.Comp. 2010, DOI: 10.1021/ct100117s
XCFun Version 0.99 
Your calculation utilizes the basis: 6-31G(d)
   H-He, Li-Ne : W. J. Hehre, R. Ditchfield and J.A. Pople, J. Chem. Phys. 56, 2257 (1972).
                 Note: He and Ne are unpublished basis sets taken from the Gaussian program.
                 Note: Li and B from J. D. Dill and J. A. Pople, J. Chem. Phys. 62, 2921 (1975).
   Na - Ar     : M. M. Francl, W. J. Pietro, W. J. Hehre, J. S. Binkley, M. S. Gordon, 
                 D. J. DeFrees and J. A. Pople, J. Chem. Phys. 77, 3654 (1982).
   K - Zn      : V. A. Rassolov, J. A. Pople, M. A. Ratner, and T. L. Windus, J. Chem. Phys. 109, 1223 (1998).

================================================================================
                                        WARNINGS
                       Please study these warnings very carefully!
================================================================================

Warning: TCutStore was < 0. Adjusted to Thresh (uncritical)

INFO   : the flag for use of LIBINT has been found!

================================================================================
                                       INPUT FILE
================================================================================
NAME = initial9.inp
|  1> ! WB97X-D3 6-31G(d) VerySlowConv
|  2> ! KDIIS NOSOSCF
|  3> %base "Scan_9"
|  4> 
|  5> %scf
|  6> maxiter 999
|  7> end
|  8> 
|  9> * xyz 0 1
| 10> C          1.503307838807   -2.848153012007    0.000000007107
| 11> H          2.749409063780   -2.943549554994   -0.000000044157
| 12> C          0.907653241963   -1.606161297617   -0.000000140998
| 13> H          1.613319687514   -0.574704254902    0.000000191162
| 14> C         -0.465770431497   -1.501017455514    0.000000122397
| 15> H         -1.006205209037   -0.374163864512   -0.000000137659
| 16> C         -1.243539505201   -2.637865321856    0.000000022208
| 17> H         -2.489640730702   -2.542468777815   -0.000000058987
| 18> C         -0.647884910447   -3.879857034233   -0.000000140220
| 19> H         -1.353551352379   -4.911314079896    0.000000197373
| 20> C          0.725538762313   -3.985000879153    0.000000130391
| 21> H          1.265973544886   -5.111854467502   -0.000000148618
| 22> **                         ****END OF INPUT****
================================================================================

                       ****************************
                       * Single Point Calculation *
                       ****************************

---------------------------------
CARTESIAN COORDINATES (ANGSTROEM)
---------------------------------
  C      1.503308   -2.848153    0.000000
  H      2.749409   -2.943550   -0.000000
  C      0.907653   -1.606161   -0.000000
  H      1.613320   -0.574704    0.000000
  C     -0.465770   -1.501017    0.000000
  H     -1.006205   -0.374164   -0.000000
  C     -1.243540   -2.637865    0.000000
  H     -2.489641   -2.542469   -0.000000
  C     -0.647885   -3.879857   -0.000000
  H     -1.353551   -4.911314    0.000000
  C      0.725539   -3.985001    0.000000
  H      1.265974   -5.111854   -0.000000

----------------------------
CARTESIAN COORDINATES (A.U.)
----------------------------
  NO LB      ZA    FRAG     MASS         X           Y           Z
   0 C     6.0000    0    12.011    2.840840   -5.382229    0.000000
   1 H     1.0000    0     1.008    5.195630   -5.562503   -0.000000
   2 C     6.0000    0    12.011    1.715216   -3.035205   -0.000000
   3 H     1.0000    0     1.008    3.048732   -1.086034    0.000000
   4 C     6.0000    0    12.011   -0.880179   -2.836512    0.000000
   5 H     1.0000    0     1.008   -1.901452   -0.707067   -0.000000
   6 C     6.0000    0    12.011   -2.349949   -4.984843    0.000000
   7 H     1.0000    0     1.008   -4.704739   -4.804570   -0.000000
   8 C     6.0000    0    12.011   -1.224325   -7.331867   -0.000000
   9 H     1.0000    0     1.008   -2.557841   -9.281039    0.000000
  10 C     6.0000    0    12.011    1.371070   -7.530560    0.000000
  11 H     1.0000    0     1.008    2.392343   -9.660005   -0.000000

--------------------------------
INTERNAL COORDINATES (ANGSTROEM)
--------------------------------
 C      0   0   0     0.000000000000     0.00000000     0.00000000
 H      1   0   0     1.249747479811     0.00000000     0.00000000
 C      1   2   0     1.377442491487   119.99999991     0.00000000
 H      3   1   2     1.249747479831   119.99999990     0.00000000
 C      3   1   2     1.377442490398   119.99999991   180.00000988
 H      5   3   1     1.249747480225   119.99999972   180.00000667
 C      5   3   1     1.377442486355   120.00000005     0.00000000
 H      7   5   3     1.249747480418   120.00000000   180.00001693
 C      7   5   3     1.377442488768   120.00000009     0.00000000
 H      9   7   5     1.249747480220   120.00000016   179.99997730
 C      1   2   3     1.377442488594   120.00000012   179.99999609
 H     11   1   2     1.249747480009   119.99999989     0.00000000

---------------------------
INTERNAL COORDINATES (A.U.)
---------------------------
 C      0   0   0     0.000000000000     0.00000000     0.00000000
 H      1   0   0     2.361680473400     0.00000000     0.00000000
 C      1   2   0     2.602989074137   119.99999991     0.00000000
 H      3   1   2     2.361680473438   119.99999990     0.00000000
 C      3   1   2     2.602989072078   119.99999991   180.00000988
 H      5   3   1     2.361680474184   119.99999972   180.00000667
 C      5   3   1     2.602989064439   120.00000005     0.00000000
 H      7   5   3     2.361680474547   120.00000000   180.00001693
 C      7   5   3     2.602989068999   120.00000009     0.00000000
 H      9   7   5     2.361680474174   120.00000016   179.99997730
 C      1   2   3     2.602989068670   120.00000012   179.99999609
 H     11   1   2     2.361680473776   119.99999989     0.00000000

---------------------
BASIS SET INFORMATION
---------------------
There are 2 groups of distinct atoms

 Group   1 Type C   : 10s4p1d contracted to 3s2p1d pattern {631/31/1}
 Group   2 Type H   : 4s contracted to 2s pattern {31}

Atom   0C    basis set group =>   1
Atom   1H    basis set group =>   2
Atom   2C    basis set group =>   1
Atom   3H    basis set group =>   2
Atom   4C    basis set group =>   1
Atom   5H    basis set group =>   2
Atom   6C    basis set group =>   1
Atom   7H    basis set group =>   2
Atom   8C    basis set group =>   1
Atom   9H    basis set group =>   2
Atom  10C    basis set group =>   1
Atom  11H    basis set group =>   2
------------------------------------------------------------------------------
                           ORCA GTO INTEGRAL CALCULATION
------------------------------------------------------------------------------

                         BASIS SET STATISTICS AND STARTUP INFO

 # of primitive gaussian shells          ...  114
 # of primitive gaussian functions       ...  186
 # of contracted shells                  ...   48
 # of contracted basis functions         ...   96
 Highest angular momentum                ...    2
 Maximum contraction depth               ...    6
 Integral package used                   ... LIBINT
 Integral threshhold            Thresh   ...  1.000e-10
 Primitive cut-off              TCut     ...  1.000e-11


------------------------------ INTEGRAL EVALUATION ----------------------------


 * One electron integrals 
 Pre-screening matrix                    ... done
 Shell pair data                         ... done (   0.001 sec)

-------------------------------------------------------------------------------
                                 ORCA SCF
-------------------------------------------------------------------------------

------------
SCF SETTINGS
------------
Hamiltonian:
 Density Functional     Method          .... DFT(GTOs)
 Exchange Functional    Exchange        .... WB97X-D3
 Correlation Functional Correlation     .... WB97X-D3
 Gradients option       PostSCFGGA      .... off
 Hybrid DFT is turned on
   Fraction HF Exchange ScalHFX         ....  0.195728
   Scaling of DF-GGA-X  ScalDFX         ....  0.000000
   Scaling of DF-GGA-C  ScalDFC         ....  1.000000
   Scaling of DF-LDA-C  ScalLDAC        ....  1.000000
   Perturbative correction              ....  0.000000
 Long-range corrected/Screened/Range-Separated Hybrid DFT is turned on
   Amount of maximum screened exact exchange              ....  0.804272
   Range separation parameter mu (erf(mu*r12)/r12)        ....  0.250000


General Settings:
 Integral files         IntName         .... Scan_9
 Hartree-Fock type      HFTyp           .... RHF
 Total Charge           Charge          ....    0
 Multiplicity           Mult            ....    1
 Number of Electrons    NEL             ....   42
 Basis Dimension        Dim             ....   96
 Nuclear Repulsion      ENuc            ....    201.3965538488 Eh

Convergence Acceleration:
 DIIS                   CNVDIIS         .... on
   Start iteration      DIISMaxIt       ....     0
   Startup error        DIISStart       ....  0.200000
   # of expansion vecs  DIISMaxEq       ....     5
   Bias factor          DIISBfac        ....   1.050
   Max. coefficient     DIISMaxC        ....  10.000
 Newton-Raphson         CNVNR           .... off
 SOSCF                  CNVSOSCF        .... off
 Level Shifting         CNVShift        .... off
 Zerner damping         CNVZerner       .... off
 Static damping         CNVDamp         .... off
 Fernandez-Rico         CNVRico         .... off

SCF Procedure:
 Maximum # iterations   MaxIter         ....   999
 SCF integral mode      SCFMode         .... Direct
   Integral package                     .... LIBINT
 Reset frequeny         DirectResetFreq ....    20
 Integral Threshold     Thresh          ....  1.000e-10 Eh
 Primitive CutOff       TCut            ....  1.000e-11 Eh

Convergence Tolerance:
 Convergence Check Mode ConvCheckMode   .... All-Criteria
 Convergence forced     ConvForced      .... 0
 Energy Change          TolE            ....  1.000e-06 Eh
 Max Density Change     TolMaxP         ....  1.000e-05
 RMS Density Change     TolRMSP         ....  1.000e-06
 DIIS Error             TolErr          ....  1.000e-06


Diagonalization of the overlap matrix:
Smallest eigenvalue                        ... 5.223e-04
Time for diagonalization                   ...    0.003 sec
Threshold for overlap eigenvalues          ... 1.000e-08
Number of eigenvalues below threshold      ... 0
Time for construction of square roots      ...    0.005 sec
Total time needed                          ...    0.007 sec

-------------------
DFT GRID GENERATION
-------------------

General Integration Accuracy     IntAcc      ...  4.340
Radial Grid Type                 RadialGrid  ... Gauss-Chebyshev
Angular Grid (max. acc.)         AngularGrid ... Lebedev-110
Angular grid pruning method      GridPruning ... 3 (G Style)
Weight generation scheme         WeightScheme... Becke
Basis function cutoff            BFCut       ...    1.0000e-10
Integration weight cutoff        WCut        ...    1.0000e-14
Grids for H and He will be reduced by one unit

# of grid points (after initial pruning)     ...  14700 (   0.0 sec)
# of grid points (after weights+screening)   ...  13788 (   0.0 sec)
nearest neighbour list constructed           ...    0.0 sec
Grid point re-assignment to atoms done       ...    0.0 sec
Grid point division into batches done        ...    0.0 sec
Reduced shell lists constructed in    0.2 sec

Total number of grid points                  ...    13788
Total number of batches                      ...      224
Average number of points per batch           ...       61
Average number of grid points per atom       ...     1149
Average number of shells per batch           ...    37.22 (77.54%)
Average number of basis functions per batch  ...    77.26 (80.48%)
Average number of large shells per batch     ...    30.80 (82.77%)
Average number of large basis fcns per batch ...    64.51 (83.50%)
Maximum spatial batch extension              ...  18.50, 20.65, 25.60 au
Average spatial batch extension              ...   3.66,  4.13,  5.18 au

Time for grid setup =    0.244 sec

------------------------------
INITIAL GUESS: MODEL POTENTIAL
------------------------------
Loading Hartree-Fock densities                     ... done
Calculating cut-offs                               ... done
Setting up the integral package                    ... done
Initializing the effective Hamiltonian             ... done
Starting the Coulomb interaction                   ... done (   0.1 sec)
Reading the grid                                   ... done
Mapping shells                                     ... done
Starting the XC term evaluation                    ... done (   0.2 sec)
  promolecular density results
     # of electrons  =     41.997341057
     EX              =    -32.317267732
     EC              =     -1.354378292
     EX+EC           =    -33.671646024
Transforming the Hamiltonian                       ... done (   0.0 sec)
Diagonalizing the Hamiltonian                      ... done (   0.0 sec)
Back transforming the eigenvectors                 ... done (   0.0 sec)
Now organizing SCF variables                       ... done
                      ------------------
                      INITIAL GUESS DONE (   0.6 sec)
                      ------------------
--------------
SCF ITERATIONS
--------------
ITER       Energy         Delta-E        Max-DP      RMS-DP      [F,P]   Gradient Norm
               ***  Starting incremental Fock matrix formation  ***
                             ****Resetting KDIIS****
                             ****Turning on KDIIS(Cayley)****
  0   -231.9444719996   0.000000000000 0.01779469  0.00103625  0.0962410   0.076248657
  1   -231.9922277976  -0.047755798016 0.01445660  0.00100439  0.0789942   0.062634150
  2   -232.0261722204  -0.033944422875 0.02349056  0.00164039  0.0650475   0.050941411
  3   -232.0672031157  -0.041030895259 0.03558887  0.00245559  0.0408510   0.031353108
  4   -232.0921469701  -0.024943854377 0.00195952  0.00020877  0.0024401   0.001707052
  5   -232.0922270495  -0.000080079383 0.00370235  0.00038594  0.0015084   0.000929918
  6   -232.0922483563  -0.000021306870 0.00143914  0.00015460  0.0008017   0.000621479
  7   -232.0922631591  -0.000014802744 0.00009653  0.00000682  0.0000692   0.000065511
                          ***Energy convergence achieved***
  8   -232.0922632491  -0.000000089997 0.00001373  0.00000101  0.0000072   0.000006894
                           ***RMSP convergence achieved***
                           ***MAXP convergence achieved***
                    *** KDIIS BlockDiag ( 0.001 sec) ***

               *****************************************************
               *                     SUCCESS                       *
               *           SCF CONVERGED AFTER   9 CYCLES          *
               *****************************************************

Setting up the final grid:

General Integration Accuracy     IntAcc      ...  4.670
Radial Grid Type                 RadialGrid  ... Gauss-Chebyshev
Angular Grid (max. acc.)         AngularGrid ... Lebedev-302
Angular grid pruning method      GridPruning ... 3 (G Style)
Weight generation scheme         WeightScheme... Becke
Basis function cutoff            BFCut       ...    1.0000e-10
Integration weight cutoff        WCut        ...    1.0000e-14
Grids for H and He will be reduced by one unit

# of grid points (after initial pruning)     ...  57636 (   0.0 sec)
# of grid points (after weights+screening)   ...  53530 (   0.1 sec)
nearest neighbour list constructed           ...    0.0 sec
Grid point re-assignment to atoms done       ...    0.0 sec
Grid point division into batches done        ...    0.2 sec
Reduced shell lists constructed in    0.8 sec

Total number of grid points                  ...    53530
Total number of batches                      ...      842
Average number of points per batch           ...       63
Average number of grid points per atom       ...     4461
Average number of shells per batch           ...    33.75 (70.32%)
Average number of basis functions per batch  ...    69.90 (72.82%)
Average number of large shells per batch     ...    27.16 (80.46%)
Average number of large basis fcns per batch ...    56.51 (80.85%)
Maximum spatial batch extension              ...  15.63, 19.53, 17.88 au
Average spatial batch extension              ...   2.48,  2.62,  2.95 au

Final grid set up in    0.9 sec
Final integration                            ... done (   0.8 sec)
Change in XC energy                          ...     0.000218271
Integrated number of electrons               ...    41.999996022
Previous integrated no of electrons          ...    41.997967428

----------------
TOTAL SCF ENERGY
----------------

Total Energy       :         -232.09204498 Eh           -6315.54562 eV

Components:
Nuclear Repulsion  :          201.39655385 Eh            5480.27884 eV
Electronic Energy  :         -433.48859883 Eh          -11795.82446 eV
One Electron Energy:         -710.09381726 Eh          -19322.63511 eV
Two Electron Energy:          276.60521843 Eh            7526.81065 eV

Virial components:
Potential Energy   :         -461.84346764 Eh          -12567.39967 eV
Kinetic Energy     :          229.75142266 Eh            6251.85405 eV
Virial Ratio       :            2.01018763


DFT components:
N(Alpha)           :       20.999998010775 electrons
N(Beta)            :       20.999998010775 electrons
N(Total)           :       41.999996021551 electrons
E(XC)              :      -23.548782097524 Eh       

---------------
SCF CONVERGENCE
---------------

  Last Energy change         ...   -2.3384e-09  Tolerance :   1.0000e-06
  Last MAX-Density change    ...    6.0862e-06  Tolerance :   1.0000e-05
  Last RMS-Density change    ...    4.2667e-07  Tolerance :   1.0000e-06
  Last DIIS Error            ...    3.3998e-06  Tolerance :   1.0000e-06

             **** THE GBW FILE WAS UPDATED (Scan_9.gbw) ****
             **** DENSITY FILE WAS UPDATED (Scan_9.scfp.tmp) ****
             **** ENERGY FILE WAS UPDATED (Scan_9.en.tmp) ****
----------------
ORBITAL ENERGIES
----------------

  NO   OCC          E(Eh)            E(eV) 
   0   2.0000     -10.304301      -280.3943 
   1   2.0000     -10.304067      -280.3879 
   2   2.0000     -10.304062      -280.3878 
   3   2.0000     -10.303518      -280.3730 
   4   2.0000     -10.303513      -280.3729 
   5   2.0000     -10.303279      -280.3665 
   6   2.0000      -0.981110       -26.6974 
   7   2.0000      -0.856750       -23.3134 
   8   2.0000      -0.856707       -23.3122 
   9   2.0000      -0.694069       -18.8866 
  10   2.0000      -0.693936       -18.8830 
  11   2.0000      -0.600997       -16.3540 
  12   2.0000      -0.550131       -14.9698 
  13   2.0000      -0.512997       -13.9594 
  14   2.0000      -0.496706       -13.5160 
  15   2.0000      -0.496463       -13.5095 
  16   2.0000      -0.477207       -12.9855 
  17   2.0000      -0.416622       -11.3369 
  18   2.0000      -0.416395       -11.3307 
  19   2.0000      -0.340607        -9.2684 
  20   2.0000      -0.340448        -9.2641 
  21   0.0000       0.082211         2.2371 
  22   0.0000       0.082291         2.2392 
  23   0.0000       0.117751         3.2042 
  24   0.0000       0.184703         5.0260 
  25   0.0000       0.184817         5.0291 
  26   0.0000       0.234072         6.3694 
  27   0.0000       0.243200         6.6178 
  28   0.0000       0.243418         6.6237 
  29   0.0000       0.268835         7.3154 
  30   0.0000       0.384127        10.4526 
  31   0.0000       0.384776        10.4703 
  32   0.0000       0.422285        11.4910 
  33   0.0000       0.423162        11.5148 
  34   0.0000       0.558687        15.2026 
  35   0.0000       0.617227        16.7956 
  36   0.0000       0.646790        17.6001 
  37   0.0000       0.647142        17.6096 
  38   0.0000       0.679611        18.4932 
  39   0.0000       0.692630        18.8474 
  40   0.0000       0.692977        18.8569 
  41   0.0000       0.706090        19.2137 
  42   0.0000       0.706470        19.2240 
  43   0.0000       0.718733        19.5577 
  44   0.0000       0.723397        19.6846 
  45   0.0000       0.723668        19.6920 
  46   0.0000       0.764781        20.8107 
  47   0.0000       0.765410        20.8279 
  48   0.0000       0.844801        22.9882 
  49   0.0000       0.859936        23.4000 
  50   0.0000       0.860025        23.4025 
  51   0.0000       0.883477        24.0406 
  52   0.0000       0.884003        24.0549 
  53   0.0000       0.910533        24.7769 
  54   0.0000       0.962451        26.1896 
  55   0.0000       1.056109        28.7382 
  56   0.0000       1.056703        28.7544 
  57   0.0000       1.070161        29.1206 
  58   0.0000       1.213960        33.0335 
  59   0.0000       1.214818        33.0569 
  60   0.0000       1.251673        34.0597 
  61   0.0000       1.252389        34.0792 
  62   0.0000       1.304971        35.5101 
  63   0.0000       1.347372        36.6639 
  64   0.0000       1.467533        39.9336 
  65   0.0000       1.467863        39.9426 
  66   0.0000       1.483649        40.3721 
  67   0.0000       1.585181        43.1350 
  68   0.0000       1.585665        43.1481 
  69   0.0000       1.615504        43.9601 
  70   0.0000       1.615860        43.9698 
  71   0.0000       1.731725        47.1226 
  72   0.0000       1.899286        51.6822 
  73   0.0000       1.904117        51.8137 
  74   0.0000       1.921305        52.2814 
  75   0.0000       1.922413        52.3115 
  76   0.0000       1.932897        52.5968 
  77   0.0000       2.181985        59.3748 
  78   0.0000       2.182326        59.3841 
  79   0.0000       2.261832        61.5476 
  80   0.0000       2.262222        61.5582 
  81   0.0000       2.272733        61.8442 
  82   0.0000       2.273908        61.8762 
  83   0.0000       2.418568        65.8126 
  84   0.0000       2.418602        65.8135 
  85   0.0000       2.447342        66.5956 
  86   0.0000       2.585609        70.3580 
  87   0.0000       2.586382        70.3790 
  88   0.0000       2.785408        75.7948 
  89   0.0000       2.790128        75.9232 
  90   0.0000       2.791043        75.9481 
  91   0.0000       2.812675        76.5368 
  92   0.0000       2.854701        77.6804 
  93   0.0000       2.855935        77.7139 
  94   0.0000       3.150585        85.7318 
  95   0.0000       3.472961        94.5041 

                    ********************************
                    * MULLIKEN POPULATION ANALYSIS *
                    ********************************

-----------------------
MULLIKEN ATOMIC CHARGES
-----------------------
   0 C :   -0.153972
   1 H :    0.153565
   2 C :   -0.153770
   3 H :    0.153711
   4 C :   -0.152557
   5 H :    0.153023
   6 C :   -0.153972
   7 H :    0.153565
   8 C :   -0.153770
   9 H :    0.153711
  10 C :   -0.152557
  11 H :    0.153023
Sum of atomic charges:    0.0000000

--------------------------------
MULLIKEN REDUCED ORBITAL CHARGES
--------------------------------
  0 C s       :     3.177317  s :     3.177317
      pz      :     0.989838  p :     2.940049
      px      :     1.035736
      py      :     0.914475
      dz2     :     0.003043  d :     0.036606
      dxz     :     0.002893
      dyz     :     0.006874
      dx2y2   :     0.012683
      dxy     :     0.011112
  1 H s       :     0.846435  s :     0.846435
  2 C s       :     3.179216  s :     3.179216
      pz      :     0.990658  p :     2.937900
      px      :     0.950688
      py      :     0.996553
      dz2     :     0.003029  d :     0.036655
      dxz     :     0.005625
      dyz     :     0.004168
      dx2y2   :     0.011337
      dxy     :     0.012496
  3 H s       :     0.846289  s :     0.846289
  4 C s       :     3.180310  s :     3.180310
      pz      :     0.990156  p :     2.935624
      px      :     0.934602
      py      :     1.010866
      dz2     :     0.003057  d :     0.036623
      dxz     :     0.006158
      dyz     :     0.003630
      dx2y2   :     0.011685
      dxy     :     0.012093
  5 H s       :     0.846977  s :     0.846977
  6 C s       :     3.177317  s :     3.177317
      pz      :     0.989838  p :     2.940049
      px      :     1.035736
      py      :     0.914475
      dz2     :     0.003043  d :     0.036606
      dxz     :     0.002893
      dyz     :     0.006874
      dx2y2   :     0.012683
      dxy     :     0.011112
  7 H s       :     0.846435  s :     0.846435
  8 C s       :     3.179216  s :     3.179216
      pz      :     0.990658  p :     2.937900
      px      :     0.950689
      py      :     0.996553
      dz2     :     0.003029  d :     0.036655
      dxz     :     0.005625
      dyz     :     0.004168
      dx2y2   :     0.011337
      dxy     :     0.012496
  9 H s       :     0.846289  s :     0.846289
 10 C s       :     3.180310  s :     3.180310
      pz      :     0.990156  p :     2.935624
      px      :     0.934602
      py      :     1.010866
      dz2     :     0.003057  d :     0.036623
      dxz     :     0.006158
      dyz     :     0.003630
      dx2y2   :     0.011685
      dxy     :     0.012093
 11 H s       :     0.846977  s :     0.846977


                     *******************************
                     * LOEWDIN POPULATION ANALYSIS *
                     *******************************

----------------------
LOEWDIN ATOMIC CHARGES
----------------------
   0 C :   -0.127459
   1 H :    0.127441
   2 C :   -0.127790
   3 H :    0.127626
   4 C :   -0.127275
   5 H :    0.127457
   6 C :   -0.127459
   7 H :    0.127441
   8 C :   -0.127790
   9 H :    0.127626
  10 C :   -0.127275
  11 H :    0.127457

-------------------------------
LOEWDIN REDUCED ORBITAL CHARGES
-------------------------------
  0 C s       :     2.927241  s :     2.927241
      pz      :     0.980932  p :     3.114123
      px      :     1.056400
      py      :     1.076792
      dz2     :     0.005773  d :     0.086095
      dxz     :     0.004056
      dyz     :     0.014781
      dx2y2   :     0.032358
      dxy     :     0.029127
  1 H s       :     0.872559  s :     0.872559
  2 C s       :     2.927343  s :     2.927343
      pz      :     0.981472  p :     3.114276
      px      :     1.070078
      py      :     1.062726
      dz2     :     0.005762  d :     0.086171
      dxz     :     0.011394
      dyz     :     0.007461
      dx2y2   :     0.029574
      dxy     :     0.031981
  3 H s       :     0.872374  s :     0.872374
  4 C s       :     2.927404  s :     2.927404
      pz      :     0.981059  p :     3.113739
      px      :     1.073256
      py      :     1.059424
      dz2     :     0.005779  d :     0.086132
      dxz     :     0.012824
      dyz     :     0.006022
      dx2y2   :     0.030375
      dxy     :     0.031132
  5 H s       :     0.872543  s :     0.872543
  6 C s       :     2.927241  s :     2.927241
      pz      :     0.980932  p :     3.114123
      px      :     1.056400
      py      :     1.076792
      dz2     :     0.005773  d :     0.086095
      dxz     :     0.004056
      dyz     :     0.014781
      dx2y2   :     0.032358
      dxy     :     0.029127
  7 H s       :     0.872559  s :     0.872559
  8 C s       :     2.927343  s :     2.927343
      pz      :     0.981472  p :     3.114276
      px      :     1.070078
      py      :     1.062726
      dz2     :     0.005762  d :     0.086171
      dxz     :     0.011394
      dyz     :     0.007461
      dx2y2   :     0.029574
      dxy     :     0.031981
  9 H s       :     0.872374  s :     0.872374
 10 C s       :     2.927404  s :     2.927404
      pz      :     0.981059  p :     3.113739
      px      :     1.073256
      py      :     1.059424
      dz2     :     0.005779  d :     0.086132
      dxz     :     0.012824
      dyz     :     0.006022
      dx2y2   :     0.030375
      dxy     :     0.031132
 11 H s       :     0.872543  s :     0.872543


                      *****************************
                      * MAYER POPULATION ANALYSIS *
                      *****************************

  NA   - Mulliken gross atomic population
  ZA   - Total nuclear charge
  QA   - Mulliken gross atomic charge
  VA   - Mayer's total valence
  BVA  - Mayer's bonded valence
  FA   - Mayer's free valence

  ATOM       NA         ZA         QA         VA         BVA        FA
  0 C      6.1540     6.0000    -0.1540     3.9493     3.9493     0.0000
  1 H      0.8464     1.0000     0.1536     0.9508     0.9508     0.0000
  2 C      6.1538     6.0000    -0.1538     3.9470     3.9470     0.0000
  3 H      0.8463     1.0000     0.1537     0.9507     0.9507     0.0000
  4 C      6.1526     6.0000    -0.1526     3.9474     3.9474    -0.0000
  5 H      0.8470     1.0000     0.1530     0.9509     0.9509    -0.0000
  6 C      6.1540     6.0000    -0.1540     3.9493     3.9493     0.0000
  7 H      0.8464     1.0000     0.1536     0.9508     0.9508     0.0000
  8 C      6.1538     6.0000    -0.1538     3.9470     3.9470     0.0000
  9 H      0.8463     1.0000     0.1537     0.9507     0.9507     0.0000
 10 C      6.1526     6.0000    -0.1526     3.9474     3.9474    -0.0000
 11 H      0.8470     1.0000     0.1530     0.9509     0.9509    -0.0000

  Mayer bond orders larger than 0.1
B(  0-C ,  1-H ) :   0.9309 B(  0-C ,  2-C ) :   1.4554 B(  0-C , 10-C ) :   1.4555 
B(  2-C ,  3-H ) :   0.9311 B(  2-C ,  4-C ) :   1.4535 B(  4-C ,  5-H ) :   0.9314 
B(  4-C ,  6-C ) :   1.4555 B(  6-C ,  7-H ) :   0.9309 B(  6-C ,  8-C ) :   1.4554 
B(  8-C ,  9-H ) :   0.9311 B(  8-C , 10-C ) :   1.4535 B( 10-C , 11-H ) :   0.9314 


-------
TIMINGS
-------

Total SCF time: 0 days 0 hours 0 min 41 sec 

Total time                  ....      41.122 sec
Sum of individual times     ....      40.966 sec  ( 99.6%)

Fock matrix formation       ....      39.428 sec  ( 95.9%)
  XC integration            ....       3.179 sec  (  8.1% of F)
    Basis function eval.    ....       1.632 sec  ( 51.4% of XC)
    Density eval.           ....       0.259 sec  (  8.2% of XC)
    XC-Functional eval.     ....       0.567 sec  ( 17.8% of XC)
    XC-Potential eval.      ....       0.431 sec  ( 13.5% of XC)
Diagonalization             ....       0.011 sec  (  0.0%)
Density matrix formation    ....       0.001 sec  (  0.0%)
Population analysis         ....       0.015 sec  (  0.0%)
Initial guess               ....       0.393 sec  (  1.0%)
Orbital Transformation      ....       0.000 sec  (  0.0%)
Orbital Orthonormalization  ....       0.000 sec  (  0.0%)
DIIS solution               ....       0.000 sec  (  0.0%)
Grid generation             ....       1.118 sec  (  2.7%)


-------------------------------------------------------------------------------
                          DFT DISPERSION CORRECTION                            
                                                                               
                              DFTD3 V3.1  Rev 1                                
                              USING zero damping                               
-------------------------------------------------------------------------------
The omegaB97X-D3 functional is recognized. Fit by Chai et al.
Active option DFTDOPT                   ...         3   

molecular C6(AA) [au] = 1677.463235 


            DFT-D V3
 parameters
 s6 scaling factor         :     1.0000 
 rs6 scaling factor        :     1.2810 
 s8 scaling factor         :     1.0000 
 rs8 scaling factor        :     1.0940 
 Damping factor alpha6     :    14.0000 
 Damping factor alpha8     :    16.0000 
 ad hoc parameters k1-k3   :    16.0000     1.3333    -4.0000 

 Edisp/kcal,au: -1.356337396995  -0.002161460995 
 E6   /kcal   :  -0.620985151 
 E8   /kcal   :  -0.735352246 
 % E8         :  54.216026780 

-------------------------   ----------------
Dispersion correction           -0.002161461
-------------------------   ----------------


-------------------------   --------------------
FINAL SINGLE POINT ENERGY      -232.094206441575
-------------------------   --------------------


                            ***************************************
                            *     ORCA property calculations      *
                            ***************************************

                                    ---------------------
                                    Active property flags
                                    ---------------------
   (+) Dipole Moment


------------------------------------------------------------------------------
                       ORCA ELECTRIC PROPERTIES CALCULATION
------------------------------------------------------------------------------

Dipole Moment Calculation                       ... on
Quadrupole Moment Calculation                   ... off
Polarizability Calculation                      ... off
GBWName                                         ... Scan_9.gbw
Electron density file                           ... Scan_9.scfp.tmp

-------------
DIPOLE MOMENT
-------------
                                X             Y             Z
Electronic contribution:     -0.00000      -0.00000       0.00000
Nuclear contribution   :      0.00000       0.00000      -0.00000
                        -----------------------------------------
Total Dipole Moment    :      0.00000      -0.00000      -0.00000
                        -----------------------------------------
Magnitude (a.u.)       :      0.00000
Magnitude (Debye)      :      0.00000


Timings for individual modules:

Sum of individual times         ...       41.460 sec (=   0.691 min)
GTO integral calculation        ...        0.316 sec (=   0.005 min)   0.8 %
SCF iterations                  ...       41.144 sec (=   0.686 min)  99.2 %
                             ****ORCA TERMINATED NORMALLY****
TOTAL RUN TIME: 0 days 0 hours 0 minutes 41 seconds 781 msec
