3
Point_1/orca1.out	Energy:     -76.3101095
O         -0.01758        1.63050        0.05141
H          0.78148        1.60004        0.02106
H         -0.32447        2.15400        0.57304
