3
Point_10/orca10.out	Energy:     -76.2747608
O         -0.18478        1.46299       -0.11550
H          1.12027        1.55597       -0.02285
H         -0.49605        2.36558        0.78386
