3
Point_11/orca11.out	Energy:     -76.2295336
O         -0.21576        1.43196       -0.14642
H          1.18921        1.54471       -0.03407
H         -0.53402        2.40787        0.82600
