3
Point_12/orca12.out	Energy:     -76.1830569
O         -0.24809        1.39957       -0.17869
H          1.26243        1.53234       -0.04640
H         -0.57490        2.45264        0.87061
