3
Point_13/orca13.out	Energy:     -76.1375709
O         -0.28206        1.36554       -0.21260
H          1.33745        1.52028       -0.05842
H         -0.61595        2.49872        0.91653
