3
Point_14/orca14.out	Energy:     -76.0943311
O         -0.31440        1.33313       -0.24489
H          1.41734        1.50457       -0.07407
H         -0.66349        2.54684        0.96447
