3
Point_15/orca15.out	Energy:     -76.0543515
O         -0.34705        1.30043       -0.27748
H          1.49724        1.48907       -0.08951
H         -0.71075        2.59504        1.01250
