3
Point_16/orca16.out	Energy:     -76.0175929
O         -0.37610        1.27133       -0.30648
H          1.58300        1.46794       -0.11057
H         -0.76746        2.64527        1.06255
