3
Point_17/orca17.out	Energy:     -75.9843108
O         -0.39898        1.24841       -0.32931
H          1.67683        1.43813       -0.14027
H         -0.83842        2.69800        1.11509
