3
Point_18/orca18.out	Energy:     -75.9538638
O         -0.39282        1.25459       -0.32315
H          1.80692        1.36834       -0.20981
H         -0.97467        2.76161        1.17848
