3
Point_19/orca19.out	Energy:     -75.9270519
O         -0.39560        1.25179       -0.32594
H          1.91862        1.31448       -0.26348
H         -1.08358        2.81826        1.23493
