3
Point_2/orca2.out	Energy:     -76.3355935
O         -0.02685        1.62121        0.04215
H          0.79832        1.59857        0.01960
H         -0.33203        2.16476        0.58376
