3
Point_20/orca20.out	Energy:     -75.9020763
O         -0.36660        1.28085       -0.29699
H          2.05721        1.22328       -0.35436
H         -1.25117        2.88042        1.29686
