3
Point_21/orca21.out	Energy:     -75.8791370
O         -0.32023        1.32730       -0.25070
H          2.19537        1.11923       -0.45803
H         -1.43570        2.93801        1.35424
