3
Point_22/orca22.out	Energy:     -75.8592472
O         -0.29199        1.35559       -0.22251
H          2.30917        1.04101       -0.53597
H         -1.57774        2.98794        1.40399
