3
Point_23/orca23.out	Energy:     -75.8380593
O         -0.16438        1.48343       -0.09513
H          2.44231        0.87845       -0.69795
H         -1.83849        3.02266        1.43860
