3
Point_24/orca24.out	Energy:     -75.8252359
O         -0.21944        1.42827       -0.15009
H          2.52049        0.88065       -0.69576
H         -1.86161        3.07562        1.49136
