3
Point_25/orca25.out	Energy:     -75.8131050
O         -0.27320        1.37441       -0.20376
H          2.59475        0.88385       -0.69256
H         -1.88210        3.12628        1.54184
