3
Point_26/orca26.out	Energy:     -75.8017872
O         -0.32560        1.32192       -0.25606
H          2.66574        0.88766       -0.68878
H         -1.90071        3.17496        1.59035
