3
Point_27/orca27.out	Energy:     -75.7898774
O         -0.32825        1.31926       -0.25871
H          2.75659        0.84415       -0.73213
H         -1.98889        3.22113        1.63635
