3
Point_28/orca28.out	Energy:     -75.7805302
O         -0.37730        1.27013       -0.30767
H          2.82634        0.84607       -0.73022
H         -2.00960        3.26835        1.68340
