3
Point_29/orca29.out	Energy:     -75.7715947
O         -0.42590        1.22144       -0.35619
H          2.89432        0.84853       -0.72776
H         -2.02898        3.31457        1.72946
