3
Point_3/orca3.out	Energy:     -76.3576326
O         -0.03760        1.61044        0.03143
H          0.81825        1.59667        0.01770
H         -0.34121        2.17743        0.59639
