3
Point_30/orca30.out	Energy:     -75.7633524
O         -0.47374        1.17352       -0.40393
H          2.96049        0.85132       -0.72498
H         -2.04732        3.35970        1.77442
