3
Point_31/orca31.out	Energy:     -75.7557917
O         -0.52493        1.12224       -0.45503
H          3.02225        0.85885       -0.71748
H         -2.05788        3.40345        1.81802
