3
Point_32/orca32.out	Energy:     -75.7488395
O         -0.57544        1.07163       -0.50546
H          3.08223        0.86676       -0.70960
H         -2.06735        3.44615        1.86057
