3
Point_33/orca33.out	Energy:     -75.7424694
O         -0.62523        1.02175       -0.55516
H          3.14060        0.87494       -0.70145
H         -2.07593        3.48785        1.90212
