3
Point_34/orca34.out	Energy:     -75.7671727
O         -0.67434        0.97255       -0.60418
H          3.19754        0.88331       -0.69310
H         -2.08376        3.52868        1.94280
