3
Point_35/orca35.out	Energy:     -75.7657513
O         -0.72283        0.92398       -0.65258
H          3.25323        0.89185       -0.68460
H         -2.09096        3.56871        1.98269
