3
Point_36/orca36.out	Energy:     -75.7263571
O         -0.77074        0.87598       -0.70041
H          3.30779        0.90052       -0.67596
H         -2.09761        3.60804        2.02188
