3
Point_37/orca37.out	Energy:     -75.7635403
O         -0.81813        0.82851       -0.74771
H          3.36135        0.90930       -0.66722
H         -2.10378        3.64674        2.06044
