3
Point_38/orca38.out	Energy:     -75.7176917
O         -0.86503        0.78152       -0.79453
H          3.41399        0.91817       -0.65838
H         -2.10952        3.68486        2.09842
