3
Point_39/orca39.out	Energy:     -75.7138646
O         -0.91150        0.73496       -0.84092
H          3.46581        0.92713       -0.64945
H         -2.11487        3.72245        2.13587
