3
Point_4/orca4.out	Energy:     -76.3743017
O         -0.04976        1.59825        0.01928
H          0.84172        1.59405        0.01509
H         -0.35252        2.19224        0.61114
