3
Point_40/orca40.out	Energy:     -75.7053629
O         -0.95757        0.68882       -0.88690
H          3.51686        0.93617       -0.64044
H         -2.11985        3.75956        2.17285
