3
Point_41/orca41.out	Energy:     -74.9333733
O         -1.00327        0.64304       -0.93252
H          3.56721        0.94528       -0.63136
H         -2.12451        3.79622        2.20939
