3
Point_42/orca42.out	Energy:     -74.9239856
O         -1.04863        0.59759       -0.97780
H          3.61692        0.95447       -0.62221
H         -2.12885        3.83248        2.24551
