3
Point_43/orca43.out	Energy:     -74.9150125
O         -1.09368        0.55246       -1.02277
H          3.66602        0.96373       -0.61298
H         -2.13289        3.86836        2.28126
