3
Point_44/orca44.out	Energy:     -74.9064231
O         -1.13845        0.50761       -1.06746
H          3.71455        0.97305       -0.60369
H         -2.13666        3.90388        2.31666
