3
Point_45/orca45.out	Energy:     -74.8981948
O         -1.18296        0.46302       -1.11189
H          3.76256        0.98245       -0.59433
H         -2.14016        3.93907        2.35173
