3
Point_5/orca5.out	Energy:     -76.3842493
O         -0.06450        1.58348        0.00456
H          0.87009        1.59092        0.01197
H         -0.36615        2.21014        0.62898
