3
Point_6/orca6.out	Energy:     -76.3849509
O         -0.08181        1.56614       -0.01272
H          0.90504        1.58642        0.00749
H         -0.38378        2.23198        0.65074
