3
Point_7/orca7.out	Energy:     -76.3741673
O         -0.10270        1.54522       -0.03356
H          0.94748        1.58085        0.00194
H         -0.40534        2.25847        0.67714
