3
Point_8/orca8.out	Energy:     -76.3508062
O         -0.12719        1.52068       -0.05801
H          0.99828        1.57381       -0.00508
H         -0.43164        2.29005        0.70860
