3
Point_9/orca9.out	Energy:     -76.3163560
O         -0.15490        1.49292       -0.08568
H          1.05657        1.56543       -0.01342
H         -0.46223        2.32619        0.74461
