
                                 *****************
                                 * O   R   C   A *
                                 *****************

           --- An Ab Initio, DFT and Semiempirical electronic structure package ---

                  #######################################################
                  #                        -***-                        #
                  #          Department of theory and spectroscopy      #
                  #               Directorship: Frank Neese             #
                  #        Max Planck Institute fuer Kohlenforschung    #
                  #                Kaiser Wilhelm Platz 1               #
                  #                 D-45470 Muelheim/Ruhr               #
                  #                      Germany                        #
                  #                                                     #
                  #                  All rights reserved                #
                  #                        -***-                        #
                  #######################################################


                         Program Version 4.2.0 -  RELEASE  -


 With contributions from (in alphabetic order):
   Daniel Aravena         : Magnetic Suceptibility
   Michael Atanasov       : Ab Initio Ligand Field Theory (pilot matlab implementation)
   Alexander A. Auer      : GIAO ZORA, VPT2
   Ute Becker             : Parallelization
   Giovanni Bistoni       : ED, misc. LED, open-shell LED, HFLED
   Martin Brehm           : Molecular dynamics
   Dmytro Bykov           : SCF Hessian
   Vijay G. Chilkuri      : MRCI spin determinant printing, contributions to CSF-ICE
   Dipayan Datta          : RHF DLPNO-CCSD density
   Achintya Kumar Dutta   : EOM-CC, STEOM-CC
   Dmitry Ganyushin       : Spin-Orbit,Spin-Spin,Magnetic field MRCI
   Miquel Garcia          : C-PCM Hessian, Gaussian charge scheme
   Yang Guo               : DLPNO-NEVPT2, CIM, IAO-localization
   Andreas Hansen         : Spin unrestricted coupled pair/coupled cluster methods
   Benjamin Helmich-Paris : CASSCF linear response (MC-RPA)
   Lee Huntington         : MR-EOM, pCC
   Robert Izsak           : Overlap fitted RIJCOSX, COSX-SCS-MP3, EOM
   Christian Kollmar      : KDIIS, OOCD, Brueckner-CCSD(T), CCSD density
   Simone Kossmann        : Meta GGA functionals, TD-DFT gradient, OOMP2, MP2 Hessian
   Martin Krupicka        : AUTO-CI
   Lucas Lang             : DCDCAS
   Dagmar Lenk            : GEPOL surface, SMD
   Dimitrios Liakos       : Extrapolation schemes; Compound Job, initial MDCI parallelization
   Dimitrios Manganas     : Further ROCIS development; embedding schemes
   Dimitrios Pantazis     : SARC Basis sets
   Taras Petrenko         : DFT Hessian,TD-DFT gradient, ASA, ECA, R-Raman, ABS, FL, XAS/XES, NRVS
   Peter Pinski           : DLPNO-MP2, DLPNO-MP2 Gradient
   Christoph Reimann      : Effective Core Potentials
   Marius Retegan         : Local ZFS, SOC
   Christoph Riplinger    : Optimizer, TS searches, QM/MM, DLPNO-CCSD(T), (RO)-DLPNO pert. Triples
   Tobias Risthaus        : Range-separated hybrids, TD-DFT gradient, RPA, STAB
   Michael Roemelt        : Original ROCIS implementation
   Masaaki Saitow         : Open-shell DLPNO-CCSD energy and density
   Barbara Sandhoefer     : DKH picture change effects
   Avijit Sen             : IP-ROCIS
   Kantharuban Sivalingam : CASSCF convergence, NEVPT2, FIC-MRCI
   Bernardo de Souza      : ESD, SOC TD-DFT
   Georgi Stoychev        : AutoAux, RI-MP2 NMR
   Willem Van den Heuvel  : Paramagnetic NMR
   Boris Wezisla          : Elementary symmetry handling
   Frank Wennmohs         : Technical directorship


 We gratefully acknowledge several colleagues who have allowed us to
 interface, adapt or use parts of their codes:
   Stefan Grimme, W. Hujo, H. Kruse,             : VdW corrections, initial TS optimization,
                  C. Bannwarth                     DFT functionals, gCP, sTDA/sTD-DF
   Ed Valeev, F. Pavosevic, A. Kumar             : LibInt (2-el integral package), F12 methods
   Garnet Chan, S. Sharma, J. Yang, R. Olivares  : DMRG
   Ulf Ekstrom                                   : XCFun DFT Library
   Mihaly Kallay                                 : mrcc  (arbitrary order and MRCC methods)
   Andreas Klamt, Michael Diedenhofen            : otool_cosmo (COSMO solvation model)
   Jiri Pittner, Ondrej Demel                    : Mk-CCSD
   Frank Weinhold                                : gennbo (NPA and NBO analysis)
   Christopher J. Cramer and Donald G. Truhlar   : smd solvation model
   Lars Goerigk                                  : TD-DFT with DH, B97 family of functionals
   V. Asgeirsson, H. Jonsson                     : NEB implementation
   FAccTs GmbH                                   : IRC, NEB, NEB-TS, Multilevel, MM, QM/MM, CI optimization
   S Lehtola, MJT Oliveira, MAL Marques          : LibXC Library


 Your calculation uses the libint2 library for the computation of 2-el integrals
 For citations please refer to: http://libint.valeyev.net

 Your ORCA version has been built with support for libXC version: 4.2.3
 For citations please refer to: https://tddft.org/programs/libxc/

 This ORCA versions uses:
   CBLAS   interface :  Fast vector & matrix operations
   LAPACKE interface :  Fast linear algebra routines
   SCALAPACK package :  Parallel linear algebra routines


XCFun DFT library Copyright 2009-2010 Ulf Ekstrom and contributors.
See http://admol.org/xcfun for more information. This is free soft-
ware; see the source code for copying conditions. There is ABSOLUTELY
NO WARRANTY; not even for MERCHANTABILITY or FITNESS FOR A PARTICULAR
PURPOSE. For details see the documentation. Scientific users of this 
library should cite U. Ekstrom, L. Visscher, R. Bast, A. J. Thorvald-
sen and K. Ruud; J.Chem.Theor.Comp. 2010, DOI: 10.1021/ct100117s
XCFun Version 0.99 
----- Orbital basis set information -----
Your calculation utilizes the basis: 6-31G(d)
   H-He, Li-Ne : W. J. Hehre, R. Ditchfield and J.A. Pople, J. Chem. Phys. 56, 2257 (1972).
                 Note: He and Ne are unpublished basis sets taken from the Gaussian program.
                 Note: Li and B from J. D. Dill and J. A. Pople, J. Chem. Phys. 62, 2921 (1975).
   Na - Ar     : M. M. Francl, W. J. Pietro, W. J. Hehre, J. S. Binkley, M. S. Gordon, 
                 D. J. DeFrees and J. A. Pople, J. Chem. Phys. 77, 3654 (1982).
   K - Zn      : V. A. Rassolov, J. A. Pople, M. A. Ratner, and T. L. Windus, J. Chem. Phys. 109, 1223 (1998).

================================================================================
                                        WARNINGS
                       Please study these warnings very carefully!
================================================================================


INFO   : the flag for use of LIBINT has been found!

================================================================================
                                       INPUT FILE
================================================================================
NAME = ala-ala.inp
|  1> ! wB97X 6-31G(d)  KDIIS NOSOSCF VerySlowConv Grid4
|  2> %paras
|  3> R= 0.83539,5.33539,46
|  4> end
|  5> * int 0 1
|  6>  N 0 0 0 0 0 0
|  7>  C  1   0  0 1.45800 0 0
|  8>  C  2   1  0 1.52824 109.58118 0
|  9>  O  3   2  1 1.22663 122.58864 197.47404
| 10>  H  1   2  3 1.01643 109.70959  76.14157
| 11>  H  2   1  3 1.09806 107.45435 114.40091
| 12>  C  2   1  3 1.53132 114.73009 235.78829
| 13>  H  7   2  1 1.08787 110.59740 295.93608
| 14>  H  7   2  1 1.08929 110.09427  56.41513
| 15>  H  7   2  1 1.08617 109.56252 175.54809
| 16>  H  1   2  3 1.01368 110.30339 194.04492
| 17>  N  3   2  1 {R} 114.32826  19.03211
| 18>  C  12  3  2 1.45533 124.07816 185.96393
| 19>  C  13 12  3 1.55187 110.92065 285.78181
| 20>  O  14 13 12 1.19811 122.35185 241.27800
| 21>  H  12  3  2 1.01185 116.87755   1.03184
| 22>  H  13 12  3 1.10100 107.78671  42.05027
| 23>  C  13 12  3 1.51908 109.81801 162.76687
| 24>  H  18 13 12 1.08733 110.66838 303.64512
| 25>  H  18 13 12 1.08713 109.82916  64.81798
| 26>  H  18 13 12 1.08585 109.63966 183.23467
| 27>  O  14 13 12 1.31986 114.52856  62.38485
| 28>  H  22 14 13 0.99708 112.68942 354.22167
| 29> *
| 30> 
| 31>                          ****END OF INPUT****
================================================================================

                       ******************************
                       * Parameter Scan Calculation *
                       ******************************

Trajectory settings:
    -> SCF surface will be mapped

There are 1 parameter(s) to be scanned
             R: range=   0.83539000 ..   5.33539000  steps=   46
There will be   46 energy evaluations


         *************************************************************
                                TRAJECTORY STEP   1
                  R  :   0.83539000
         *************************************************************
---------------------------------
CARTESIAN COORDINATES (ANGSTROEM)
---------------------------------
  N      0.000000    0.000000    0.000000
  C      1.458000    0.000000    0.000000
  C      1.970178    1.439858    0.000000
  O      3.120398    1.731930   -0.310335
  H     -0.342794    0.229196   -0.929027
  H      1.787359   -0.432743    0.953935
  C      2.098619   -0.782026   -1.150210
  H      1.854186   -1.839539   -1.076867
  H      1.741194   -0.401500   -2.106244
  H      3.177569   -0.662049   -1.115044
  H     -0.351738   -0.922278    0.230718
  N      1.407536    2.005273    0.248228
  C      1.625857    3.443654    0.211075
  C      2.593268    3.886661    1.340748
  O      2.264547    4.650151    2.203587
  H      0.497753    1.656174    0.520746
  H      2.124709    3.683645   -0.740635
  C      0.295736    4.169418    0.319004
  H     -0.382248    3.847130   -0.467606
  H     -0.152783    3.974882    1.290003
  H      0.456127    5.239956    0.233604
  O      3.805900    3.372376    1.256690
  H      3.888813    2.700458    0.524692

----------------------------
CARTESIAN COORDINATES (A.U.)
----------------------------
  NO LB      ZA    FRAG     MASS         X           Y           Z
   0 N     7.0000    0    14.007    0.000000    0.000000    0.000000
   1 C     6.0000    0    12.011    2.755221    0.000000    0.000000
   2 C     6.0000    0    12.011    3.723096    2.720938    0.000000
   3 O     8.0000    0    15.999    5.896698    3.272872   -0.586449
   4 H     1.0000    0     1.008   -0.647787    0.433117   -1.755607
   5 H     1.0000    0     1.008    3.377618   -0.817765    1.802677
   6 C     6.0000    0    12.011    3.965815   -1.477815   -2.173583
   7 H     1.0000    0     1.008    3.503904   -3.476226   -2.034983
   8 H     1.0000    0     1.008    3.290379   -0.758725   -3.980224
   9 H     1.0000    0     1.008    6.004736   -1.251092   -2.107128
  10 H     1.0000    0     1.008   -0.664688   -1.742853    0.435994
  11 N     7.0000    0    14.007    2.659858    3.789416    0.469083
  12 C     6.0000    0    12.011    3.072424    6.507563    0.398874
  13 C     6.0000    0    12.011    4.900567    7.344724    2.533646
  14 O     8.0000    0    15.999    4.279374    8.787512    4.164177
  15 H     1.0000    0     1.008    0.940617    3.129716    0.984068
  16 H     1.0000    0     1.008    4.015118    6.961081   -1.399597
  17 C     6.0000    0    12.011    0.558859    7.879059    0.602831
  18 H     1.0000    0     1.008   -0.722343    7.270022   -0.883647
  19 H     1.0000    0     1.008   -0.288718    7.511437    2.437752
  20 H     1.0000    0     1.008    0.861956    9.902082    0.441448
  21 O     8.0000    0    15.999    7.192109    6.372867    2.374800
  22 H     1.0000    0     1.008    7.348792    5.103126    0.991525

--------------------------------
INTERNAL COORDINATES (ANGSTROEM)
--------------------------------
 N      0   0   0     0.000000000000     0.00000000     0.00000000
 C      1   0   0     1.458000000000     0.00000000     0.00000000
 C      2   1   0     1.528240000000   109.58118000     0.00000000
 O      3   2   1     1.226630000000   122.58864000   197.47404000
 H      1   2   3     1.016430000000   109.70959000    76.14157000
 H      2   1   3     1.098060000000   107.45435000   114.40091000
 C      2   1   3     1.531320000000   114.73009000   235.78829000
 H      7   2   1     1.087870000000   110.59740000   295.93608000
 H      7   2   1     1.089290000000   110.09427000    56.41513000
 H      7   2   1     1.086170000000   109.56252000   175.54809000
 H      1   2   3     1.013680000000   110.30339000   194.04492000
 N      3   2   1     0.835390000000   114.32826000    19.03211000
 C     12   3   2     1.455330000000   124.07816000   185.96393000
 C     13  12   3     1.551870000000   110.92065000   285.78181000
 O     14  13  12     1.198110000000   122.35185000   241.27800000
 H     12   3   2     1.011850000000   116.87755000     1.03184000
 H     13  12   3     1.101000000000   107.78671000    42.05027000
 C     13  12   3     1.519080000000   109.81801000   162.76687000
 H     18  13  12     1.087330000000   110.66838000   303.64512000
 H     18  13  12     1.087130000000   109.82916000    64.81798000
 H     18  13  12     1.085850000000   109.63966000   183.23467000
 O     14  13  12     1.319860000000   114.52856000    62.38485000
 H     22  14  13     0.997080000000   112.68942000   354.22167000

---------------------------
INTERNAL COORDINATES (A.U.)
---------------------------
 N      0   0   0     0.000000000000     0.00000000     0.00000000
 C      1   0   0     2.755220703257     0.00000000     0.00000000
 C      2   1   0     2.887955066904   109.58118000     0.00000000
 O      3   2   1     2.317994767652   122.58864000   197.47404000
 H      1   2   3     1.920774334302   109.70959000    76.14157000
 H      2   1   3     2.075032678614   107.45435000   114.40091000
 C      2   1   3     2.893775423396   114.73009000   235.78829000
 H      7   2   1     2.055776369309   110.59740000   295.93608000
 H      7   2   1     2.058459780419   110.09427000    56.41513000
 H      7   2   1     2.052563834881   109.56252000   175.54809000
 H      1   2   3     1.915577587433   110.30339000   194.04492000
 N      3   2   1     1.578658315016   114.32826000    19.03211000
 C     12   3   2     2.750175134480   124.07816000   185.96393000
 C     13  12   3     2.932609295448   110.92065000   285.78181000
 O     14  13  12     2.264099778312   122.35185000   241.27800000
 H     12   3   2     1.912119388608   116.87755000     1.03184000
 H     13  12   3     2.080588473447   107.78671000    42.05027000
 C     13  12   3     2.870645175517   109.81801000   162.76687000
 H     18  13  12     2.054755917197   110.66838000   303.64512000
 H     18  13  12     2.054377971970   109.82916000    64.81798000
 H     18  13  12     2.051959122518   109.63966000   183.23467000
 O     14  13  12     2.494173935117   114.52856000    62.38485000
 H     22  14  13     1.884208133610   112.68942000   354.22167000

---------------------
BASIS SET INFORMATION
---------------------
There are 4 groups of distinct atoms

 Group   1 Type N   : 10s4p1d contracted to 3s2p1d pattern {631/31/1}
 Group   2 Type C   : 10s4p1d contracted to 3s2p1d pattern {631/31/1}
 Group   3 Type O   : 10s4p1d contracted to 3s2p1d pattern {631/31/1}
 Group   4 Type H   : 4s contracted to 2s pattern {31}

Atom   0N    basis set group =>   1
Atom   1C    basis set group =>   2
Atom   2C    basis set group =>   2
Atom   3O    basis set group =>   3
Atom   4H    basis set group =>   4
Atom   5H    basis set group =>   4
Atom   6C    basis set group =>   2
Atom   7H    basis set group =>   4
Atom   8H    basis set group =>   4
Atom   9H    basis set group =>   4
Atom  10H    basis set group =>   4
Atom  11N    basis set group =>   1
Atom  12C    basis set group =>   2
Atom  13C    basis set group =>   2
Atom  14O    basis set group =>   3
Atom  15H    basis set group =>   4
Atom  16H    basis set group =>   4
Atom  17C    basis set group =>   2
Atom  18H    basis set group =>   4
Atom  19H    basis set group =>   4
Atom  20H    basis set group =>   4
Atom  21O    basis set group =>   3
Atom  22H    basis set group =>   4
------------------------------------------------------------------------------
                           ORCA GTO INTEGRAL CALCULATION
------------------------------------------------------------------------------

                         BASIS SET STATISTICS AND STARTUP INFO

 # of primitive gaussian shells          ...  213
 # of primitive gaussian functions       ...  345
 # of contracted shells                  ...   90
 # of contracted basis functions         ...  178
 Highest angular momentum                ...    2
 Maximum contraction depth               ...    6
 Integral package used                   ... LIBINT
 Integral threshhold            Thresh   ...  1.000e-10
 Primitive cut-off              TCut     ...  1.000e-11


------------------------------ INTEGRAL EVALUATION ----------------------------


 * One electron integrals 
 Pre-screening matrix                    ... done
 Shell pair data                         ... done (   0.001 sec)

-------------------------------------------------------------------------------
                                 ORCA SCF
-------------------------------------------------------------------------------

------------
SCF SETTINGS
------------
Hamiltonian:
 Density Functional     Method          .... DFT(GTOs)
 Exchange Functional    Exchange        .... WB97X
 Correlation Functional Correlation     .... WB97X
 Gradients option       PostSCFGGA      .... off
 Hybrid DFT is turned on
   Fraction HF Exchange ScalHFX         ....  0.157706
   Scaling of DF-GGA-X  ScalDFX         ....  0.000000
   Scaling of DF-GGA-C  ScalDFC         ....  1.000000
   Scaling of DF-LDA-C  ScalLDAC        ....  1.000000
   Perturbative correction              ....  0.000000
   Density functional embedding theory  .... OFF
 Long-range corrected/Screened/Range-Separated Hybrid DFT is turned on
   Amount of maximum screened exact exchange              ....  0.842294
   Range separation parameter mu (erf(mu*r12)/r12)        ....  0.300000


General Settings:
 Integral files         IntName         .... ala-ala
 Hartree-Fock type      HFTyp           .... RHF
 Total Charge           Charge          ....    0
 Multiplicity           Mult            ....    1
 Number of Electrons    NEL             ....   86
 Basis Dimension        Dim             ....  178
 Nuclear Repulsion      ENuc            ....    700.2945691033 Eh

Convergence Acceleration:
 DIIS                   CNVDIIS         .... on
   Start iteration      DIISMaxIt       ....     0
   Startup error        DIISStart       ....  0.200000
   # of expansion vecs  DIISMaxEq       ....     5
   Bias factor          DIISBfac        ....   1.050
   Max. coefficient     DIISMaxC        ....  10.000
 Newton-Raphson         CNVNR           .... off
 SOSCF                  CNVSOSCF        .... off
 Level Shifting         CNVShift        .... off
 Zerner damping         CNVZerner       .... off
 Static damping         CNVDamp         .... off
 Fernandez-Rico         CNVRico         .... off

SCF Procedure:
 Maximum # iterations   MaxIter         ....   125
 SCF integral mode      SCFMode         .... Direct
   Integral package                     .... LIBINT
 Reset frequency        DirectResetFreq ....    20
 Integral Threshold     Thresh          ....  1.000e-10 Eh
 Primitive CutOff       TCut            ....  1.000e-11 Eh

Convergence Tolerance:
 Convergence Check Mode ConvCheckMode   .... All-Criteria
 Convergence forced     ConvForced      .... 0
 Energy Change          TolE            ....  1.000e-06 Eh
 Max Density Change     TolMaxP         ....  1.000e-05
 RMS Density Change     TolRMSP         ....  1.000e-06
 DIIS Error             TolErr          ....  1.000e-06


Diagonalization of the overlap matrix:
Smallest eigenvalue                        ... 8.343e-04
Time for diagonalization                   ...    0.099 sec
Threshold for overlap eigenvalues          ... 1.000e-08
Number of eigenvalues below threshold      ... 0
Time for construction of square roots      ...    0.001 sec
Total time needed                          ...    0.101 sec

-------------------
DFT GRID GENERATION
-------------------

General Integration Accuracy     IntAcc      ...  4.670
Radial Grid Type                 RadialGrid  ... Gauss-Chebyshev
Angular Grid (max. acc.)         AngularGrid ... Lebedev-302
Angular grid pruning method      GridPruning ... 3 (G Style)
Weight generation scheme         WeightScheme... Becke
Basis function cutoff            BFCut       ...    1.0000e-10
Integration weight cutoff        WCut        ...    1.0000e-14
Grids for H and He will be reduced by one unit

# of grid points (after initial pruning)     ... 109060 (   0.0 sec)
# of grid points (after weights+screening)   ...  97220 (   0.4 sec)
nearest neighbour list constructed           ...    0.0 sec
Grid point re-assignment to atoms done       ...    0.0 sec
Grid point division into batches done        ...    0.3 sec
Reduced shell lists constructed in    0.9 sec

Total number of grid points                  ...    97220
Total number of batches                      ...     1533
Average number of points per batch           ...       63
Average number of grid points per atom       ...     4227
Average number of shells per batch           ...    52.36 (58.18%)
Average number of basis functions per batch  ...   104.55 (58.74%)
Average number of large shells per batch     ...    36.91 (70.50%)
Average number of large basis fcns per batch ...    74.14 (70.91%)
Maximum spatial batch extension              ...  24.37, 19.58, 20.50 au
Average spatial batch extension              ...   2.30,  2.24,  2.32 au

Time for grid setup =    1.372 sec

------------------------------
INITIAL GUESS: MODEL POTENTIAL
------------------------------
Loading Hartree-Fock densities                     ... done
Calculating cut-offs                               ... done
Setting up the integral package                    ... done
Initializing the effective Hamiltonian             ... done
Starting the Coulomb interaction                   ... done (   0.2 sec)
Reading the grid                                   ... done
Mapping shells                                     ... done
Starting the XC term evaluation                    ... done (   0.9 sec)
  promolecular density results
     # of electrons  =     85.994116615
     EX              =    -72.167898113
     EC              =     -2.927489547
     EX+EC           =    -75.095387659
Transforming the Hamiltonian                       ... done (   0.0 sec)
Diagonalizing the Hamiltonian                      ... done (   0.0 sec)
Back transforming the eigenvectors                 ... done (   0.0 sec)
Now organizing SCF variables                       ... done
                      ------------------
                      INITIAL GUESS DONE (   2.5 sec)
                      ------------------
--------------
SCF ITERATIONS
--------------
ITER       Energy         Delta-E        Max-DP      RMS-DP      [F,P]   Gradient Norm
               ***  Starting incremental Fock matrix formation  ***
                             ****Resetting KDIIS****
                             ****Turning on KDIIS(Cayley)****
  0   -569.6170604336   0.000000000000 0.03562487  0.00122534  0.0900743   0.117426088
  1   -569.7810858259  -0.164025392310 0.03931343  0.00131747  0.0766851   0.095601625
  2   -569.8970676821  -0.115981856212 0.04846612  0.00201768  0.0610765   0.077539011
  3   -570.0315514830  -0.134483800809 0.07662514  0.00306881  0.0387330   0.048067114
  4   -570.1158115436  -0.084260060690 0.00390655  0.00015776  0.0040264   0.003015433
  5   -570.1161823488  -0.000370805169 0.00856687  0.00028261  0.0016781   0.001739342
  6   -570.1163603737  -0.000178024931 0.00215482  0.00004367  0.0007319   0.000787653
  7   -570.1163807456  -0.000020371872 0.00046082  0.00001390  0.0001336   0.000175499
  8   -570.1163818480  -0.000001102400 0.00040352  0.00000970  0.0001092   0.000066684
                          ***Energy convergence achieved***
  9   -570.1163820647  -0.000000216654 0.00010729  0.00000266  0.0000325   0.000037178
 10   -570.1163821077  -0.000000043063 0.00013969  0.00000251  0.0000288   0.000015677
                           ***RMSP convergence achieved***

            ***Energy convergence in two consecutive cycles with***
                    ***'reasonable' density convergence***
                       *** signaling convergence ***

                    *** KDIIS BlockDiag (127.572 sec) ***

               *****************************************************
               *                     SUCCESS                       *
               *           SCF CONVERGED AFTER  11 CYCLES          *
               *****************************************************

Setting up the final grid:

General Integration Accuracy     IntAcc      ...  5.010
Radial Grid Type                 RadialGrid  ... Gauss-Chebyshev
Angular Grid (max. acc.)         AngularGrid ... Lebedev-434
Angular grid pruning method      GridPruning ... 3 (G Style)
Weight generation scheme         WeightScheme... Becke
Basis function cutoff            BFCut       ...    1.0000e-10
Integration weight cutoff        WCut        ...    1.0000e-14
Grids for H and He will be reduced by one unit

# of grid points (after initial pruning)     ... 198198 (   0.1 sec)
# of grid points (after weights+screening)   ... 176287 (   0.7 sec)
nearest neighbour list constructed           ...    0.0 sec
Grid point re-assignment to atoms done       ...    0.0 sec
Grid point division into batches done        ...    1.1 sec
Reduced shell lists constructed in    2.2 sec

Total number of grid points                  ...   176287
Total number of batches                      ...     2766
Average number of points per batch           ...       63
Average number of grid points per atom       ...     7665
Average number of shells per batch           ...    50.68 (56.32%)
Average number of basis functions per batch  ...   100.96 (56.72%)
Average number of large shells per batch     ...    35.39 (69.83%)
Average number of large basis fcns per batch ...    70.95 (70.28%)
Maximum spatial batch extension              ...  23.09, 20.07, 20.53 au
Average spatial batch extension              ...   1.88,  1.84,  1.87 au

Final grid set up in    3.0 sec
Final integration                            ... done (   2.5 sec)
Change in XC energy                          ...    -0.001617373
Integrated number of electrons               ...    85.999973779
Previous integrated no of electrons          ...    85.999925536

----------------
TOTAL SCF ENERGY
----------------

Total Energy       :         -570.11799950 Eh          -15513.69947 eV

Components:
Nuclear Repulsion  :          700.29456910 Eh           19055.98401 eV
Electronic Energy  :        -1270.41256860 Eh          -34569.68348 eV
One Electron Energy:        -2165.34537302 Eh          -58922.04314 eV
Two Electron Energy:          894.93280442 Eh           24352.35966 eV

Virial components:
Potential Energy   :        -1141.68622702 Eh          -31066.86165 eV
Kinetic Energy     :          571.56822752 Eh           15553.16218 eV
Virial Ratio       :            1.99746272


DFT components:
N(Alpha)           :       42.999986889674 electrons
N(Beta)            :       42.999986889674 electrons
N(Total)           :       85.999973779348 electrons
E(XC)              :      -54.209044555897 Eh       
DFET-embed. en.    :        0.000000000000 Eh       

---------------
SCF CONVERGENCE
---------------

  Last Energy change         ...   -1.6254e-08  Tolerance :   1.0000e-06
  Last MAX-Density change    ...    1.9111e-05  Tolerance :   1.0000e-05
  Last RMS-Density change    ...    4.5912e-07  Tolerance :   1.0000e-06
  Last DIIS Error            ...    4.2291e-06  Tolerance :   1.0000e-06

             **** THE GBW FILE WAS UPDATED (ala-ala.gbw) ****
             **** DENSITY FILE WAS UPDATED (ala-ala.scfp) ****
             **** ENERGY FILE WAS UPDATED (ala-ala.en.tmp) ****
             **** THE GBW FILE WAS UPDATED (ala-ala.gbw) ****
             **** DENSITY FILE WAS UPDATED (ala-ala.scfp) ****
----------------
ORBITAL ENERGIES
----------------

  NO   OCC          E(Eh)            E(eV) 
   0   2.0000     -19.206570      -522.6373 
   1   2.0000     -19.181508      -521.9554 
   2   2.0000     -19.128205      -520.5049 
   3   2.0000     -14.464009      -393.5857 
   4   2.0000     -14.436889      -392.8477 
   5   2.0000     -10.383217      -282.5417 
   6   2.0000     -10.340499      -281.3793 
   7   2.0000     -10.326176      -280.9895 
   8   2.0000     -10.313388      -280.6416 
   9   2.0000     -10.267244      -279.3859 
  10   2.0000     -10.260532      -279.2033 
  11   2.0000      -1.309825       -35.6421 
  12   2.0000      -1.202257       -32.7151 
  13   2.0000      -1.124954       -30.6116 
  14   2.0000      -1.099504       -29.9190 
  15   2.0000      -1.061931       -28.8966 
  16   2.0000      -0.959446       -26.1079 
  17   2.0000      -0.891302       -24.2536 
  18   2.0000      -0.837120       -22.7792 
  19   2.0000      -0.784591       -21.3498 
  20   2.0000      -0.761815       -20.7300 
  21   2.0000      -0.732866       -19.9423 
  22   2.0000      -0.709442       -19.3049 
  23   2.0000      -0.693694       -18.8764 
  24   2.0000      -0.638271       -17.3682 
  25   2.0000      -0.612623       -16.6703 
  26   2.0000      -0.601210       -16.3597 
  27   2.0000      -0.560040       -15.2395 
  28   2.0000      -0.544974       -14.8295 
  29   2.0000      -0.537992       -14.6395 
  30   2.0000      -0.532186       -14.4815 
  31   2.0000      -0.523710       -14.2509 
  32   2.0000      -0.514769       -14.0076 
  33   2.0000      -0.510168       -13.8824 
  34   2.0000      -0.486043       -13.2259 
  35   2.0000      -0.475785       -12.9468 
  36   2.0000      -0.447337       -12.1726 
  37   2.0000      -0.428924       -11.6716 
  38   2.0000      -0.398578       -10.8458 
  39   2.0000      -0.392270       -10.6742 
  40   2.0000      -0.363541        -9.8925 
  41   2.0000      -0.353177        -9.6104 
  42   2.0000      -0.331707        -9.0262 
  43   0.0000       0.118784         3.2323 
  44   0.0000       0.136569         3.7162 
  45   0.0000       0.180001         4.8981 
  46   0.0000       0.189095         5.1455 
  47   0.0000       0.199240         5.4216 
  48   0.0000       0.225635         6.1398 
  49   0.0000       0.235820         6.4170 
  50   0.0000       0.242165         6.5896 
  51   0.0000       0.245650         6.6845 
  52   0.0000       0.249115         6.7788 
  53   0.0000       0.262364         7.1393 
  54   0.0000       0.269761         7.3406 
  55   0.0000       0.271427         7.3859 
  56   0.0000       0.301266         8.1979 
  57   0.0000       0.305689         8.3182 
  58   0.0000       0.322188         8.7672 
  59   0.0000       0.334502         9.1023 
  60   0.0000       0.341814         9.3012 
  61   0.0000       0.384877        10.4730 
  62   0.0000       0.388789        10.5795 
  63   0.0000       0.447512        12.1774 
  64   0.0000       0.465648        12.6709 
  65   0.0000       0.479249        13.0410 
  66   0.0000       0.546036        14.8584 
  67   0.0000       0.552475        15.0336 
  68   0.0000       0.591818        16.1042 
  69   0.0000       0.625059        17.0087 
  70   0.0000       0.646033        17.5794 
  71   0.0000       0.647481        17.6188 
  72   0.0000       0.660630        17.9767 
  73   0.0000       0.683341        18.5946 
  74   0.0000       0.699917        19.0457 
  75   0.0000       0.732696        19.9377 
  76   0.0000       0.749608        20.3979 
  77   0.0000       0.773361        21.0442 
  78   0.0000       0.784927        21.3589 
  79   0.0000       0.803834        21.8734 
  80   0.0000       0.819616        22.3029 
  81   0.0000       0.832366        22.6498 
  82   0.0000       0.838780        22.8244 
  83   0.0000       0.868647        23.6371 
  84   0.0000       0.874300        23.7909 
  85   0.0000       0.891742        24.2655 
  86   0.0000       0.916825        24.9481 
  87   0.0000       0.927495        25.2384 
  88   0.0000       0.935193        25.4479 
  89   0.0000       0.960065        26.1247 
  90   0.0000       0.973894        26.5010 
  91   0.0000       0.982350        26.7311 
  92   0.0000       1.000487        27.2246 
  93   0.0000       1.006961        27.4008 
  94   0.0000       1.011084        27.5130 
  95   0.0000       1.019945        27.7541 
  96   0.0000       1.038023        28.2460 
  97   0.0000       1.047297        28.4984 
  98   0.0000       1.057455        28.7748 
  99   0.0000       1.063085        28.9280 
 100   0.0000       1.077110        29.3096 
 101   0.0000       1.091009        29.6879 
 102   0.0000       1.115822        30.3631 
 103   0.0000       1.117240        30.4017 
 104   0.0000       1.155865        31.4527 
 105   0.0000       1.194777        32.5115 
 106   0.0000       1.206413        32.8282 
 107   0.0000       1.222551        33.2673 
 108   0.0000       1.261073        34.3155 
 109   0.0000       1.272158        34.6172 
 110   0.0000       1.319698        35.9108 
 111   0.0000       1.371098        37.3095 
 112   0.0000       1.385869        37.7114 
 113   0.0000       1.451871        39.5074 
 114   0.0000       1.470182        40.0057 
 115   0.0000       1.501116        40.8474 
 116   0.0000       1.511753        41.1369 
 117   0.0000       1.538519        41.8652 
 118   0.0000       1.571653        42.7668 
 119   0.0000       1.584789        43.1243 
 120   0.0000       1.652650        44.9709 
 121   0.0000       1.689823        45.9824 
 122   0.0000       1.720343        46.8129 
 123   0.0000       1.756066        47.7850 
 124   0.0000       1.779607        48.4256 
 125   0.0000       1.789597        48.6974 
 126   0.0000       1.820829        49.5473 
 127   0.0000       1.826124        49.6914 
 128   0.0000       1.860221        50.6192 
 129   0.0000       1.886529        51.3351 
 130   0.0000       1.889043        51.4035 
 131   0.0000       1.907503        51.9058 
 132   0.0000       1.947770        53.0015 
 133   0.0000       1.954812        53.1931 
 134   0.0000       1.974448        53.7275 
 135   0.0000       1.998657        54.3862 
 136   0.0000       2.018534        54.9271 
 137   0.0000       2.032455        55.3059 
 138   0.0000       2.048744        55.7491 
 139   0.0000       2.073104        56.4120 
 140   0.0000       2.089120        56.8478 
 141   0.0000       2.120600        57.7045 
 142   0.0000       2.130567        57.9757 
 143   0.0000       2.145992        58.3954 
 144   0.0000       2.174054        59.1590 
 145   0.0000       2.192790        59.6688 
 146   0.0000       2.211486        60.1776 
 147   0.0000       2.223437        60.5028 
 148   0.0000       2.272525        61.8385 
 149   0.0000       2.283786        62.1450 
 150   0.0000       2.310494        62.8717 
 151   0.0000       2.360406        64.2299 
 152   0.0000       2.401213        65.3403 
 153   0.0000       2.422493        65.9194 
 154   0.0000       2.429309        66.1049 
 155   0.0000       2.474979        67.3476 
 156   0.0000       2.502353        68.0925 
 157   0.0000       2.535176        68.9857 
 158   0.0000       2.541794        69.1657 
 159   0.0000       2.601448        70.7890 
 160   0.0000       2.636475        71.7421 
 161   0.0000       2.675212        72.7962 
 162   0.0000       2.703570        73.5679 
 163   0.0000       2.780749        75.6680 
 164   0.0000       2.800363        76.2018 
 165   0.0000       2.838450        77.2382 
 166   0.0000       2.863774        77.9272 
 167   0.0000       2.905420        79.0605 
 168   0.0000       2.943676        80.1015 
 169   0.0000       3.013001        81.9879 
 170   0.0000       3.071687        83.5849 
 171   0.0000       3.146196        85.6123 
 172   0.0000       3.169847        86.2559 
 173   0.0000       3.245456        88.3134 
 174   0.0000       3.295122        89.6648 
 175   0.0000       3.529541        96.0437 
 176   0.0000       3.753528       102.1387 
 177   0.0000       5.446947       148.2190 

                    ********************************
                    * MULLIKEN POPULATION ANALYSIS *
                    ********************************

-----------------------
MULLIKEN ATOMIC CHARGES
-----------------------
   0 N :   -0.786130
   1 C :   -0.146462
   2 C :    0.265041
   3 O :   -0.666299
   4 H :    0.328135
   5 H :    0.192239
   6 C :   -0.478795
   7 H :    0.153005
   8 H :    0.150071
   9 H :    0.210113
  10 H :    0.353277
  11 N :   -0.009488
  12 C :   -0.200162
  13 C :    0.557151
  14 O :   -0.415077
  15 H :    0.355703
  16 H :    0.223393
  17 C :   -0.506826
  18 H :    0.154393
  19 H :    0.186799
  20 H :    0.202196
  21 O :   -0.594173
  22 H :    0.471896
Sum of atomic charges:   -0.0000000

--------------------------------
MULLIKEN REDUCED ORBITAL CHARGES
--------------------------------
  0 N s       :     3.631753  s :     3.631753
      pz      :     1.440674  p :     4.121556
      px      :     1.214857
      py      :     1.466025
      dz2     :     0.011476  d :     0.032822
      dxz     :     0.005476
      dyz     :     0.000875
      dx2y2   :     0.009436
      dxy     :     0.005559
  1 C s       :     3.196566  s :     3.196566
      pz      :     1.083922  p :     2.891532
      px      :     0.761372
      py      :     1.046238
      dz2     :     0.012872  d :     0.058364
      dxz     :     0.010953
      dyz     :     0.007341
      dx2y2   :     0.016343
      dxy     :     0.010855
  2 C s       :     2.928049  s :     2.928049
      pz      :     0.818725  p :     2.631637
      px      :     0.915214
      py      :     0.897699
      dz2     :     0.018532  d :     0.175272
      dxz     :     0.038246
      dyz     :     0.018739
      dx2y2   :     0.056254
      dxy     :     0.043501
  3 O s       :     3.819425  s :     3.819425
      pz      :     1.700197  p :     4.823439
      px      :     1.360553
      py      :     1.762689
      dz2     :     0.002806  d :     0.023435
      dxz     :     0.007186
      dyz     :     0.001307
      dx2y2   :     0.007638
      dxy     :     0.004499
  4 H s       :     0.671865  s :     0.671865
  5 H s       :     0.807761  s :     0.807761
  6 C s       :     3.279984  s :     3.279984
      pz      :     0.999283  p :     3.164577
      px      :     1.124581
      py      :     1.040713
      dz2     :     0.009912  d :     0.034235
      dxz     :     0.004460
      dyz     :     0.005279
      dx2y2   :     0.011473
      dxy     :     0.003110
  7 H s       :     0.846995  s :     0.846995
  8 H s       :     0.849929  s :     0.849929
  9 H s       :     0.789887  s :     0.789887
 10 H s       :     0.646723  s :     0.646723
 11 N s       :     3.312587  s :     3.312587
      pz      :     1.325320  p :     3.624915
      px      :     1.229601
      py      :     1.069994
      dz2     :     0.005946  d :     0.071986
      dxz     :     0.007974
      dyz     :     0.012507
      dx2y2   :     0.033903
      dxy     :     0.011656
 12 C s       :     3.229217  s :     3.229217
      pz      :     1.124620  p :     2.913893
      px      :     1.010291
      py      :     0.778982
      dz2     :     0.010383  d :     0.057051
      dxz     :     0.012173
      dyz     :     0.006758
      dx2y2   :     0.017106
      dxy     :     0.010631
 13 C s       :     2.959180  s :     2.959180
      pz      :     0.812562  p :     2.349015
      px      :     0.757740
      py      :     0.778713
      dz2     :     0.027902  d :     0.134654
      dxz     :     0.033457
      dyz     :     0.015622
      dx2y2   :     0.027420
      dxy     :     0.030253
 14 O s       :     3.824490  s :     3.824490
      pz      :     1.438542  p :     4.561278
      px      :     1.725922
      py      :     1.396814
      dz2     :     0.008639  d :     0.029309
      dxz     :     0.005147
      dyz     :     0.007277
      dx2y2   :     0.004886
      dxy     :     0.003359
 15 H s       :     0.644297  s :     0.644297
 16 H s       :     0.776607  s :     0.776607
 17 C s       :     3.285186  s :     3.285186
      pz      :     1.091622  p :     3.187598
      px      :     0.985053
      py      :     1.110924
      dz2     :     0.007562  d :     0.034042
      dxz     :     0.010604
      dyz     :     0.002587
      dx2y2   :     0.007794
      dxy     :     0.005495
 18 H s       :     0.845607  s :     0.845607
 19 H s       :     0.813201  s :     0.813201
 20 H s       :     0.797804  s :     0.797804
 21 O s       :     3.831194  s :     3.831194
      pz      :     1.678341  p :     4.737006
      px      :     1.450020
      py      :     1.608645
      dz2     :     0.004157  d :     0.025974
      dxz     :     0.003774
      dyz     :     0.006632
      dx2y2   :     0.006925
      dxy     :     0.004486
 22 H s       :     0.528104  s :     0.528104


                     *******************************
                     * LOEWDIN POPULATION ANALYSIS *
                     *******************************

----------------------
LOEWDIN ATOMIC CHARGES
----------------------
   0 N :   -0.462430
   1 C :   -0.091827
   2 C :   -0.156663
   3 O :   -0.398528
   4 H :    0.237297
   5 H :    0.145383
   6 C :   -0.381999
   7 H :    0.125989
   8 H :    0.127374
   9 H :    0.158991
  10 H :    0.253646
  11 N :    0.096734
  12 C :   -0.088551
  13 C :    0.116132
  14 O :   -0.222107
  15 H :    0.288181
  16 H :    0.167256
  17 C :   -0.380924
  18 H :    0.128116
  19 H :    0.145937
  20 H :    0.157492
  21 O :   -0.310875
  22 H :    0.345376

-------------------------------
LOEWDIN REDUCED ORBITAL CHARGES
-------------------------------
  0 N s       :     3.248644  s :     3.248644
      pz      :     1.445800  p :     4.151944
      px      :     1.260494
      py      :     1.445651
      dz2     :     0.017567  d :     0.061842
      dxz     :     0.012279
      dyz     :     0.001881
      dx2y2   :     0.018297
      dxy     :     0.011818
  1 C s       :     2.890182  s :     2.890182
      pz      :     1.102377  p :     3.074097
      px      :     0.924332
      py      :     1.047389
      dz2     :     0.026303  d :     0.127547
      dxz     :     0.023646
      dyz     :     0.015829
      dx2y2   :     0.036416
      dxy     :     0.025353
  2 C s       :     2.687350  s :     2.687350
      pz      :     0.851247  p :     2.963044
      px      :     1.058173
      py      :     1.053625
      dz2     :     0.055574  d :     0.506269
      dxz     :     0.106488
      dyz     :     0.046263
      dx2y2   :     0.181716
      dxy     :     0.116228
  3 O s       :     3.496316  s :     3.496316
      pz      :     1.683593  p :     4.847536
      px      :     1.417889
      py      :     1.746055
      dz2     :     0.006534  d :     0.054675
      dxz     :     0.014267
      dyz     :     0.002989
      dx2y2   :     0.016787
      dxy     :     0.014099
  4 H s       :     0.762703  s :     0.762703
  5 H s       :     0.854617  s :     0.854617
  6 C s       :     2.968724  s :     2.968724
      pz      :     1.086543  p :     3.345765
      px      :     1.153748
      py      :     1.105474
      dz2     :     0.019176  d :     0.067510
      dxz     :     0.009427
      dyz     :     0.011633
      dx2y2   :     0.021181
      dxy     :     0.006092
  7 H s       :     0.874011  s :     0.874011
  8 H s       :     0.872626  s :     0.872626
  9 H s       :     0.841009  s :     0.841009
 10 H s       :     0.746354  s :     0.746354
 11 N s       :     2.910167  s :     2.910167
      pz      :     1.261673  p :     3.738939
      px      :     1.273545
      py      :     1.203721
      dz2     :     0.021378  d :     0.254160
      dxz     :     0.029482
      dyz     :     0.032866
      dx2y2   :     0.118167
      dxy     :     0.052266
 12 C s       :     2.896724  s :     2.896724
      pz      :     1.121836  p :     3.071102
      px      :     1.077959
      py      :     0.871307
      dz2     :     0.021647  d :     0.120725
      dxz     :     0.025203
      dyz     :     0.013969
      dx2y2   :     0.035267
      dxy     :     0.024639
 13 C s       :     2.844215  s :     2.844215
      pz      :     0.940983  p :     2.725834
      px      :     0.915324
      py      :     0.869526
      dz2     :     0.062433  d :     0.313819
      dxz     :     0.079097
      dyz     :     0.038284
      dx2y2   :     0.060767
      dxy     :     0.073238
 14 O s       :     3.538537  s :     3.538537
      pz      :     1.487309  p :     4.625847
      px      :     1.710277
      py      :     1.428261
      dz2     :     0.013698  d :     0.057723
      dxz     :     0.009285
      dyz     :     0.019439
      dx2y2   :     0.008262
      dxy     :     0.007040
 15 H s       :     0.711819  s :     0.711819
 16 H s       :     0.832744  s :     0.832744
 17 C s       :     2.961789  s :     2.961789
      pz      :     1.141230  p :     3.351836
      px      :     1.071325
      py      :     1.139281
      dz2     :     0.014230  d :     0.067299
      dxz     :     0.020487
      dyz     :     0.004444
      dx2y2   :     0.016100
      dxy     :     0.012039
 18 H s       :     0.871884  s :     0.871884
 19 H s       :     0.854063  s :     0.854063
 20 H s       :     0.842508  s :     0.842508
 21 O s       :     3.500294  s :     3.500294
      pz      :     1.660102  p :     4.758019
      px      :     1.508484
      py      :     1.589433
      dz2     :     0.008269  d :     0.052562
      dxz     :     0.007480
      dyz     :     0.010879
      dx2y2   :     0.015763
      dxy     :     0.010171
 22 H s       :     0.654624  s :     0.654624


                      *****************************
                      * MAYER POPULATION ANALYSIS *
                      *****************************

  NA   - Mulliken gross atomic population
  ZA   - Total nuclear charge
  QA   - Mulliken gross atomic charge
  VA   - Mayer's total valence
  BVA  - Mayer's bonded valence
  FA   - Mayer's free valence

  ATOM       NA         ZA         QA         VA         BVA        FA
  0 N      7.7861     7.0000    -0.7861     2.8096     2.8096    -0.0000
  1 C      6.1465     6.0000    -0.1465     3.7985     3.7985    -0.0000
  2 C      5.7350     6.0000     0.2650     3.9974     3.9974    -0.0000
  3 O      8.6663     8.0000    -0.6663     1.8581     1.8581     0.0000
  4 H      0.6719     1.0000     0.3281     0.8550     0.8550    -0.0000
  5 H      0.8078     1.0000     0.1922     0.9223     0.9223    -0.0000
  6 C      6.4788     6.0000    -0.4788     3.8372     3.8372    -0.0000
  7 H      0.8470     1.0000     0.1530     0.9361     0.9361     0.0000
  8 H      0.8499     1.0000     0.1501     0.9415     0.9415     0.0000
  9 H      0.7899     1.0000     0.2101     0.9369     0.9369    -0.0000
 10 H      0.6467     1.0000     0.3533     0.8457     0.8457     0.0000
 11 N      7.0095     7.0000    -0.0095     3.4268     3.4268     0.0000
 12 C      6.2002     6.0000    -0.2002     3.7651     3.7651    -0.0000
 13 C      5.4428     6.0000     0.5572     4.0512     4.0512    -0.0000
 14 O      8.4151     8.0000    -0.4151     2.1204     2.1204     0.0000
 15 H      0.6443     1.0000     0.3557     0.8577     0.8577     0.0000
 16 H      0.7766     1.0000     0.2234     0.9239     0.9239    -0.0000
 17 C      6.5068     6.0000    -0.5068     3.8332     3.8332    -0.0000
 18 H      0.8456     1.0000     0.1544     0.9341     0.9341    -0.0000
 19 H      0.8132     1.0000     0.1868     0.9341     0.9341    -0.0000
 20 H      0.7978     1.0000     0.2022     0.9327     0.9327    -0.0000
 21 O      8.5942     8.0000    -0.5942     1.8998     1.8998     0.0000
 22 H      0.5281     1.0000     0.4719     0.7962     0.7962     0.0000

  Mayer bond orders larger than 0.100000
B(  0-N ,  1-C ) :   0.9854 B(  0-N ,  4-H ) :   0.8506 B(  0-N , 10-H ) :   0.8456 
B(  0-N , 15-H ) :   0.1420 B(  1-C ,  2-C ) :   0.8449 B(  1-C ,  5-H ) :   0.9253 
B(  1-C ,  6-C ) :   1.0108 B(  2-C ,  3-O ) :   1.4588 B(  2-C , 11-N ) :   1.7690 
B(  3-O , 22-H ) :   0.1806 B(  6-C ,  7-H ) :   0.9513 B(  6-C ,  8-H ) :   0.9528 
B(  6-C ,  9-H ) :   0.9271 B( 11-N , 12-C ) :   0.8885 B( 11-N , 15-H ) :   0.7264 
B( 12-C , 13-C ) :   0.9068 B( 12-C , 16-H ) :   0.9097 B( 12-C , 17-C ) :   0.9950 
B( 13-C , 14-O ) :   1.9580 B( 13-C , 21-O ) :   1.1873 B( 17-C , 18-H ) :   0.9458 
B( 17-C , 19-H ) :   0.9396 B( 17-C , 20-H ) :   0.9404 B( 21-O , 22-H ) :   0.5893 


-------
TIMINGS
-------

Total SCF time: 0 days 0 hours 2 min 13 sec 

Total time                  ....     133.060 sec
Sum of individual times     ....     132.778 sec  ( 99.8%)

Fock matrix formation       ....     127.224 sec  ( 95.6%)
  XC integration            ....      17.609 sec  ( 13.8% of F)
    Basis function eval.    ....       5.746 sec  ( 32.6% of XC)
    Density eval.           ....       3.043 sec  ( 17.3% of XC)
    XC-Functional eval.     ....       5.331 sec  ( 30.3% of XC)
    XC-Potential eval.      ....       2.987 sec  ( 17.0% of XC)
Diagonalization             ....       0.035 sec  (  0.0%)
Density matrix formation    ....       0.007 sec  (  0.0%)
Population analysis         ....       0.004 sec  (  0.0%)
Initial guess               ....       1.169 sec  (  0.9%)
Orbital Transformation      ....       0.000 sec  (  0.0%)
Orbital Orthonormalization  ....       0.000 sec  (  0.0%)
DIIS solution               ....       0.000 sec  (  0.0%)
Grid generation             ....       4.339 sec  (  3.3%)

-------------------------   --------------------
FINAL SINGLE POINT ENERGY      -570.117999497084
-------------------------   --------------------

Storing actual gbw-file in ala-ala.001.gbw ... done

                            ***************************************
                            *     ORCA property calculations      *
                            ***************************************

                                    ---------------------
                                    Active property flags
                                    ---------------------
   (+) Dipole Moment


------------------------------------------------------------------------------
                       ORCA ELECTRIC PROPERTIES CALCULATION
------------------------------------------------------------------------------

Dipole Moment Calculation                       ... on
Quadrupole Moment Calculation                   ... off
Polarizability Calculation                      ... off
GBWName                                         ... ala-ala.gbw
Electron density file                           ... ala-ala.scfp
The origin for moment calculation is the CENTER OF MASS  = ( 3.560440,  4.098446  0.705817)

-------------
DIPOLE MOMENT
-------------
                                X             Y             Z
Electronic contribution:      5.68936       6.58486       5.36717
Nuclear contribution   :     -7.75794      -8.36366      -6.69360
                        -----------------------------------------
Total Dipole Moment    :     -2.06858      -1.77880      -1.32642
                        -----------------------------------------
Magnitude (a.u.)       :      3.03357
Magnitude (Debye)      :      7.71072



--------------------
Rotational spectrum 
--------------------
 
Rotational constants in cm-1:     0.071069     0.024717     0.020382 
Rotational constants in MHz :  2130.604788   740.995430   611.026420 

 Dipole components along the rotational axes: 
x,y,z [a.u.] :     2.526594    -1.632846     0.390749 
x,y,z [Debye]:     6.422091    -4.150366     0.993205 

 

         *************************************************************
                                TRAJECTORY STEP   2
                  R  :   0.93539000
         *************************************************************
---------------------------------
CARTESIAN COORDINATES (ANGSTROEM)
---------------------------------
  N      0.000000    0.000000    0.000000
  C      1.458000    0.000000    0.000000
  C      1.970178    1.439858    0.000000
  O      3.120398    1.731930   -0.310335
  H     -0.342794    0.229196   -0.929027
  H      1.787359   -0.432743    0.953935
  C      2.098619   -0.782026   -1.150210
  H      1.854186   -1.839539   -1.076867
  H      1.741194   -0.401500   -2.106244
  H      3.177569   -0.662049   -1.115044
  H     -0.351738   -0.922278    0.230718
  N      1.340185    2.072956    0.277942
  C      1.558506    3.511337    0.240789
  C      2.525918    3.954343    1.370462
  O      2.197197    4.717834    2.233302
  H      0.430403    1.723857    0.550460
  H      2.057358    3.751328   -0.710921
  C      0.228385    4.237101    0.348718
  H     -0.449598    3.914813   -0.437892
  H     -0.220134    4.042564    1.319717
  H      0.388777    5.307639    0.263318
  O      3.738549    3.440059    1.286404
  H      3.821463    2.768141    0.554407

----------------------------
CARTESIAN COORDINATES (A.U.)
----------------------------
  NO LB      ZA    FRAG     MASS         X           Y           Z
   0 N     7.0000    0    14.007    0.000000    0.000000    0.000000
   1 C     6.0000    0    12.011    2.755221    0.000000    0.000000
   2 C     6.0000    0    12.011    3.723096    2.720938    0.000000
   3 O     8.0000    0    15.999    5.896698    3.272872   -0.586449
   4 H     1.0000    0     1.008   -0.647787    0.433117   -1.755607
   5 H     1.0000    0     1.008    3.377618   -0.817765    1.802677
   6 C     6.0000    0    12.011    3.965815   -1.477815   -2.173583
   7 H     1.0000    0     1.008    3.503904   -3.476226   -2.034983
   8 H     1.0000    0     1.008    3.290379   -0.758725   -3.980224
   9 H     1.0000    0     1.008    6.004736   -1.251092   -2.107128
  10 H     1.0000    0     1.008   -0.664688   -1.742853    0.435994
  11 N     7.0000    0    14.007    2.532583    3.917318    0.525235
  12 C     6.0000    0    12.011    2.945149    6.635465    0.455026
  13 C     6.0000    0    12.011    4.773293    7.472626    2.589798
  14 O     8.0000    0    15.999    4.152100    8.915414    4.220328
  15 H     1.0000    0     1.008    0.813343    3.257618    1.040219
  16 H     1.0000    0     1.008    3.887844    7.088982   -1.343445
  17 C     6.0000    0    12.011    0.431585    8.006961    0.658982
  18 H     1.0000    0     1.008   -0.849618    7.397924   -0.827495
  19 H     1.0000    0     1.008   -0.415992    7.639339    2.493904
  20 H     1.0000    0     1.008    0.734681   10.029984    0.497600
  21 O     8.0000    0    15.999    7.064835    6.500769    2.430951
  22 H     1.0000    0     1.008    7.221518    5.231028    1.047676

--------------------------------
INTERNAL COORDINATES (ANGSTROEM)
--------------------------------
 N      0   0   0     0.000000000000     0.00000000     0.00000000
 C      1   0   0     1.458000000000     0.00000000     0.00000000
 C      2   1   0     1.528240000000   109.58118000     0.00000000
 O      3   2   1     1.226630000000   122.58864000   197.47404000
 H      1   2   3     1.016430000000   109.70959000    76.14157000
 H      2   1   3     1.098060000000   107.45435000   114.40091000
 C      2   1   3     1.531320000000   114.73009000   235.78829000
 H      7   2   1     1.087870000000   110.59740000   295.93608000
 H      7   2   1     1.089290000000   110.09427000    56.41513000
 H      7   2   1     1.086170000000   109.56252000   175.54809000
 H      1   2   3     1.013680000000   110.30339000   194.04492000
 N      3   2   1     0.935390000000   114.32826000    19.03211000
 C     12   3   2     1.455330000000   124.07816000   185.96393000
 C     13  12   3     1.551870000000   110.92065000   285.78181000
 O     14  13  12     1.198110000000   122.35185000   241.27800000
 H     12   3   2     1.011850000000   116.87755000     1.03184000
 H     13  12   3     1.101000000000   107.78671000    42.05027000
 C     13  12   3     1.519080000000   109.81801000   162.76687000
 H     18  13  12     1.087330000000   110.66838000   303.64512000
 H     18  13  12     1.087130000000   109.82916000    64.81798000
 H     18  13  12     1.085850000000   109.63966000   183.23467000
 O     14  13  12     1.319860000000   114.52856000    62.38485000
 H     22  14  13     0.997080000000   112.68942000   354.22167000

---------------------------
INTERNAL COORDINATES (A.U.)
---------------------------
 N      0   0   0     0.000000000000     0.00000000     0.00000000
 C      1   0   0     2.755220703257     0.00000000     0.00000000
 C      2   1   0     2.887955066904   109.58118000     0.00000000
 O      3   2   1     2.317994767652   122.58864000   197.47404000
 H      1   2   3     1.920774334302   109.70959000    76.14157000
 H      2   1   3     2.075032678614   107.45435000   114.40091000
 C      2   1   3     2.893775423396   114.73009000   235.78829000
 H      7   2   1     2.055776369309   110.59740000   295.93608000
 H      7   2   1     2.058459780419   110.09427000    56.41513000
 H      7   2   1     2.052563834881   109.56252000   175.54809000
 H      1   2   3     1.915577587433   110.30339000   194.04492000
 N      3   2   1     1.767630928409   114.32826000    19.03211000
 C     12   3   2     2.750175134480   124.07816000   185.96393000
 C     13  12   3     2.932609295448   110.92065000   285.78181000
 O     14  13  12     2.264099778312   122.35185000   241.27800000
 H     12   3   2     1.912119388608   116.87755000     1.03184000
 H     13  12   3     2.080588473447   107.78671000    42.05027000
 C     13  12   3     2.870645175517   109.81801000   162.76687000
 H     18  13  12     2.054755917197   110.66838000   303.64512000
 H     18  13  12     2.054377971970   109.82916000    64.81798000
 H     18  13  12     2.051959122518   109.63966000   183.23467000
 O     14  13  12     2.494173935117   114.52856000    62.38485000
 H     22  14  13     1.884208133610   112.68942000   354.22167000


Diagonalization of the overlap matrix:
Smallest eigenvalue                        ... 1.082e-03
Time for diagonalization                   ...    0.005 sec
Threshold for overlap eigenvalues          ... 1.000e-08
Number of eigenvalues below threshold      ... 0
Time for construction of square roots      ...    0.001 sec
Total time needed                          ...    0.006 sec

-------------------
DFT GRID GENERATION
-------------------

General Integration Accuracy     IntAcc      ...  4.670
Radial Grid Type                 RadialGrid  ... Gauss-Chebyshev
Angular Grid (max. acc.)         AngularGrid ... Lebedev-302
Angular grid pruning method      GridPruning ... 3 (G Style)
Weight generation scheme         WeightScheme... Becke
Basis function cutoff            BFCut       ...    1.0000e-10
Integration weight cutoff        WCut        ...    1.0000e-14
Grids for H and He will be reduced by one unit

# of grid points (after initial pruning)     ... 109060 (   0.1 sec)
# of grid points (after weights+screening)   ...  97344 (   0.4 sec)
nearest neighbour list constructed           ...    0.0 sec
Grid point re-assignment to atoms done       ...    0.0 sec
Grid point division into batches done        ...    0.3 sec
Reduced shell lists constructed in    1.0 sec

Total number of grid points                  ...    97344
Total number of batches                      ...     1533
Average number of points per batch           ...       63
Average number of grid points per atom       ...     4232
Average number of shells per batch           ...    51.95 (57.72%)
Average number of basis functions per batch  ...   103.70 (58.26%)
Average number of large shells per batch     ...    36.51 (70.27%)
Average number of large basis fcns per batch ...    73.32 (70.70%)
Maximum spatial batch extension              ...  20.70, 18.24, 19.74 au
Average spatial batch extension              ...   2.29,  2.25,  2.35 au

Time for grid setup =    1.393 sec

--------------
SCF ITERATIONS
--------------
ITER       Energy         Delta-E        Max-DP      RMS-DP      [F,P]   Gradient Norm
               ***  Starting incremental Fock matrix formation  ***
                             ****Resetting KDIIS****
                             ****Turning on KDIIS(Cayley)****
  0   -570.5134974706   0.000000000000 0.02162083  0.00038077  0.0194908   0.018619431
  1   -570.5163574255  -0.002859954822 0.03393182  0.00061797  0.0172446   0.016552138
  2   -570.5202753130  -0.003917887521 0.04612718  0.00095707  0.0142710   0.013564172
  3   -570.5255106507  -0.005235337717 0.05324550  0.00136536  0.0087801   0.008192214
  4   -570.5285995862  -0.003088935471 0.00122453  0.00003839  0.0003004   0.000328157
  5   -570.5286050405  -0.000005454338 0.00037759  0.00001209  0.0001133   0.000123140
                          ***Energy convergence achieved***
  6   -570.5286056896  -0.000000649062 0.00020660  0.00000532  0.0000489   0.000058589

            ***Energy convergence in two consecutive cycles with***
                    ***'reasonable' density convergence***
                       *** signaling convergence ***

                    *** KDIIS BlockDiag (83.220 sec) ***

               *****************************************************
               *                     SUCCESS                       *
               *           SCF CONVERGED AFTER   7 CYCLES          *
               *****************************************************

Setting up the final grid:

General Integration Accuracy     IntAcc      ...  5.010
Radial Grid Type                 RadialGrid  ... Gauss-Chebyshev
Angular Grid (max. acc.)         AngularGrid ... Lebedev-434
Angular grid pruning method      GridPruning ... 3 (G Style)
Weight generation scheme         WeightScheme... Becke
Basis function cutoff            BFCut       ...    1.0000e-10
Integration weight cutoff        WCut        ...    1.0000e-14
Grids for H and He will be reduced by one unit

# of grid points (after initial pruning)     ... 198198 (   0.1 sec)
# of grid points (after weights+screening)   ... 176515 (   0.7 sec)
nearest neighbour list constructed           ...    0.0 sec
Grid point re-assignment to atoms done       ...    0.0 sec
Grid point division into batches done        ...    1.1 sec
Reduced shell lists constructed in    2.3 sec

Total number of grid points                  ...   176515
Total number of batches                      ...     2768
Average number of points per batch           ...       63
Average number of grid points per atom       ...     7675
Average number of shells per batch           ...    50.29 (55.88%)
Average number of basis functions per batch  ...   100.15 (56.26%)
Average number of large shells per batch     ...    34.96 (69.51%)
Average number of large basis fcns per batch ...    70.05 (69.94%)
Maximum spatial batch extension              ...  23.09, 20.02, 21.15 au
Average spatial batch extension              ...   1.87,  1.82,  1.88 au

Final grid set up in    3.0 sec
Final integration                            ... done (   2.5 sec)
Change in XC energy                          ...    -0.001602293
Integrated number of electrons               ...    85.999993739
Previous integrated no of electrons          ...    85.999951971
Total Energy       :         -570.53020811 Eh          -15524.91623 eV
  Last Energy change         ...   -1.2816e-07  Tolerance :   1.0000e-06
  Last MAX-Density change    ...    6.3169e-05  Tolerance :   1.0000e-05
             **** THE GBW FILE WAS UPDATED (ala-ala.gbw) ****
             **** DENSITY FILE WAS UPDATED (ala-ala.scfp) ****
             **** ENERGY FILE WAS UPDATED (ala-ala.en.tmp) ****
             **** THE GBW FILE WAS UPDATED (ala-ala.gbw) ****
             **** DENSITY FILE WAS UPDATED (ala-ala.scfp) ****
Total SCF time: 0 days 0 hours 1 min 28 sec 

-------------------------   --------------------
FINAL SINGLE POINT ENERGY      -570.530208111211
-------------------------   --------------------

Storing actual gbw-file in ala-ala.002.gbw ... done

                            ***************************************
                            *     ORCA property calculations      *
                            ***************************************

                                    ---------------------
                                    Active property flags
                                    ---------------------
   (+) Dipole Moment


------------------------------------------------------------------------------
                       ORCA ELECTRIC PROPERTIES CALCULATION
------------------------------------------------------------------------------

Dipole Moment Calculation                       ... on
Quadrupole Moment Calculation                   ... off
Polarizability Calculation                      ... off
GBWName                                         ... ala-ala.gbw
Electron density file                           ... ala-ala.scfp
The origin for moment calculation is the CENTER OF MASS  = ( 3.490447,  4.168784  0.736697)

-------------
DIPOLE MOMENT
-------------
                                X             Y             Z
Electronic contribution:      5.73035       6.65946       5.37911
Nuclear contribution   :     -7.72039      -8.40140      -6.71017
                        -----------------------------------------
Total Dipole Moment    :     -1.99003      -1.74194      -1.33106
                        -----------------------------------------
Magnitude (a.u.)       :      2.96079
Magnitude (Debye)      :      7.52574



--------------------
Rotational spectrum 
--------------------
 
Rotational constants in cm-1:     0.070347     0.024143     0.019931 
Rotational constants in MHz :  2108.960038   723.779853   597.505103 

 Dipole components along the rotational axes: 
x,y,z [a.u.] :     2.438724    -1.627887     0.410988 
x,y,z [Debye]:     6.198744    -4.137760     1.044649 

 

         *************************************************************
                                TRAJECTORY STEP   3
                  R  :   1.03539000
         *************************************************************
---------------------------------
CARTESIAN COORDINATES (ANGSTROEM)
---------------------------------
  N      0.000000    0.000000    0.000000
  C      1.458000    0.000000    0.000000
  C      1.970178    1.439858    0.000000
  O      3.120398    1.731930   -0.310335
  H     -0.342794    0.229196   -0.929027
  H      1.787359   -0.432743    0.953935
  C      2.098619   -0.782026   -1.150210
  H      1.854186   -1.839539   -1.076867
  H      1.741194   -0.401500   -2.106244
  H      3.177569   -0.662049   -1.115044
  H     -0.351738   -0.922278    0.230718
  N      1.272835    2.140638    0.307656
  C      1.491155    3.579020    0.270503
  C      2.458567    4.022026    1.400176
  O      2.129846    4.785517    2.263016
  H      0.363052    1.791540    0.580174
  H      1.990007    3.819011   -0.681207
  C      0.161034    4.304784    0.378433
  H     -0.516949    3.982496   -0.408178
  H     -0.287484    4.110247    1.349431
  H      0.321426    5.375322    0.293032
  O      3.671199    3.507741    1.316118
  H      3.754112    2.835823    0.584121

----------------------------
CARTESIAN COORDINATES (A.U.)
----------------------------
  NO LB      ZA    FRAG     MASS         X           Y           Z
   0 N     7.0000    0    14.007    0.000000    0.000000    0.000000
   1 C     6.0000    0    12.011    2.755221    0.000000    0.000000
   2 C     6.0000    0    12.011    3.723096    2.720938    0.000000
   3 O     8.0000    0    15.999    5.896698    3.272872   -0.586449
   4 H     1.0000    0     1.008   -0.647787    0.433117   -1.755607
   5 H     1.0000    0     1.008    3.377618   -0.817765    1.802677
   6 C     6.0000    0    12.011    3.965815   -1.477815   -2.173583
   7 H     1.0000    0     1.008    3.503904   -3.476226   -2.034983
   8 H     1.0000    0     1.008    3.290379   -0.758725   -3.980224
   9 H     1.0000    0     1.008    6.004736   -1.251092   -2.107128
  10 H     1.0000    0     1.008   -0.664688   -1.742853    0.435994
  11 N     7.0000    0    14.007    2.405309    4.045220    0.581386
  12 C     6.0000    0    12.011    2.817875    6.763367    0.511177
  13 C     6.0000    0    12.011    4.646018    7.600528    2.645949
  14 O     8.0000    0    15.999    4.024825    9.043316    4.276480
  15 H     1.0000    0     1.008    0.686068    3.385520    1.096371
  16 H     1.0000    0     1.008    3.760569    7.216884   -1.287294
  17 C     6.0000    0    12.011    0.304310    8.134863    0.715134
  18 H     1.0000    0     1.008   -0.976892    7.525826   -0.771344
  19 H     1.0000    0     1.008   -0.543267    7.767241    2.550055
  20 H     1.0000    0     1.008    0.607407   10.157886    0.553751
  21 O     8.0000    0    15.999    6.937560    6.628670    2.487102
  22 H     1.0000    0     1.008    7.094243    5.358929    1.103828

--------------------------------
INTERNAL COORDINATES (ANGSTROEM)
--------------------------------
 N      0   0   0     0.000000000000     0.00000000     0.00000000
 C      1   0   0     1.458000000000     0.00000000     0.00000000
 C      2   1   0     1.528240000000   109.58118000     0.00000000
 O      3   2   1     1.226630000000   122.58864000   197.47404000
 H      1   2   3     1.016430000000   109.70959000    76.14157000
 H      2   1   3     1.098060000000   107.45435000   114.40091000
 C      2   1   3     1.531320000000   114.73009000   235.78829000
 H      7   2   1     1.087870000000   110.59740000   295.93608000
 H      7   2   1     1.089290000000   110.09427000    56.41513000
 H      7   2   1     1.086170000000   109.56252000   175.54809000
 H      1   2   3     1.013680000000   110.30339000   194.04492000
 N      3   2   1     1.035390000000   114.32826000    19.03211000
 C     12   3   2     1.455330000000   124.07816000   185.96393000
 C     13  12   3     1.551870000000   110.92065000   285.78181000
 O     14  13  12     1.198110000000   122.35185000   241.27800000
 H     12   3   2     1.011850000000   116.87755000     1.03184000
 H     13  12   3     1.101000000000   107.78671000    42.05027000
 C     13  12   3     1.519080000000   109.81801000   162.76687000
 H     18  13  12     1.087330000000   110.66838000   303.64512000
 H     18  13  12     1.087130000000   109.82916000    64.81798000
 H     18  13  12     1.085850000000   109.63966000   183.23467000
 O     14  13  12     1.319860000000   114.52856000    62.38485000
 H     22  14  13     0.997080000000   112.68942000   354.22167000

---------------------------
INTERNAL COORDINATES (A.U.)
---------------------------
 N      0   0   0     0.000000000000     0.00000000     0.00000000
 C      1   0   0     2.755220703257     0.00000000     0.00000000
 C      2   1   0     2.887955066904   109.58118000     0.00000000
 O      3   2   1     2.317994767652   122.58864000   197.47404000
 H      1   2   3     1.920774334302   109.70959000    76.14157000
 H      2   1   3     2.075032678614   107.45435000   114.40091000
 C      2   1   3     2.893775423396   114.73009000   235.78829000
 H      7   2   1     2.055776369309   110.59740000   295.93608000
 H      7   2   1     2.058459780419   110.09427000    56.41513000
 H      7   2   1     2.052563834881   109.56252000   175.54809000
 H      1   2   3     1.915577587433   110.30339000   194.04492000
 N      3   2   1     1.956603541801   114.32826000    19.03211000
 C     12   3   2     2.750175134480   124.07816000   185.96393000
 C     13  12   3     2.932609295448   110.92065000   285.78181000
 O     14  13  12     2.264099778312   122.35185000   241.27800000
 H     12   3   2     1.912119388608   116.87755000     1.03184000
 H     13  12   3     2.080588473447   107.78671000    42.05027000
 C     13  12   3     2.870645175517   109.81801000   162.76687000
 H     18  13  12     2.054755917197   110.66838000   303.64512000
 H     18  13  12     2.054377971970   109.82916000    64.81798000
 H     18  13  12     2.051959122518   109.63966000   183.23467000
 O     14  13  12     2.494173935117   114.52856000    62.38485000
 H     22  14  13     1.884208133610   112.68942000   354.22167000


Diagonalization of the overlap matrix:
Smallest eigenvalue                        ... 1.408e-03
Time for diagonalization                   ...    0.005 sec
Threshold for overlap eigenvalues          ... 1.000e-08
Number of eigenvalues below threshold      ... 0
Time for construction of square roots      ...    0.001 sec
Total time needed                          ...    0.007 sec

-------------------
DFT GRID GENERATION
-------------------

General Integration Accuracy     IntAcc      ...  4.670
Radial Grid Type                 RadialGrid  ... Gauss-Chebyshev
Angular Grid (max. acc.)         AngularGrid ... Lebedev-302
Angular grid pruning method      GridPruning ... 3 (G Style)
Weight generation scheme         WeightScheme... Becke
Basis function cutoff            BFCut       ...    1.0000e-10
Integration weight cutoff        WCut        ...    1.0000e-14
Grids for H and He will be reduced by one unit

# of grid points (after initial pruning)     ... 109060 (   0.1 sec)
# of grid points (after weights+screening)   ...  97452 (   0.4 sec)
nearest neighbour list constructed           ...    0.0 sec
Grid point re-assignment to atoms done       ...    0.0 sec
Grid point division into batches done        ...    0.3 sec
Reduced shell lists constructed in    0.9 sec

Total number of grid points                  ...    97452
Total number of batches                      ...     1535
Average number of points per batch           ...       63
Average number of grid points per atom       ...     4237
Average number of shells per batch           ...    51.47 (57.18%)
Average number of basis functions per batch  ...   102.71 (57.70%)
Average number of large shells per batch     ...    36.01 (69.97%)
Average number of large basis fcns per batch ...    72.36 (70.46%)
Maximum spatial batch extension              ...  20.69, 18.86, 19.74 au
Average spatial batch extension              ...   2.31,  2.26,  2.35 au

Time for grid setup =    1.388 sec

--------------
SCF ITERATIONS
--------------
ITER       Energy         Delta-E        Max-DP      RMS-DP      [F,P]   Gradient Norm
               ***  Starting incremental Fock matrix formation  ***
                             ****Resetting KDIIS****
                             ****Turning on KDIIS(Cayley)****
  0   -570.7403625369   0.000000000000 0.00915378  0.00021844  0.0179789   0.015653810
  1   -570.7424415566  -0.002079019692 0.01528152  0.00037330  0.0159659   0.013934603
  2   -570.7453588331  -0.002917276463 0.02503220  0.00061055  0.0132390   0.011436611
  3   -570.7492575860  -0.003898752942 0.03794466  0.00091737  0.0081038   0.006906608
  4   -570.7515710271  -0.002313441079 0.00099409  0.00003275  0.0002694   0.000274211
  5   -570.7515752320  -0.000004204976 0.00035357  0.00001047  0.0001010   0.000112246
                          ***Energy convergence achieved***
  6   -570.7515757664  -0.000000534395 0.00013191  0.00000408  0.0000372   0.000052771

            ***Energy convergence in two consecutive cycles with***
                    ***'reasonable' density convergence***
                       *** signaling convergence ***

                    *** KDIIS BlockDiag (81.742 sec) ***

               *****************************************************
               *                     SUCCESS                       *
               *           SCF CONVERGED AFTER   7 CYCLES          *
               *****************************************************

Setting up the final grid:

General Integration Accuracy     IntAcc      ...  5.010
Radial Grid Type                 RadialGrid  ... Gauss-Chebyshev
Angular Grid (max. acc.)         AngularGrid ... Lebedev-434
Angular grid pruning method      GridPruning ... 3 (G Style)
Weight generation scheme         WeightScheme... Becke
Basis function cutoff            BFCut       ...    1.0000e-10
Integration weight cutoff        WCut        ...    1.0000e-14
Grids for H and He will be reduced by one unit

# of grid points (after initial pruning)     ... 198198 (   0.1 sec)
# of grid points (after weights+screening)   ... 176720 (   0.7 sec)
nearest neighbour list constructed           ...    0.0 sec
Grid point re-assignment to atoms done       ...    0.0 sec
Grid point division into batches done        ...    1.1 sec
Reduced shell lists constructed in    2.2 sec

Total number of grid points                  ...   176720
Total number of batches                      ...     2773
Average number of points per batch           ...       63
Average number of grid points per atom       ...     7683
Average number of shells per batch           ...    49.85 (55.39%)
Average number of basis functions per batch  ...    99.24 (55.75%)
Average number of large shells per batch     ...    34.59 (69.38%)
Average number of large basis fcns per batch ...    69.29 (69.82%)
Maximum spatial batch extension              ...  23.09, 19.97, 20.75 au
Average spatial batch extension              ...   1.89,  1.84,  1.87 au

Final grid set up in    3.0 sec
Final integration                            ... done (   2.5 sec)
Change in XC energy                          ...    -0.001605611
Integrated number of electrons               ...    86.000020531
Previous integrated no of electrons          ...    85.999957893
Total Energy       :         -570.75318149 Eh          -15530.98365 eV
  Last Energy change         ...   -1.1125e-07  Tolerance :   1.0000e-06
  Last MAX-Density change    ...    6.6226e-05  Tolerance :   1.0000e-05
             **** THE GBW FILE WAS UPDATED (ala-ala.gbw) ****
             **** DENSITY FILE WAS UPDATED (ala-ala.scfp) ****
             **** ENERGY FILE WAS UPDATED (ala-ala.en.tmp) ****
             **** THE GBW FILE WAS UPDATED (ala-ala.gbw) ****
             **** DENSITY FILE WAS UPDATED (ala-ala.scfp) ****
Total SCF time: 0 days 0 hours 1 min 27 sec 

-------------------------   --------------------
FINAL SINGLE POINT ENERGY      -570.753181488937
-------------------------   --------------------

Storing actual gbw-file in ala-ala.003.gbw ... done

                            ***************************************
                            *     ORCA property calculations      *
                            ***************************************

                                    ---------------------
                                    Active property flags
                                    ---------------------
   (+) Dipole Moment


------------------------------------------------------------------------------
                       ORCA ELECTRIC PROPERTIES CALCULATION
------------------------------------------------------------------------------

Dipole Moment Calculation                       ... on
Quadrupole Moment Calculation                   ... off
Polarizability Calculation                      ... off
GBWName                                         ... ala-ala.gbw
Electron density file                           ... ala-ala.scfp
The origin for moment calculation is the CENTER OF MASS  = ( 3.420453,  4.239123  0.767577)

-------------
DIPOLE MOMENT
-------------
                                X             Y             Z
[...]
Total Energy       :         -570.61168056 Eh          -15527.13321 eV
  Last Energy change         ...   -6.0554e-07  Tolerance :   1.0000e-06
  Last MAX-Density change    ...    9.6643e-05  Tolerance :   1.0000e-05
             **** THE GBW FILE WAS UPDATED (ala-ala.gbw) ****
             **** DENSITY FILE WAS UPDATED (ala-ala.scfp) ****
             **** ENERGY FILE WAS UPDATED (ala-ala.en.tmp) ****
             **** THE GBW FILE WAS UPDATED (ala-ala.gbw) ****
             **** DENSITY FILE WAS UPDATED (ala-ala.scfp) ****
Total SCF time: 0 days 0 hours 0 min 32 sec 

-------------------------   --------------------
FINAL SINGLE POINT ENERGY      -570.611680558331
-------------------------   --------------------

Storing actual gbw-file in ala-ala.045.gbw ... done

                            ***************************************
                            *     ORCA property calculations      *
                            ***************************************

                                    ---------------------
                                    Active property flags
                                    ---------------------
   (+) Dipole Moment


------------------------------------------------------------------------------
                       ORCA ELECTRIC PROPERTIES CALCULATION
------------------------------------------------------------------------------

Dipole Moment Calculation                       ... on
Quadrupole Moment Calculation                   ... off
Polarizability Calculation                      ... off
GBWName                                         ... ala-ala.gbw
Electron density file                           ... ala-ala.scfp
The origin for moment calculation is the CENTER OF MASS  = ( 0.480718,  7.193348  2.064541)

-------------
DIPOLE MOMENT
-------------
                                X             Y             Z
Electronic contribution:      6.34671       6.81798       5.44866
Nuclear contribution   :     -6.10543     -10.02431      -7.42266
                        -----------------------------------------
Total Dipole Moment    :      0.24128      -3.20633      -1.97400
                        -----------------------------------------
Magnitude (a.u.)       :      3.77299
Magnitude (Debye)      :      9.59018



--------------------
Rotational spectrum 
--------------------
 
Rotational constants in cm-1:     0.060545     0.007619     0.007024 
Rotational constants in MHz :  1815.104690   228.414225   210.582772 

 Dipole components along the rotational axes: 
x,y,z [a.u.] :     3.554363    -1.171377    -0.479406 
x,y,z [Debye]:     9.034473    -2.977403    -1.218552 

 

         *************************************************************
                                TRAJECTORY STEP  46
                  R  :   5.33539000
         *************************************************************
---------------------------------
CARTESIAN COORDINATES (ANGSTROEM)
---------------------------------
  N      0.000000    0.000000    0.000000
  C      1.458000    0.000000    0.000000
  C      1.970178    1.439858    0.000000
  O      3.120398    1.731930   -0.310335
  H     -0.342794    0.229196   -0.929027
  H      1.787359   -0.432743    0.953935
  C      2.098619   -0.782026   -1.150210
  H      1.854186   -1.839539   -1.076867
  H      1.741194   -0.401500   -2.106244
  H      3.177569   -0.662049   -1.115044
  H     -0.351738   -0.922278    0.230718
  N     -1.623248    5.050995    1.585361
  C     -1.404928    6.489376    1.548208
  C     -0.437516    6.932383    2.677880
  O     -0.766237    7.695873    3.540720
  H     -2.533031    4.701897    1.857879
  H     -0.906075    6.729367    0.596498
  C     -2.735049    7.215141    1.656137
  H     -3.413032    6.892852    0.869527
  H     -3.183567    7.020604    2.627135
  H     -2.574657    8.285679    1.570737
  O      0.775116    6.418098    2.593822
  H      0.858029    5.746180    1.861825

----------------------------
CARTESIAN COORDINATES (A.U.)
----------------------------
  NO LB      ZA    FRAG     MASS         X           Y           Z
   0 N     7.0000    0    14.007    0.000000    0.000000    0.000000
   1 C     6.0000    0    12.011    2.755221    0.000000    0.000000
   2 C     6.0000    0    12.011    3.723096    2.720938    0.000000
   3 O     8.0000    0    15.999    5.896698    3.272872   -0.586449
   4 H     1.0000    0     1.008   -0.647787    0.433117   -1.755607
   5 H     1.0000    0     1.008    3.377618   -0.817765    1.802677
   6 C     6.0000    0    12.011    3.965815   -1.477815   -2.173583
   7 H     1.0000    0     1.008    3.503904   -3.476226   -2.034983
   8 H     1.0000    0     1.008    3.290379   -0.758725   -3.980224
   9 H     1.0000    0     1.008    6.004736   -1.251092   -2.107128
  10 H     1.0000    0     1.008   -0.664688   -1.742853    0.435994
  11 N     7.0000    0    14.007   -3.067495    9.544997    2.995898
  12 C     6.0000    0    12.011   -2.654928   12.263144    2.925688
  13 C     6.0000    0    12.011   -0.826785   13.100305    5.060460
  14 O     8.0000    0    15.999   -1.447978   14.543093    6.690991
  15 H     1.0000    0     1.008   -4.786735    8.885297    3.510882
  16 H     1.0000    0     1.008   -1.712234   12.716661    1.127217
  17 C     6.0000    0    12.011   -5.168493   13.634640    3.129645
  18 H     1.0000    0     1.008   -6.449695   13.025603    1.643167
  19 H     1.0000    0     1.008   -6.016070   13.267018    4.964567
  20 H     1.0000    0     1.008   -4.865396   15.657663    2.968263
  21 O     8.0000    0    15.999    1.464757   12.128448    4.901614
  22 H     1.0000    0     1.008    1.621440   10.858707    3.518339

--------------------------------
INTERNAL COORDINATES (ANGSTROEM)
--------------------------------
 N      0   0   0     0.000000000000     0.00000000     0.00000000
 C      1   0   0     1.458000000000     0.00000000     0.00000000
 C      2   1   0     1.528240000000   109.58118000     0.00000000
 O      3   2   1     1.226630000000   122.58864000   197.47404000
 H      1   2   3     1.016430000000   109.70959000    76.14157000
 H      2   1   3     1.098060000000   107.45435000   114.40091000
 C      2   1   3     1.531320000000   114.73009000   235.78829000
 H      7   2   1     1.087870000000   110.59740000   295.93608000
 H      7   2   1     1.089290000000   110.09427000    56.41513000
 H      7   2   1     1.086170000000   109.56252000   175.54809000
 H      1   2   3     1.013680000000   110.30339000   194.04492000
 N      3   2   1     5.335390000000   114.32826000    19.03211000
 C     12   3   2     1.455330000000   124.07816000   185.96393000
 C     13  12   3     1.551870000000   110.92065000   285.78181000
 O     14  13  12     1.198110000000   122.35185000   241.27800000
 H     12   3   2     1.011850000000   116.87755000     1.03184000
 H     13  12   3     1.101000000000   107.78671000    42.05027000
 C     13  12   3     1.519080000000   109.81801000   162.76687000
 H     18  13  12     1.087330000000   110.66838000   303.64512000
 H     18  13  12     1.087130000000   109.82916000    64.81798000
 H     18  13  12     1.085850000000   109.63966000   183.23467000
 O     14  13  12     1.319860000000   114.52856000    62.38485000
 H     22  14  13     0.997080000000   112.68942000   354.22167000

---------------------------
INTERNAL COORDINATES (A.U.)
---------------------------
 N      0   0   0     0.000000000000     0.00000000     0.00000000
 C      1   0   0     2.755220703257     0.00000000     0.00000000
 C      2   1   0     2.887955066904   109.58118000     0.00000000
 O      3   2   1     2.317994767652   122.58864000   197.47404000
 H      1   2   3     1.920774334302   109.70959000    76.14157000
 H      2   1   3     2.075032678614   107.45435000   114.40091000
 C      2   1   3     2.893775423396   114.73009000   235.78829000
 H      7   2   1     2.055776369309   110.59740000   295.93608000
 H      7   2   1     2.058459780419   110.09427000    56.41513000
 H      7   2   1     2.052563834881   109.56252000   175.54809000
 H      1   2   3     1.915577587433   110.30339000   194.04492000
 N      3   2   1    10.082425917662   114.32826000    19.03211000
 C     12   3   2     2.750175134480   124.07816000   185.96393000
 C     13  12   3     2.932609295448   110.92065000   285.78181000
 O     14  13  12     2.264099778312   122.35185000   241.27800000
 H     12   3   2     1.912119388608   116.87755000     1.03184000
 H     13  12   3     2.080588473447   107.78671000    42.05027000
 C     13  12   3     2.870645175517   109.81801000   162.76687000
 H     18  13  12     2.054755917197   110.66838000   303.64512000
 H     18  13  12     2.054377971970   109.82916000    64.81798000
 H     18  13  12     2.051959122518   109.63966000   183.23467000
 O     14  13  12     2.494173935117   114.52856000    62.38485000
 H     22  14  13     1.884208133610   112.68942000   354.22167000


Diagonalization of the overlap matrix:
Smallest eigenvalue                        ... 3.737e-03
Time for diagonalization                   ...    0.005 sec
Threshold for overlap eigenvalues          ... 1.000e-08
Number of eigenvalues below threshold      ... 0
Time for construction of square roots      ...    0.001 sec
Total time needed                          ...    0.006 sec

-------------------
DFT GRID GENERATION
-------------------

General Integration Accuracy     IntAcc      ...  4.670
Radial Grid Type                 RadialGrid  ... Gauss-Chebyshev
Angular Grid (max. acc.)         AngularGrid ... Lebedev-302
Angular grid pruning method      GridPruning ... 3 (G Style)
Weight generation scheme         WeightScheme... Becke
Basis function cutoff            BFCut       ...    1.0000e-10
Integration weight cutoff        WCut        ...    1.0000e-14
Grids for H and He will be reduced by one unit

# of grid points (after initial pruning)     ... 109060 (   0.0 sec)
# of grid points (after weights+screening)   ... 100435 (   0.4 sec)
nearest neighbour list constructed           ...    0.0 sec
Grid point re-assignment to atoms done       ...    0.0 sec
Grid point division into batches done        ...    0.3 sec
Reduced shell lists constructed in    0.8 sec

Total number of grid points                  ...   100435
Total number of batches                      ...     1580
Average number of points per batch           ...       63
Average number of grid points per atom       ...     4367
Average number of shells per batch           ...    35.05 (38.94%)
Average number of basis functions per batch  ...    70.50 (39.61%)
Average number of large shells per batch     ...    26.22 (74.82%)
Average number of large basis fcns per batch ...    52.64 (74.66%)
Maximum spatial batch extension              ...  21.32, 19.75, 22.38 au
Average spatial batch extension              ...   2.50,  2.49,  2.57 au

Time for grid setup =    1.240 sec

--------------
SCF ITERATIONS
--------------
ITER       Energy         Delta-E        Max-DP      RMS-DP      [F,P]   Gradient Norm
               ***  Starting incremental Fock matrix formation  ***
                             ****Resetting KDIIS****
                             ****Turning on KDIIS(Cayley)****
  0   -570.6088839792   0.000000000000 0.00007117  0.00000264  0.0001779   0.000097132
                          ***Energy convergence achieved***
  1   -570.6088841726  -0.000000193445 0.00015148  0.00000533  0.0001627   0.000088189
  2   -570.6088845113  -0.000000338656 0.00031697  0.00001024  0.0001321   0.000074912
  3   -570.6088850708  -0.000000559581 0.00053608  0.00001683  0.0000859   0.000045794
  4   -570.6088855266  -0.000000455712 0.00016003  0.00000480  0.0000437   0.000023421

            ***Energy convergence in two consecutive cycles with***
                    ***'reasonable' density convergence***
                       *** signaling convergence ***

                    *** KDIIS BlockDiag (32.221 sec) ***

               *****************************************************
               *                     SUCCESS                       *
               *           SCF CONVERGED AFTER   5 CYCLES          *
               *****************************************************

Setting up the final grid:

General Integration Accuracy     IntAcc      ...  5.010
Radial Grid Type                 RadialGrid  ... Gauss-Chebyshev
Angular Grid (max. acc.)         AngularGrid ... Lebedev-434
Angular grid pruning method      GridPruning ... 3 (G Style)
Weight generation scheme         WeightScheme... Becke
Basis function cutoff            BFCut       ...    1.0000e-10
Integration weight cutoff        WCut        ...    1.0000e-14
Grids for H and He will be reduced by one unit

# of grid points (after initial pruning)     ... 198198 (   0.1 sec)
# of grid points (after weights+screening)   ... 182132 (   0.7 sec)
nearest neighbour list constructed           ...    0.0 sec
Grid point re-assignment to atoms done       ...    0.0 sec
Grid point division into batches done        ...    1.2 sec
Reduced shell lists constructed in    2.1 sec

Total number of grid points                  ...   182132
Total number of batches                      ...     2858
Average number of points per batch           ...       63
Average number of grid points per atom       ...     7919
Average number of shells per batch           ...    33.95 (37.72%)
Average number of basis functions per batch  ...    68.23 (38.33%)
Average number of large shells per batch     ...    25.25 (74.38%)
Average number of large basis fcns per batch ...    50.53 (74.06%)
Maximum spatial batch extension              ...  23.09, 20.53, 22.10 au
Average spatial batch extension              ...   2.03,  2.01,  2.04 au

Final grid set up in    2.8 sec
Final integration                            ... done (   1.9 sec)
Change in XC energy                          ...    -0.001938537
Integrated number of electrons               ...    86.000001291
Previous integrated no of electrons          ...    85.999937759
Total Energy       :         -570.61082413 Eh          -15527.10991 eV
  Last Energy change         ...   -6.5180e-08  Tolerance :   1.0000e-06
  Last MAX-Density change    ...    6.5995e-05  Tolerance :   1.0000e-05
             **** THE GBW FILE WAS UPDATED (ala-ala.gbw) ****
             **** DENSITY FILE WAS UPDATED (ala-ala.scfp) ****
             **** ENERGY FILE WAS UPDATED (ala-ala.en.tmp) ****
             **** THE GBW FILE WAS UPDATED (ala-ala.gbw) ****
             **** DENSITY FILE WAS UPDATED (ala-ala.scfp) ****
Total SCF time: 0 days 0 hours 0 min 36 sec 

-------------------------   --------------------
FINAL SINGLE POINT ENERGY      -570.610824128641
-------------------------   --------------------

Storing actual gbw-file in ala-ala.046.gbw ... done

                            ***************************************
                            *     ORCA property calculations      *
                            ***************************************

                                    ---------------------
                                    Active property flags
                                    ---------------------
   (+) Dipole Moment


------------------------------------------------------------------------------
                       ORCA ELECTRIC PROPERTIES CALCULATION
------------------------------------------------------------------------------

Dipole Moment Calculation                       ... on
Quadrupole Moment Calculation                   ... off
Polarizability Calculation                      ... off
GBWName                                         ... ala-ala.gbw
Electron density file                           ... ala-ala.scfp
The origin for moment calculation is the CENTER OF MASS  = ( 0.410724,  7.263686  2.095421)

-------------
DIPOLE MOMENT
-------------
                                X             Y             Z
Electronic contribution:      6.33261       6.83300       5.45565
Nuclear contribution   :     -6.06788     -10.06206      -7.43923
                        -----------------------------------------
Total Dipole Moment    :      0.26474      -3.22906      -1.98358
                        -----------------------------------------
Magnitude (a.u.)       :      3.79888
Magnitude (Debye)      :      9.65598



--------------------
Rotational spectrum 
--------------------
 
Rotational constants in cm-1:     0.060501     0.007440     0.006871 
Rotational constants in MHz :  1813.772993   223.034760   205.984269 

 Dipole components along the rotational axes: 
x,y,z [a.u.] :     3.579925    -1.177528    -0.478592 
x,y,z [Debye]:     9.099447    -2.993038    -1.216484 

 
                              **** TRAJECTORY DONE ***

                         SUMMARY OF THE CALCULATED SURFACE

------------------
TRAJECTORY RESULTS
------------------

Column   1: R

The Calculated Surface using the 'Actual Energy'
   0.83539000 -570.11799950
   0.93539000 -570.53020811
   1.03539000 -570.75318149
   1.13539000 -570.86689699
   1.23539000 -570.91738742
   1.33539000 -570.93163997
   1.43539000 -570.92562455
   1.53539000 -570.90880580
   1.63539000 -570.88683474
   1.73539000 -570.86305068
   1.83539000 -570.83927356
   1.93539000 -570.81649625
   2.03539000 -570.79516432
   2.13539000 -570.77549878
   2.23539000 -570.75752146
   2.33539000 -570.74113601
   2.43539000 -570.72622235
   2.53539000 -570.71269248
   2.63539000 -570.70045399
   2.73539000 -570.68941194
   2.83539000 -570.67958951
   2.93539000 -570.67108669
   3.03539000 -570.66388782
   3.13539000 -570.65781726
   3.23539000 -570.65263146
   3.33539000 -570.64810694
   3.43539000 -570.64410896
   3.53539000 -570.64055430
   3.63539000 -570.63736066
   3.73539000 -570.63446887
   3.83539000 -570.63185238
   3.93539000 -570.62948096
   4.03539000 -570.62732814
   4.13539000 -570.62537970
   4.23539000 -570.62360814
   4.33539000 -570.62198729
   4.43539000 -570.62050189
   4.53539000 -570.61912957
   4.63539000 -570.61785588
   4.73539000 -570.61666898
   4.83539000 -570.61555632
   4.93539000 -570.61450785
   5.03539000 -570.61351809
   5.13539000 -570.61257698
   5.23539000 -570.61168056
   5.33539000 -570.61082413

The Calculated Surface using the SCF energy
   0.83539000 -570.11799950
   0.93539000 -570.53020811
   1.03539000 -570.75318149
   1.13539000 -570.86689699
   1.23539000 -570.91738742
   1.33539000 -570.93163997
   1.43539000 -570.92562455
   1.53539000 -570.90880580
   1.63539000 -570.88683474
   1.73539000 -570.86305068
   1.83539000 -570.83927356
   1.93539000 -570.81649625
   2.03539000 -570.79516432
   2.13539000 -570.77549878
   2.23539000 -570.75752146
   2.33539000 -570.74113601
   2.43539000 -570.72622235
   2.53539000 -570.71269248
   2.63539000 -570.70045399
   2.73539000 -570.68941194
   2.83539000 -570.67958951
   2.93539000 -570.67108669
   3.03539000 -570.66388782
   3.13539000 -570.65781726
   3.23539000 -570.65263146
   3.33539000 -570.64810694
   3.43539000 -570.64410896
   3.53539000 -570.64055430
   3.63539000 -570.63736066
   3.73539000 -570.63446887
   3.83539000 -570.63185238
   3.93539000 -570.62948096
   4.03539000 -570.62732814
   4.13539000 -570.62537970
   4.23539000 -570.62360814
   4.33539000 -570.62198729
   4.43539000 -570.62050189
   4.53539000 -570.61912957
   4.63539000 -570.61785588
   4.73539000 -570.61666898
   4.83539000 -570.61555632
   4.93539000 -570.61450785
   5.03539000 -570.61351809
   5.13539000 -570.61257698
   5.23539000 -570.61168056
   5.33539000 -570.61082413


Timings for individual modules:

Sum of individual times         ...     3211.018 sec (=  53.517 min)
GTO integral calculation        ...       14.036 sec (=   0.234 min)   0.4 %
SCF iterations                  ...     3196.982 sec (=  53.283 min)  99.6 %
                             ****ORCA TERMINATED NORMALLY****
TOTAL RUN TIME: 0 days 0 hours 53 minutes 35 seconds 981 msec
