
                                 *****************
                                 * O   R   C   A *
                                 *****************

           --- An Ab Initio, DFT and Semiempirical electronic structure package ---

                  #######################################################
                  #                        -***-                        #
                  #          Department of theory and spectroscopy      #
                  #               Directorship: Frank Neese             #
                  #        Max Planck Institute fuer Kohlenforschung    #
                  #                Kaiser Wilhelm Platz 1               #
                  #                 D-45470 Muelheim/Ruhr               #
                  #                      Germany                        #
                  #                                                     #
                  #                  All rights reserved                #
                  #                        -***-                        #
                  #######################################################


                         Program Version 4.2.0 -  RELEASE  -


 With contributions from (in alphabetic order):
   Daniel Aravena         : Magnetic Suceptibility
   Michael Atanasov       : Ab Initio Ligand Field Theory (pilot matlab implementation)
   Alexander A. Auer      : GIAO ZORA, VPT2
   Ute Becker             : Parallelization
   Giovanni Bistoni       : ED, misc. LED, open-shell LED, HFLED
   Martin Brehm           : Molecular dynamics
   Dmytro Bykov           : SCF Hessian
   Vijay G. Chilkuri      : MRCI spin determinant printing, contributions to CSF-ICE
   Dipayan Datta          : RHF DLPNO-CCSD density
   Achintya Kumar Dutta   : EOM-CC, STEOM-CC
   Dmitry Ganyushin       : Spin-Orbit,Spin-Spin,Magnetic field MRCI
   Miquel Garcia          : C-PCM Hessian, Gaussian charge scheme
   Yang Guo               : DLPNO-NEVPT2, CIM, IAO-localization
   Andreas Hansen         : Spin unrestricted coupled pair/coupled cluster methods
   Benjamin Helmich-Paris : CASSCF linear response (MC-RPA)
   Lee Huntington         : MR-EOM, pCC
   Robert Izsak           : Overlap fitted RIJCOSX, COSX-SCS-MP3, EOM
   Christian Kollmar      : KDIIS, OOCD, Brueckner-CCSD(T), CCSD density
   Simone Kossmann        : Meta GGA functionals, TD-DFT gradient, OOMP2, MP2 Hessian
   Martin Krupicka        : AUTO-CI
   Lucas Lang             : DCDCAS
   Dagmar Lenk            : GEPOL surface, SMD
   Dimitrios Liakos       : Extrapolation schemes; Compound Job, initial MDCI parallelization
   Dimitrios Manganas     : Further ROCIS development; embedding schemes
   Dimitrios Pantazis     : SARC Basis sets
   Taras Petrenko         : DFT Hessian,TD-DFT gradient, ASA, ECA, R-Raman, ABS, FL, XAS/XES, NRVS
   Peter Pinski           : DLPNO-MP2, DLPNO-MP2 Gradient
   Christoph Reimann      : Effective Core Potentials
   Marius Retegan         : Local ZFS, SOC
   Christoph Riplinger    : Optimizer, TS searches, QM/MM, DLPNO-CCSD(T), (RO)-DLPNO pert. Triples
   Tobias Risthaus        : Range-separated hybrids, TD-DFT gradient, RPA, STAB
   Michael Roemelt        : Original ROCIS implementation
   Masaaki Saitow         : Open-shell DLPNO-CCSD energy and density
   Barbara Sandhoefer     : DKH picture change effects
   Avijit Sen             : IP-ROCIS
   Kantharuban Sivalingam : CASSCF convergence, NEVPT2, FIC-MRCI
   Bernardo de Souza      : ESD, SOC TD-DFT
   Georgi Stoychev        : AutoAux, RI-MP2 NMR
   Willem Van den Heuvel  : Paramagnetic NMR
   Boris Wezisla          : Elementary symmetry handling
   Frank Wennmohs         : Technical directorship


 We gratefully acknowledge several colleagues who have allowed us to
 interface, adapt or use parts of their codes:
   Stefan Grimme, W. Hujo, H. Kruse,             : VdW corrections, initial TS optimization,
                  C. Bannwarth                     DFT functionals, gCP, sTDA/sTD-DF
   Ed Valeev, F. Pavosevic, A. Kumar             : LibInt (2-el integral package), F12 methods
   Garnet Chan, S. Sharma, J. Yang, R. Olivares  : DMRG
   Ulf Ekstrom                                   : XCFun DFT Library
   Mihaly Kallay                                 : mrcc  (arbitrary order and MRCC methods)
   Andreas Klamt, Michael Diedenhofen            : otool_cosmo (COSMO solvation model)
   Jiri Pittner, Ondrej Demel                    : Mk-CCSD
   Frank Weinhold                                : gennbo (NPA and NBO analysis)
   Christopher J. Cramer and Donald G. Truhlar   : smd solvation model
   Lars Goerigk                                  : TD-DFT with DH, B97 family of functionals
   V. Asgeirsson, H. Jonsson                     : NEB implementation
   FAccTs GmbH                                   : IRC, NEB, NEB-TS, Multilevel, MM, QM/MM, CI optimization
   S Lehtola, MJT Oliveira, MAL Marques          : LibXC Library


 Your calculation uses the libint2 library for the computation of 2-el integrals
 For citations please refer to: http://libint.valeyev.net

 Your ORCA version has been built with support for libXC version: 4.2.3
 For citations please refer to: https://tddft.org/programs/libxc/

 This ORCA versions uses:
   CBLAS   interface :  Fast vector & matrix operations
   LAPACKE interface :  Fast linear algebra routines
   SCALAPACK package :  Parallel linear algebra routines


XCFun DFT library Copyright 2009-2010 Ulf Ekstrom and contributors.
See http://admol.org/xcfun for more information. This is free soft-
ware; see the source code for copying conditions. There is ABSOLUTELY
NO WARRANTY; not even for MERCHANTABILITY or FITNESS FOR A PARTICULAR
PURPOSE. For details see the documentation. Scientific users of this 
library should cite U. Ekstrom, L. Visscher, R. Bast, A. J. Thorvald-
sen and K. Ruud; J.Chem.Theor.Comp. 2010, DOI: 10.1021/ct100117s
XCFun Version 0.99 
----- Orbital basis set information -----
Your calculation utilizes the basis: 6-31G(d)
   H-He, Li-Ne : W. J. Hehre, R. Ditchfield and J.A. Pople, J. Chem. Phys. 56, 2257 (1972).
                 Note: He and Ne are unpublished basis sets taken from the Gaussian program.
                 Note: Li and B from J. D. Dill and J. A. Pople, J. Chem. Phys. 62, 2921 (1975).
   Na - Ar     : M. M. Francl, W. J. Pietro, W. J. Hehre, J. S. Binkley, M. S. Gordon, 
                 D. J. DeFrees and J. A. Pople, J. Chem. Phys. 77, 3654 (1982).
   K - Zn      : V. A. Rassolov, J. A. Pople, M. A. Ratner, and T. L. Windus, J. Chem. Phys. 109, 1223 (1998).

================================================================================
                                        WARNINGS
                       Please study these warnings very carefully!
================================================================================


INFO   : the flag for use of LIBINT has been found!

================================================================================
                                       INPUT FILE
================================================================================
NAME = aspartame.inp
|  1> ! wB97X 6-31G(d)  KDIIS NOSOSCF VerySlowConv Grid4
|  2> %paras
|  3> R=0.8428,5.3428,46
|  4> end
|  5> * int 0 1
|  6>  C 0 0 0 0 0 0
|  7>  C   1   0  0  1.38187 0 0
|  8>  C   2   1  0  1.38706 120.08012 0
|  9>  C   3   2  1  1.38531 119.77147 359.83419
| 10>  C   4   3  2  1.38410 119.94808 359.60580
| 11>  C   5   4  3  1.38760 120.65337   0.81469
| 12>  C   6   5  4  1.50346 120.68328 180.06271
| 13>  H   7   6  5  1.09184 110.34309 229.28604
| 14>  H   7   6  5  1.09208 109.97587 349.36879
| 15>  C   7   6  5  1.54574 110.68175 109.63384
| 16>  N   10  7  6  1.43704 111.50870 303.17814
| 17>  C   11 10  7  {R} 122.41631 110.30968
| 18>  O   12 11 10  1.2140 123.9228 358.03686
| 19>  C   12 11 10  1.5370 113.5757 177.83027
| 20>  N   14 12 11  1.4468 110.4095 15.67630
| 21>  H   15 14 12  1.0142 110.5216 191.86830
| 22>  H   15 14 12  1.0181 109.0805 74.13921
| 23>  H   14 12 11  1.0973 106.6039 258.13203
| 24>  C   14 12 11  1.5522 108.0882 142.09406
| 25>  C   19 14 12  1.5065 108.2146 300.34855
| 26>  O   20 19 14  1.2083 124.1863 303.44744
| 27>  O   20 19 14  1.3248 112.9092 122.09727
| 28>  H   22 20 19  0.9752 111.0565 188.50182
| 29>  H   19 14 12  1.0913 109.4514 180.72150
| 30>  H   19 14 12  1.0880 109.8833 59.31788
| 31>  H   11 10  7  1.0119 119.29270 283.51616
| 32>  C   10  7  6  1.5215 108.63520 181.98751
| 33>  O   27 10  7  1.2019 124.48097 103.99512
| 34>  O   27 10  7  1.3334 111.18724 285.78694
| 35>  C   29 27 10  1.4233 116.2086 178.18553
| 36>  H   30 29 27  1.0913 110.2205 59.30913
| 37>  H   30 29 27  1.0916 110.2662 299.15613
| 38>  H   30 29 27  1.0865 106.2111 179.21253
| 39>  H   10  7  6  1.09547 109.54165 61.79850
| 40>  H    5  4  3  1.08013 119.52666 180.74532
| 41>  H    4  3  2  1.07941 120.32014 180.29979
| 42>  H    3  2  1  1.08205 120.03120 178.68066
| 43>  H    2  1  3  1.07977 119.89108 179.99305
| 44>  H    1  2  3  1.07963 119.75618 180.24143
| 45> **                         ****END OF INPUT****
================================================================================

                       ******************************
                       * Parameter Scan Calculation *
                       ******************************

Trajectory settings:
    -> SCF surface will be mapped

There are 1 parameter(s) to be scanned
             R: range=   0.84280000 ..   5.34280000  steps=   46
There will be   46 energy evaluations


         *************************************************************
                                TRAJECTORY STEP   1
                  R  :   0.84280000
         *************************************************************
---------------------------------
CARTESIAN COORDINATES (ANGSTROEM)
---------------------------------
  C      0.000000    0.000000    0.000000
  C      1.381870    0.000000    0.000000
  C      2.077079    1.200258    0.000000
  C      1.381323    2.398171   -0.003480
  C     -0.002719    2.393332   -0.015190
  C     -0.706097    1.197247   -0.006561
  C     -2.209479    1.191188   -0.020686
  H     -2.593746    0.531858    0.760170
  H     -2.588273    2.200770    0.152220
  C     -2.740604    0.685730   -1.381469
  N     -2.235112    1.475325   -2.470552
  C     -1.676980    1.174451   -3.025779
  O     -1.198589    0.060107   -2.969438
  C     -1.315249    2.173296   -4.136558
  N     -1.731454    3.509269   -3.768890
  H     -1.674334    4.131867   -4.567457
  H     -1.099278    3.870845   -3.057452
  H     -1.877773    1.868230   -5.027944
  C      0.198389    2.022877   -4.445745
  C      0.968020    2.314694   -3.183979
  O      0.879302    3.343960   -2.557297
  O      1.741800    1.307492   -2.807278
  H      2.122424    1.469345   -1.924134
  H      0.482516    2.732626   -5.224502
  H      0.411607    1.004616   -4.764220
  H     -2.630881    2.390294   -2.644159
  C     -4.260820    0.745283   -1.362501
  O     -4.916011    1.582790   -1.922741
  O     -4.771998   -0.230626   -0.611332
  C     -6.189669   -0.250816   -0.486497
  H     -6.653464   -0.351181   -1.469226
  H     -6.541699    0.673097   -0.023841
  H     -6.426964   -1.107269    0.138532
  H     -2.407881   -0.345155   -1.544646
  H     -0.538214    3.331257   -0.030062
  H      1.913367    3.337336   -0.008385
  H      3.158914    1.199459    0.021569
  H      1.919976   -0.936133    0.000114
  H     -0.535831   -0.937267    0.003949

----------------------------
CARTESIAN COORDINATES (A.U.)
----------------------------
  NO LB      ZA    FRAG     MASS         X           Y           Z
   0 C     6.0000    0    12.011    0.000000    0.000000    0.000000
   1 C     6.0000    0    12.011    2.611356    0.000000    0.000000
   2 C     6.0000    0    12.011    3.925111    2.268159    0.000000
   3 C     6.0000    0    12.011    2.610323    4.531887   -0.006576
   4 C     6.0000    0    12.011   -0.005138    4.522741   -0.028705
   5 C     6.0000    0    12.011   -1.334330    2.262469   -0.012398
   6 C     6.0000    0    12.011   -4.175309    2.251018   -0.039091
   7 H     1.0000    0     1.008   -4.901469    1.005065    1.436514
   8 H     1.0000    0     1.008   -4.891127    4.158853    0.287653
   9 C     6.0000    0    12.011   -5.178991    1.295841   -2.610599
  10 N     7.0000    0    14.007   -4.223750    2.787959   -4.668668
  11 C     6.0000    0    12.011   -3.169034    2.219392   -5.717893
  12 O     8.0000    0    15.999   -2.265005    0.113586   -5.611425
  13 C     6.0000    0    12.011   -2.485461    4.106934   -7.816961
  14 N     7.0000    0    14.007   -3.271975    6.631556   -7.122169
  15 H     1.0000    0     1.008   -3.164032    7.808097   -8.631243
  16 H     1.0000    0     1.008   -2.077334    7.314837   -5.777748
  17 H     1.0000    0     1.008   -3.548476    3.530443   -9.501437
  18 C     6.0000    0    12.011    0.374902    3.822683   -8.401240
  19 C     6.0000    0    12.011    1.829293    4.374138   -6.016848
  20 O     8.0000    0    15.999    1.661639    6.319169   -4.832591
  21 O     8.0000    0    15.999    3.291525    2.470802   -5.304987
  22 H     1.0000    0     1.008    4.010801    2.776661   -3.636086
  23 H     1.0000    0     1.008    0.911822    5.163916   -9.872878
  24 H     1.0000    0     1.008    0.777824    1.898448   -9.003071
  25 H     1.0000    0     1.008   -4.971644    4.517002   -4.996736
  26 C     6.0000    0    12.011   -8.051782    1.408380   -2.574753
  27 O     8.0000    0    15.999   -9.289915    2.991040   -3.633453
  28 O     8.0000    0    15.999   -9.017769   -0.435821   -1.155251
  29 C     6.0000    0    12.011  -11.696779   -0.473973   -0.919346
  30 H     1.0000    0     1.008  -12.573224   -0.663636   -2.776435
  31 H     1.0000    0     1.008  -12.362019    1.271969   -0.045053
  32 H     1.0000    0     1.008  -12.145202   -2.092435    0.261787
  33 H     1.0000    0     1.008   -4.550236   -0.652248   -2.918958
  34 H     1.0000    0     1.008   -1.017077    6.295164   -0.056809
  35 H     1.0000    0     1.008    3.615740    6.306652   -0.015845
  36 H     1.0000    0     1.008    5.969482    2.266649    0.040760
  37 H     1.0000    0     1.008    3.628230   -1.769035    0.000215
  38 H     1.0000    0     1.008   -1.012574   -1.771179    0.007463

--------------------------------
INTERNAL COORDINATES (ANGSTROEM)
--------------------------------
 C      0   0   0     0.000000000000     0.00000000     0.00000000
 C      1   0   0     1.381870000000     0.00000000     0.00000000
 C      2   1   0     1.387060000000   120.08012000     0.00000000
 C      3   2   1     1.385310000000   119.77147000   359.83419000
 C      4   3   2     1.384100000000   119.94808000   359.60580000
 C      5   4   3     1.387600000000   120.65337000     0.81469000
 C      6   5   4     1.503460000000   120.68328000   180.06271000
 H      7   6   5     1.091840000000   110.34309000   229.28604000
 H      7   6   5     1.092080000000   109.97587000   349.36879000
 C      7   6   5     1.545740000000   110.68175000   109.63384000
 N     10   7   6     1.437040000000   111.50870000   303.17814000
 C     11  10   7     0.842800000000   122.41631000   110.30968000
 O     12  11  10     1.214000000000   123.92280000   358.03686000
 C     12  11  10     1.537000000000   113.57570000   177.83027000
 N     14  12  11     1.446800000000   110.40950000    15.67630000
 H     15  14  12     1.014200000000   110.52160000   191.86830000
 H     15  14  12     1.018100000000   109.08050000    74.13921000
 H     14  12  11     1.097300000000   106.60390000   258.13203000
 C     14  12  11     1.552200000000   108.08820000   142.09406000
 C     19  14  12     1.506500000000   108.21460000   300.34855000
 O     20  19  14     1.208300000000   124.18630000   303.44744000
 O     20  19  14     1.324800000000   112.90920000   122.09727000
 H     22  20  19     0.975200000000   111.05650000   188.50182000
 H     19  14  12     1.091300000000   109.45140000   180.72150000
 H     19  14  12     1.088000000000   109.88330000    59.31788000
 H     11  10   7     1.011900000000   119.29270000   283.51616000
 C     10   7   6     1.521500000000   108.63520000   181.98751000
 O     27  10   7     1.201900000000   124.48097000   103.99512000
 O     27  10   7     1.333400000000   111.18724000   285.78694000
 C     29  27  10     1.423300000000   116.20860000   178.18553000
 H     30  29  27     1.091300000000   110.22050000    59.30913000
 H     30  29  27     1.091600000000   110.26620000   299.15613000
 H     30  29  27     1.086500000000   106.21110000   179.21253000
 H     10   7   6     1.095470000000   109.54165000    61.79850000
 H      5   4   3     1.080130000000   119.52666000   180.74532000
 H      4   3   2     1.079410000000   120.32014000   180.29979000
 H      3   2   1     1.082050000000   120.03120000   178.68066000
 H      2   1   3     1.079770000000   119.89108000   179.99305000
 H      1   2   3     1.079630000000   119.75618000   180.24143000

---------------------------
INTERNAL COORDINATES (A.U.)
---------------------------
 C      0   0   0     0.000000000000     0.00000000     0.00000000
 C      1   0   0     2.611355852682     0.00000000     0.00000000
 C      2   1   0     2.621163531317   120.08012000     0.00000000
 C      3   2   1     2.617856510582   119.77147000   359.83419000
 C      4   3   2     2.615569941960   119.94808000   359.60580000
 C      5   4   3     2.622183983429   120.65337000     0.81469000
 C      6   5   4     2.841127653305   120.68328000   180.06271000
 H      7   6   5     2.063278582061   110.34309000   229.28604000
 H      7   6   5     2.063732116333   109.97587000   349.36879000
 C      7   6   5     2.921025274247   110.68175000   109.63384000
 N     10   7   6     2.715612043490   111.50870000   303.17814000
 C     11  10   7     1.592661185669   122.41631000   110.30968000
 O     12  11  10     2.294127526580   123.92280000   358.03686000
 C     12  11  10     2.904509067837   113.57570000   177.83027000
 N     14  12  11     2.734055770557   110.40950000    15.67630000
 H     15  14  12     1.916560245023   110.52160000   191.86830000
 H     15  14  12     1.923930176945   109.08050000    74.13921000
 H     14  12  11     2.073596486752   106.60390000   258.13203000
 C     14  12  11     2.933232905073   108.08820000   142.09406000
 C     19  14  12     2.846872420752   108.21460000   300.34855000
 O     20  19  14     2.283356087617   124.18630000   303.44744000
 O     20  19  14     2.503509182219   112.90920000   122.09727000
 H     22  20  19     1.842860925800   111.05650000   188.50182000
 H     19  14  12     2.062258129948   109.45140000   180.72150000
 H     19  14  12     2.056022033706   109.88330000    59.31788000
 H     11  10   7     1.912213874915   119.29270000   283.51616000
 C     10   7   6     2.875218312761   108.63520000   181.98751000
 O     27  10   7     2.271261840360   124.48097000   103.99512000
 O     27  10   7     2.519760826971   111.18724000   285.78694000
 C     29  27  10     2.689647206410   116.20860000   178.18553000
 H     30  29  27     2.062258129948   110.22050000    59.30913000
 H     30  29  27     2.062825047788   110.26620000   299.15613000
 H     30  29  27     2.053187444505   106.21110000   179.21253000
 H     10   7   6     2.070138287927   109.54165000    61.79850000
 H      5   4   3     2.041149889032   119.52666000   180.74532000
 H      4   3   2     2.039789286216   120.32014000   180.29979000
 H      3   2   1     2.044778163209   120.03120000   178.68066000
 H      2   1   3     2.040469587624   119.89108000   179.99305000
 H      1   2   3     2.040205025965   119.75618000   180.24143000

---------------------
BASIS SET INFORMATION
---------------------
There are 4 groups of distinct atoms

 Group   1 Type C   : 10s4p1d contracted to 3s2p1d pattern {631/31/1}
 Group   2 Type H   : 4s contracted to 2s pattern {31}
 Group   3 Type N   : 10s4p1d contracted to 3s2p1d pattern {631/31/1}
 Group   4 Type O   : 10s4p1d contracted to 3s2p1d pattern {631/31/1}

Atom   0C    basis set group =>   1
Atom   1C    basis set group =>   1
Atom   2C    basis set group =>   1
Atom   3C    basis set group =>   1
Atom   4C    basis set group =>   1
Atom   5C    basis set group =>   1
Atom   6C    basis set group =>   1
Atom   7H    basis set group =>   2
Atom   8H    basis set group =>   2
Atom   9C    basis set group =>   1
Atom  10N    basis set group =>   3
Atom  11C    basis set group =>   1
Atom  12O    basis set group =>   4
Atom  13C    basis set group =>   1
Atom  14N    basis set group =>   3
Atom  15H    basis set group =>   2
Atom  16H    basis set group =>   2
Atom  17H    basis set group =>   2
Atom  18C    basis set group =>   1
Atom  19C    basis set group =>   1
Atom  20O    basis set group =>   4
Atom  21O    basis set group =>   4
Atom  22H    basis set group =>   2
Atom  23H    basis set group =>   2
Atom  24H    basis set group =>   2
Atom  25H    basis set group =>   2
Atom  26C    basis set group =>   1
Atom  27O    basis set group =>   4
Atom  28O    basis set group =>   4
Atom  29C    basis set group =>   1
Atom  30H    basis set group =>   2
Atom  31H    basis set group =>   2
Atom  32H    basis set group =>   2
Atom  33H    basis set group =>   2
Atom  34H    basis set group =>   2
Atom  35H    basis set group =>   2
Atom  36H    basis set group =>   2
Atom  37H    basis set group =>   2
Atom  38H    basis set group =>   2
------------------------------------------------------------------------------
                           ORCA GTO INTEGRAL CALCULATION
------------------------------------------------------------------------------

                         BASIS SET STATISTICS AND STARTUP INFO

 # of primitive gaussian shells          ...  387
 # of primitive gaussian functions       ...  639
 # of contracted shells                  ...  162
 # of contracted basis functions         ...  330
 Highest angular momentum                ...    2
 Maximum contraction depth               ...    6
 Integral package used                   ... LIBINT
 Integral threshhold            Thresh   ...  1.000e-10
 Primitive cut-off              TCut     ...  1.000e-11


------------------------------ INTEGRAL EVALUATION ----------------------------


 * One electron integrals 
 Pre-screening matrix                    ... done
 Shell pair data                         ... done (   0.004 sec)

-------------------------------------------------------------------------------
                                 ORCA SCF
-------------------------------------------------------------------------------

------------
SCF SETTINGS
------------
Hamiltonian:
 Density Functional     Method          .... DFT(GTOs)
 Exchange Functional    Exchange        .... WB97X
 Correlation Functional Correlation     .... WB97X
 Gradients option       PostSCFGGA      .... off
 Hybrid DFT is turned on
   Fraction HF Exchange ScalHFX         ....  0.157706
   Scaling of DF-GGA-X  ScalDFX         ....  0.000000
   Scaling of DF-GGA-C  ScalDFC         ....  1.000000
   Scaling of DF-LDA-C  ScalLDAC        ....  1.000000
   Perturbative correction              ....  0.000000
   Density functional embedding theory  .... OFF
 Long-range corrected/Screened/Range-Separated Hybrid DFT is turned on
   Amount of maximum screened exact exchange              ....  0.842294
   Range separation parameter mu (erf(mu*r12)/r12)        ....  0.300000


General Settings:
 Integral files         IntName         .... aspartame
 Hartree-Fock type      HFTyp           .... RHF
 Total Charge           Charge          ....    0
 Multiplicity           Mult            ....    1
 Number of Electrons    NEL             ....  156
 Basis Dimension        Dim             ....  330
 Nuclear Repulsion      ENuc            ....   1873.3595735028 Eh

Convergence Acceleration:
 DIIS                   CNVDIIS         .... on
   Start iteration      DIISMaxIt       ....     0
   Startup error        DIISStart       ....  0.200000
   # of expansion vecs  DIISMaxEq       ....     5
   Bias factor          DIISBfac        ....   1.050
   Max. coefficient     DIISMaxC        ....  10.000
 Newton-Raphson         CNVNR           .... off
 SOSCF                  CNVSOSCF        .... off
 Level Shifting         CNVShift        .... off
 Zerner damping         CNVZerner       .... off
 Static damping         CNVDamp         .... off
 Fernandez-Rico         CNVRico         .... off

SCF Procedure:
 Maximum # iterations   MaxIter         ....   125
 SCF integral mode      SCFMode         .... Direct
   Integral package                     .... LIBINT
 Reset frequency        DirectResetFreq ....    20
 Integral Threshold     Thresh          ....  1.000e-10 Eh
 Primitive CutOff       TCut            ....  1.000e-11 Eh

Convergence Tolerance:
 Convergence Check Mode ConvCheckMode   .... All-Criteria
 Convergence forced     ConvForced      .... 0
 Energy Change          TolE            ....  1.000e-06 Eh
 Max Density Change     TolMaxP         ....  1.000e-05
 RMS Density Change     TolRMSP         ....  1.000e-06
 DIIS Error             TolErr          ....  1.000e-06


Diagonalization of the overlap matrix:
Smallest eigenvalue                        ... 4.279e-04
Time for diagonalization                   ...    0.035 sec
Threshold for overlap eigenvalues          ... 1.000e-08
Number of eigenvalues below threshold      ... 0
Time for construction of square roots      ...    0.006 sec
Total time needed                          ...    0.041 sec

-------------------
DFT GRID GENERATION
-------------------

General Integration Accuracy     IntAcc      ...  4.670
Radial Grid Type                 RadialGrid  ... Gauss-Chebyshev
Angular Grid (max. acc.)         AngularGrid ... Lebedev-302
Angular grid pruning method      GridPruning ... 3 (G Style)
Weight generation scheme         WeightScheme... Becke
Basis function cutoff            BFCut       ...    1.0000e-10
Integration weight cutoff        WCut        ...    1.0000e-14
Grids for H and He will be reduced by one unit

# of grid points (after initial pruning)     ... 191544 (   0.1 sec)
# of grid points (after weights+screening)   ... 164973 (   1.3 sec)
nearest neighbour list constructed           ...    0.0 sec
Grid point re-assignment to atoms done       ...    0.0 sec
Grid point division into batches done        ...    0.5 sec
Reduced shell lists constructed in    1.9 sec

Total number of grid points                  ...   164973
Total number of batches                      ...     2596
Average number of points per batch           ...       63
Average number of grid points per atom       ...     4230
Average number of shells per batch           ...    73.81 (45.56%)
Average number of basis functions per batch  ...   149.72 (45.37%)
Average number of large shells per batch     ...    46.37 (62.82%)
Average number of large basis fcns per batch ...    95.28 (63.64%)
Maximum spatial batch extension              ...  21.17, 22.90, 23.06 au
Average spatial batch extension              ...   2.15,  2.17,  2.17 au

Time for grid setup =    3.400 sec

------------------------------
INITIAL GUESS: MODEL POTENTIAL
------------------------------
Loading Hartree-Fock densities                     ... done
Calculating cut-offs                               ... done
Setting up the integral package                    ... done
Initializing the effective Hamiltonian             ... done
Starting the Coulomb interaction                   ... done (   0.8 sec)
Reading the grid                                   ... done
Mapping shells                                     ... done
Starting the XC term evaluation                    ... done (   1.7 sec)
  promolecular density results
     # of electrons  =    155.991392427
     EX              =   -131.213846035
     EC              =     -5.312332129
     EX+EC           =   -136.526178163
Transforming the Hamiltonian                       ... done (   0.0 sec)
Diagonalizing the Hamiltonian                      ... done (   0.0 sec)
Back transforming the eigenvectors                 ... done (   0.0 sec)
Now organizing SCF variables                       ... done
                      ------------------
                      INITIAL GUESS DONE (   6.0 sec)
                      ------------------
--------------
SCF ITERATIONS
--------------
ITER       Energy         Delta-E        Max-DP      RMS-DP      [F,P]   Gradient Norm
               ***  Starting incremental Fock matrix formation  ***
                             ****Resetting KDIIS****
                             ****Turning on KDIIS(Cayley)****
  0  -1028.2453302470   0.000000000000 0.04056320  0.00081314  0.0647838   0.101972599
  1  -1028.4741176336  -0.228787386635 0.05009738  0.00088906  0.0550297   0.082923773
  2  -1028.6380698829  -0.163952249260 0.05614635  0.00135739  0.0437771   0.067159525
  3  -1028.8252543233  -0.187184440436 0.08514438  0.00206974  0.0276316   0.041612180
  4  -1028.9419200279  -0.116665704584 0.00547185  0.00011871  0.0043114   0.002856251
  5  -1028.9425352978  -0.000615269875 0.01361289  0.00025974  0.0025384   0.001771489
  6  -1028.9429090149  -0.000373717187 0.00248295  0.00004295  0.0009030   0.000803159
  7  -1028.9429499238  -0.000040908850 0.00084067  0.00001301  0.0002576   0.000239333
  8  -1028.9429533688  -0.000003445055 0.00065505  0.00000793  0.0002113   0.000085586
                          ***Energy convergence achieved***
  9  -1028.9429539394  -0.000000570551 0.00026652  0.00000314  0.0000342   0.000044029
 10  -1028.9429540689  -0.000000129537 0.00021208  0.00000213  0.0000309   0.000016261
                           ***RMSP convergence achieved***

            ***Energy convergence in two consecutive cycles with***
                    ***'reasonable' density convergence***
                       *** signaling convergence ***

                    *** KDIIS BlockDiag (522.485 sec) ***

               *****************************************************
               *                     SUCCESS                       *
               *           SCF CONVERGED AFTER  11 CYCLES          *
               *****************************************************

Setting up the final grid:

General Integration Accuracy     IntAcc      ...  5.010
Radial Grid Type                 RadialGrid  ... Gauss-Chebyshev
Angular Grid (max. acc.)         AngularGrid ... Lebedev-434
Angular grid pruning method      GridPruning ... 3 (G Style)
Weight generation scheme         WeightScheme... Becke
Basis function cutoff            BFCut       ...    1.0000e-10
Integration weight cutoff        WCut        ...    1.0000e-14
Grids for H and He will be reduced by one unit

# of grid points (after initial pruning)     ... 345618 (   0.2 sec)
# of grid points (after weights+screening)   ... 296977 (   2.3 sec)
nearest neighbour list constructed           ...    0.0 sec
Grid point re-assignment to atoms done       ...    0.0 sec
Grid point division into batches done        ...    1.6 sec
Reduced shell lists constructed in    4.1 sec

Total number of grid points                  ...   296977
Total number of batches                      ...     4659
Average number of points per batch           ...       63
Average number of grid points per atom       ...     7615
Average number of shells per batch           ...    71.10 (43.89%)
Average number of basis functions per batch  ...   143.71 (43.55%)
Average number of large shells per batch     ...    44.29 (62.30%)
Average number of large basis fcns per batch ...    90.96 (63.29%)
Maximum spatial batch extension              ...  24.88, 19.35, 23.90 au
Average spatial batch extension              ...   1.75,  1.75,  1.75 au

Final grid set up in    6.6 sec
Final integration                            ... done (   4.1 sec)
Change in XC energy                          ...    -0.002826900
Integrated number of electrons               ...   156.000003267
Previous integrated no of electrons          ...   156.000154524

----------------
TOTAL SCF ENERGY
----------------

Total Energy       :        -1028.94578099 Eh          -27999.03814 eV

Components:
Nuclear Repulsion  :         1873.35957350 Eh           50976.70560 eV
Electronic Energy  :        -2902.30535449 Eh          -78975.74374 eV
One Electron Energy:        -5126.72724201 Eh         -139505.34057 eV
Two Electron Energy:         2224.42188752 Eh           60529.59682 eV

Virial components:
Potential Energy   :        -2056.45656482 Eh          -55959.02803 eV
Kinetic Energy     :         1027.51078383 Eh           27959.98989 eV
Virial Ratio       :            2.00139658


DFT components:
N(Alpha)           :       78.000001633741 electrons
N(Beta)            :       78.000001633741 electrons
N(Total)           :      156.000003267481 electrons
E(XC)              :      -98.307462402851 Eh       
DFET-embed. en.    :        0.000000000000 Eh       

---------------
SCF CONVERGENCE
---------------

  Last Energy change         ...   -1.8055e-08  Tolerance :   1.0000e-06
  Last MAX-Density change    ...    3.3251e-05  Tolerance :   1.0000e-05
  Last RMS-Density change    ...    4.8931e-07  Tolerance :   1.0000e-06
  Last DIIS Error            ...    1.2862e-05  Tolerance :   1.0000e-06

             **** THE GBW FILE WAS UPDATED (aspartame.gbw) ****
             **** DENSITY FILE WAS UPDATED (aspartame.scfp) ****
             **** ENERGY FILE WAS UPDATED (aspartame.en.tmp) ****
             **** THE GBW FILE WAS UPDATED (aspartame.gbw) ****
             **** DENSITY FILE WAS UPDATED (aspartame.scfp) ****
----------------
ORBITAL ENERGIES
----------------

  NO   OCC          E(Eh)            E(eV) 
   0   2.0000     -19.272207      -524.4234 
   1   2.0000     -19.235053      -523.4124 
   2   2.0000     -19.215813      -522.8888 
   3   2.0000     -19.192164      -522.2453 
   4   2.0000     -19.080450      -519.2054 
   5   2.0000     -14.433592      -392.7580 
   6   2.0000     -14.400072      -391.8459 
   7   2.0000     -10.407216      -283.1948 
   8   2.0000     -10.389443      -282.7111 
   9   2.0000     -10.324131      -280.9339 
  10   2.0000     -10.312935      -280.6292 
  11   2.0000     -10.305673      -280.4316 
  12   2.0000     -10.291141      -280.0362 
  13   2.0000     -10.285558      -279.8843 
  14   2.0000     -10.279267      -279.7131 
  15   2.0000     -10.268739      -279.4266 
  16   2.0000     -10.267948      -279.4051 
  17   2.0000     -10.266971      -279.3785 
  18   2.0000     -10.265646      -279.3424 
  19   2.0000     -10.264717      -279.3171 
  20   2.0000     -10.259390      -279.1722 
  21   2.0000      -1.279417       -34.8147 
  22   2.0000      -1.250711       -34.0336 
  23   2.0000      -1.223167       -33.2841 
  24   2.0000      -1.157705       -31.5027 
  25   2.0000      -1.129098       -30.7243 
  26   2.0000      -1.065133       -28.9838 
  27   2.0000      -1.032255       -28.0891 
  28   2.0000      -1.002448       -27.2780 
  29   2.0000      -0.960532       -26.1374 
  30   2.0000      -0.901996       -24.5446 
  31   2.0000      -0.887438       -24.1484 
  32   2.0000      -0.878718       -23.9111 
  33   2.0000      -0.861636       -23.4463 
  34   2.0000      -0.824549       -22.4371 
  35   2.0000      -0.790595       -21.5132 
  36   2.0000      -0.748849       -20.3772 
  37   2.0000      -0.732602       -19.9351 
  38   2.0000      -0.726628       -19.7726 
  39   2.0000      -0.708236       -19.2721 
  40   2.0000      -0.698638       -19.0109 
  41   2.0000      -0.687397       -18.7050 
  42   2.0000      -0.660333       -17.9686 
  43   2.0000      -0.638541       -17.3756 
  44   2.0000      -0.619305       -16.8521 
  45   2.0000      -0.613423       -16.6921 
  46   2.0000      -0.607319       -16.5260 
  47   2.0000      -0.599711       -16.3190 
  48   2.0000      -0.588120       -16.0036 
  49   2.0000      -0.581188       -15.8149 
  50   2.0000      -0.572137       -15.5686 
  51   2.0000      -0.568474       -15.4690 
  52   2.0000      -0.567148       -15.4329 
  53   2.0000      -0.549193       -14.9443 
  54   2.0000      -0.539836       -14.6897 
  55   2.0000      -0.535443       -14.5701 
  56   2.0000      -0.529633       -14.4121 
  57   2.0000      -0.517574       -14.0839 
  58   2.0000      -0.511712       -13.9244 
  59   2.0000      -0.504524       -13.7288 
  60   2.0000      -0.500441       -13.6177 
  61   2.0000      -0.488318       -13.2878 
  62   2.0000      -0.478665       -13.0251 
  63   2.0000      -0.471423       -12.8281 
  64   2.0000      -0.467676       -12.7261 
  65   2.0000      -0.455029       -12.3820 
  66   2.0000      -0.444143       -12.0858 
  67   2.0000      -0.440639       -11.9904 
  68   2.0000      -0.416761       -11.3406 
  69   2.0000      -0.411716       -11.2033 
  70   2.0000      -0.402662       -10.9570 
  71   2.0000      -0.386132       -10.5072 
  72   2.0000      -0.378343       -10.2952 
  73   2.0000      -0.358933        -9.7671 
  74   2.0000      -0.341746        -9.2994 
  75   2.0000      -0.335185        -9.1208 
  76   2.0000      -0.313701        -8.5362 
  77   2.0000      -0.283289        -7.7087 
  78   0.0000       0.068377         1.8606 
  79   0.0000       0.081344         2.2135 
  80   0.0000       0.104929         2.8553 
  81   0.0000       0.118534         3.2255 
  82   0.0000       0.171463         4.6658 
  83   0.0000       0.182846         4.9755 
  84   0.0000       0.193490         5.2651 
  85   0.0000       0.208315         5.6685 
  86   0.0000       0.215280         5.8581 
  87   0.0000       0.220259         5.9935 
  88   0.0000       0.231457         6.2983 
  89   0.0000       0.235500         6.4083 
  90   0.0000       0.246002         6.6941 
  91   0.0000       0.248647         6.7660 
  92   0.0000       0.251834         6.8527 
  93   0.0000       0.255480         6.9520 
  94   0.0000       0.262250         7.1362 
  95   0.0000       0.264816         7.2060 
  96   0.0000       0.265420         7.2225 
  97   0.0000       0.272187         7.4066 
  98   0.0000       0.280279         7.6268 
  99   0.0000       0.283019         7.7013 
 100   0.0000       0.292699         7.9648 
 101   0.0000       0.297861         8.1052 
 102   0.0000       0.302275         8.2253 
 103   0.0000       0.312276         8.4975 
 104   0.0000       0.332316         9.0428 
 105   0.0000       0.335791         9.1373 
 106   0.0000       0.348089         9.4720 
 107   0.0000       0.359356         9.7786 
 108   0.0000       0.374340        10.1863 
 109   0.0000       0.391642        10.6571 
 110   0.0000       0.401201        10.9172 
 111   0.0000       0.405917        11.0456 
 112   0.0000       0.415769        11.3136 
 113   0.0000       0.420504        11.4425 
 114   0.0000       0.438691        11.9374 
 115   0.0000       0.444353        12.0915 
 116   0.0000       0.453137        12.3305 
 117   0.0000       0.463957        12.6249 
 118   0.0000       0.476409        12.9637 
 119   0.0000       0.499190        13.5836 
 120   0.0000       0.547655        14.9025 
 121   0.0000       0.565617        15.3912 
 122   0.0000       0.574772        15.6404 
 123   0.0000       0.611111        16.6292 
 124   0.0000       0.617428        16.8011 
 125   0.0000       0.629588        17.1320 
 126   0.0000       0.631889        17.1946 
 127   0.0000       0.643296        17.5050 
 128   0.0000       0.655107        17.8264 
 129   0.0000       0.658813        17.9272 
 130   0.0000       0.675755        18.3882 
 131   0.0000       0.678203        18.4549 
 132   0.0000       0.678612        18.4660 
 133   0.0000       0.686672        18.6853 
 134   0.0000       0.700144        19.0519 
 135   0.0000       0.703672        19.1479 
 136   0.0000       0.712086        19.3768 
 137   0.0000       0.717667        19.5287 
 138   0.0000       0.722859        19.6700 
 139   0.0000       0.727964        19.8089 
 140   0.0000       0.735094        20.0029 
 141   0.0000       0.745142        20.2763 
 142   0.0000       0.757768        20.6199 
 143   0.0000       0.771999        21.0072 
 144   0.0000       0.773220        21.0404 
 145   0.0000       0.777229        21.1495 
 146   0.0000       0.794664        21.6239 
 147   0.0000       0.819631        22.3033 
 148   0.0000       0.828807        22.5530 
 149   0.0000       0.831496        22.6262 
 150   0.0000       0.838814        22.8253 
 151   0.0000       0.848146        23.0792 
 152   0.0000       0.868985        23.6463 
 153   0.0000       0.883501        24.0413 
 154   0.0000       0.896223        24.3875 
 155   0.0000       0.902941        24.5703 
 156   0.0000       0.908597        24.7242 
 157   0.0000       0.917955        24.9788 
 158   0.0000       0.921087        25.0640 
 159   0.0000       0.941756        25.6265 
 160   0.0000       0.947597        25.7854 
 161   0.0000       0.952640        25.9226 
 162   0.0000       0.955448        25.9991 
 163   0.0000       0.958597        26.0847 
 164   0.0000       0.962445        26.1895 
 165   0.0000       0.966773        26.3072 
 166   0.0000       0.970705        26.4142 
 167   0.0000       0.978050        26.6141 
 168   0.0000       0.979253        26.6468 
 169   0.0000       0.990417        26.9506 
 170   0.0000       0.996446        27.1147 
 171   0.0000       1.002563        27.2811 
 172   0.0000       1.013913        27.5900 
 173   0.0000       1.021226        27.7890 
 174   0.0000       1.032126        28.0856 
 175   0.0000       1.040879        28.3237 
 176   0.0000       1.048913        28.5424 
 177   0.0000       1.053527        28.6679 
 178   0.0000       1.055481        28.7211 
 179   0.0000       1.067677        29.0530 
 180   0.0000       1.073541        29.2125 
 181   0.0000       1.079755        29.3816 
 182   0.0000       1.092391        29.7255 
 183   0.0000       1.098021        29.8787 
 184   0.0000       1.112929        30.2843 
 185   0.0000       1.124529        30.6000 
 186   0.0000       1.140216        31.0269 
 187   0.0000       1.148646        31.2563 
 188   0.0000       1.161313        31.6009 
 189   0.0000       1.171168        31.8691 
 190   0.0000       1.178843        32.0779 
 191   0.0000       1.191140        32.4126 
 192   0.0000       1.209361        32.9084 
 193   0.0000       1.220490        33.2112 
 194   0.0000       1.241132        33.7729 
 195   0.0000       1.249656        34.0049 
 196   0.0000       1.279685        34.8220 
 197   0.0000       1.282219        34.8910 
 198   0.0000       1.287422        35.0325 
 199   0.0000       1.296896        35.2903 
 200   0.0000       1.314918        35.7807 
 201   0.0000       1.322517        35.9875 
 202   0.0000       1.342440        36.5296 
 203   0.0000       1.353519        36.8311 
 204   0.0000       1.371329        37.3158 
 205   0.0000       1.392808        37.9002 
 206   0.0000       1.408684        38.3322 
 207   0.0000       1.414204        38.4824 
 208   0.0000       1.420514        38.6542 
 209   0.0000       1.447993        39.4019 
 210   0.0000       1.477483        40.2044 
 211   0.0000       1.480866        40.2964 
 212   0.0000       1.507150        41.0116 
 213   0.0000       1.519762        41.3548 
 214   0.0000       1.538410        41.8623 
 215   0.0000       1.543625        42.0042 
 216   0.0000       1.567911        42.6650 
 217   0.0000       1.578740        42.9597 
 218   0.0000       1.582248        43.0551 
 219   0.0000       1.588176        43.2165 
 220   0.0000       1.602388        43.6032 
 221   0.0000       1.607790        43.7502 
 222   0.0000       1.615245        43.9531 
 223   0.0000       1.618337        44.0372 
 224   0.0000       1.630142        44.3584 
 225   0.0000       1.659027        45.1444 
 226   0.0000       1.660703        45.1900 
 227   0.0000       1.679071        45.6898 
 228   0.0000       1.746806        47.5330 
 229   0.0000       1.755530        47.7704 
 230   0.0000       1.769193        48.1422 
 231   0.0000       1.791519        48.7497 
 232   0.0000       1.824061        49.6352 
 233   0.0000       1.826350        49.6975 
 234   0.0000       1.834406        49.9167 
 235   0.0000       1.858835        50.5815 
 236   0.0000       1.867490        50.8170 
 237   0.0000       1.883859        51.2624 
 238   0.0000       1.890948        51.4553 
 239   0.0000       1.900743        51.7218 
 240   0.0000       1.923534        52.3420 
 241   0.0000       1.931106        52.5481 
 242   0.0000       1.938994        52.7627 
 243   0.0000       1.947974        53.0071 
 244   0.0000       1.964349        53.4527 
 245   0.0000       1.978820        53.8464 
 246   0.0000       1.987671        54.0873 
 247   0.0000       1.994778        54.2807 
 248   0.0000       2.008824        54.6629 
 249   0.0000       2.015472        54.8438 
 250   0.0000       2.027762        55.1782 
 251   0.0000       2.033740        55.3409 
 252   0.0000       2.039299        55.4921 
 253   0.0000       2.051519        55.8247 
 254   0.0000       2.067977        56.2725 
 255   0.0000       2.069057        56.3019 
 256   0.0000       2.088460        56.8299 
 257   0.0000       2.102403        57.2093 
 258   0.0000       2.104552        57.2678 
 259   0.0000       2.114555        57.5400 
 260   0.0000       2.122954        57.7685 
 261   0.0000       2.130349        57.9698 
 262   0.0000       2.151140        58.5355 
 263   0.0000       2.162495        58.8445 
 264   0.0000       2.180904        59.3454 
 265   0.0000       2.185243        59.4635 
 266   0.0000       2.193574        59.6902 
 267   0.0000       2.212569        60.2071 
 268   0.0000       2.216590        60.3165 
 269   0.0000       2.232171        60.7405 
 270   0.0000       2.241315        60.9893 
 271   0.0000       2.261704        61.5441 
 272   0.0000       2.272933        61.8496 
 273   0.0000       2.287081        62.2346 
 274   0.0000       2.295781        62.4714 
 275   0.0000       2.307357        62.7864 
 276   0.0000       2.318795        63.0976 
 277   0.0000       2.322883        63.2088 
 278   0.0000       2.349326        63.9284 
 279   0.0000       2.368236        64.4430 
 280   0.0000       2.384130        64.8755 
 281   0.0000       2.406316        65.4792 
 282   0.0000       2.407403        65.5088 
 283   0.0000       2.415734        65.7355 
 284   0.0000       2.437855        66.3374 
 285   0.0000       2.450276        66.6754 
 286   0.0000       2.478250        67.4366 
 287   0.0000       2.486893        67.6718 
 288   0.0000       2.500789        68.0499 
 289   0.0000       2.502281        68.0905 
 290   0.0000       2.521362        68.6098 
 291   0.0000       2.535720        69.0004 
 292   0.0000       2.552371        69.4536 
 293   0.0000       2.592821        70.5542 
 294   0.0000       2.625228        71.4361 
 295   0.0000       2.644033        71.9478 
 296   0.0000       2.658431        72.3396 
 297   0.0000       2.693533        73.2948 
 298   0.0000       2.714358        73.8614 
 299   0.0000       2.719037        73.9888 
 300   0.0000       2.746207        74.7281 
 301   0.0000       2.761202        75.1361 
 302   0.0000       2.785675        75.8021 
 303   0.0000       2.796939        76.1086 
 304   0.0000       2.809019        76.4373 
 305   0.0000       2.823718        76.8373 
 306   0.0000       2.860983        77.8513 
 307   0.0000       2.877252        78.2940 
 308   0.0000       2.880583        78.3847 
 309   0.0000       2.885263        78.5120 
 310   0.0000       2.890902        78.6654 
 311   0.0000       2.899485        78.8990 
 312   0.0000       2.923828        79.5614 
 313   0.0000       2.933810        79.8330 
 314   0.0000       2.986105        81.2561 
 315   0.0000       3.042589        82.7931 
 316   0.0000       3.058576        83.2281 
 317   0.0000       3.068316        83.4931 
 318   0.0000       3.080900        83.8356 
 319   0.0000       3.162137        86.0461 
 320   0.0000       3.175635        86.4134 
 321   0.0000       3.185128        86.6717 
 322   0.0000       3.228412        87.8495 
 323   0.0000       3.248213        88.3884 
 324   0.0000       3.266989        88.8993 
 325   0.0000       3.324890        90.4749 
 326   0.0000       3.565183        97.0136 
 327   0.0000       3.655929        99.4829 
 328   0.0000       3.788084       103.0790 
 329   0.0000       5.403240       147.0296 

                    ********************************
                    * MULLIKEN POPULATION ANALYSIS *
                    ********************************

-----------------------
MULLIKEN ATOMIC CHARGES
-----------------------
   0 C :   -0.147603
   1 C :   -0.121565
   2 C :   -0.291721
   3 C :   -0.127168
   4 C :   -0.189542
   5 C :    0.125021
   6 C :   -0.388455
   7 H :    0.196945
   8 H :    0.171797
   9 C :   -0.201263
  10 N :    0.020338
  11 C :    0.193126
  12 O :   -0.611943
  13 C :   -0.157798
  14 N :   -0.792235
  15 H :    0.339264
  16 H :    0.349101
  17 H :    0.184554
  18 C :   -0.368669
  19 C :    0.556248
  20 O :   -0.466446
  21 O :   -0.565115
  22 H :    0.439330
  23 H :    0.169746
  24 H :    0.217415
  25 H :    0.352948
  26 C :    0.581901
  27 O :   -0.432065
  28 O :   -0.451777
  29 C :   -0.253166
  30 H :    0.188472
  31 H :    0.183313
  32 H :    0.187973
  33 H :    0.269746
  34 H :    0.155898
  35 H :    0.175665
  36 H :    0.173321
  37 H :    0.170458
  38 H :    0.163951
Sum of atomic charges:    0.0000000

--------------------------------
MULLIKEN REDUCED ORBITAL CHARGES
--------------------------------
  0 C s       :     3.158632  s :     3.158632
      pz      :     0.974317  p :     2.952127
      px      :     0.975029
      py      :     1.002781
      dz2     :     0.003542  d :     0.036844
      dxz     :     0.005414
      dyz     :     0.003331
      dx2y2   :     0.010845
      dxy     :     0.013712
  1 C s       :     3.157609  s :     3.157609
      pz      :     0.969960  p :     2.926544
      px      :     0.971373
      py      :     0.985210
      dz2     :     0.003397  d :     0.037412
      dxz     :     0.005885
      dyz     :     0.003438
      dx2y2   :     0.010981
      dxy     :     0.013711
  2 C s       :     3.222259  s :     3.222259
      pz      :     1.045372  p :     3.031529
      px      :     1.037440
      py      :     0.948718
      dz2     :     0.003666  d :     0.037933
      dxz     :     0.002084
      dyz     :     0.007226
      dx2y2   :     0.015064
      dxy     :     0.009893
  3 C s       :     3.174042  s :     3.174042
      pz      :     0.956168  p :     2.915114
      px      :     0.969907
      py      :     0.989039
      dz2     :     0.003634  d :     0.038012
      dxz     :     0.005872
      dyz     :     0.003846
      dx2y2   :     0.011135
      dxy     :     0.013525
  4 C s       :     3.171534  s :     3.171534
      pz      :     0.999986  p :     2.980848
      px      :     0.981048
      py      :     0.999814
      dz2     :     0.003562  d :     0.037160
      dxz     :     0.005380
      dyz     :     0.003501
      dx2y2   :     0.010974
      dxy     :     0.013742
  5 C s       :     3.109580  s :     3.109580
      pz      :     0.959633  p :     2.723164
      px      :     0.881039
      py      :     0.882492
      dz2     :     0.002951  d :     0.042235
      dxz     :     0.005492
      dyz     :     0.007088
      dx2y2   :     0.013550
      dxy     :     0.013153
  6 C s       :     3.259658  s :     3.259658
      pz      :     0.979291  p :     3.088252
      px      :     1.004094
      py      :     1.104867
      dz2     :     0.007592  d :     0.040546
      dxz     :     0.008056
      dyz     :     0.007937
      dx2y2   :     0.010005
      dxy     :     0.006956
  7 H s       :     0.803055  s :     0.803055
  8 H s       :     0.828203  s :     0.828203
  9 C s       :     3.227663  s :     3.227663
      pz      :     0.879218  p :     2.916310
      px      :     0.942051
      py      :     1.095041
      dz2     :     0.013984  d :     0.057289
      dxz     :     0.009521
      dyz     :     0.013041
      dx2y2   :     0.013966
      dxy     :     0.006777
 10 N s       :     3.269891  s :     3.269891
      pz      :     1.161939  p :     3.638335
      px      :     1.250356
      py      :     1.226040
      dz2     :     0.021955  d :     0.071436
      dxz     :     0.006527
      dyz     :     0.014198
      dx2y2   :     0.012933
      dxy     :     0.015823
 11 C s       :     2.951713  s :     2.951713
      pz      :     0.890731  p :     2.677533
      px      :     0.891542
      py      :     0.895259
      dz2     :     0.032985  d :     0.177628
      dxz     :     0.013949
      dyz     :     0.050472
      dx2y2   :     0.046872
      dxy     :     0.033350
 12 O s       :     3.800657  s :     3.800657
      pz      :     1.751698  p :     4.784487
      px      :     1.670833
      py      :     1.361956
      dz2     :     0.003214  d :     0.026799
      dxz     :     0.001774
      dyz     :     0.005554
      dx2y2   :     0.007523
      dxy     :     0.008734
 13 C s       :     3.205644  s :     3.205644
      pz      :     1.096534  p :     2.893565
      px      :     0.970814
      py      :     0.826216
      dz2     :     0.007858  d :     0.058590
      dxz     :     0.010765
      dyz     :     0.012104
      dx2y2   :     0.015172
      dxy     :     0.012690
 14 N s       :     3.627080  s :     3.627080
      pz      :     1.297269  p :     4.132444
      px      :     1.684705
      py      :     1.150470
      dz2     :     0.003230  d :     0.032711
      dxz     :     0.007407
      dyz     :     0.010638
      dx2y2   :     0.004749
      dxy     :     0.006687
 15 H s       :     0.660736  s :     0.660736
 16 H s       :     0.650899  s :     0.650899
 17 H s       :     0.815446  s :     0.815446
 18 C s       :     3.249458  s :     3.249458
      pz      :     0.981262  p :     3.082400
      px      :     0.976114
      py      :     1.125024
      dz2     :     0.005583  d :     0.036811
      dxz     :     0.008920
      dyz     :     0.008609
      dx2y2   :     0.009102
      dxy     :     0.004597
 19 C s       :     2.986836  s :     2.986836
      pz      :     0.836218  p :     2.323113
      px      :     0.753018
      py      :     0.733877
      dz2     :     0.026399  d :     0.133804
      dxz     :     0.013387
      dyz     :     0.031340
      dx2y2   :     0.027991
      dxy     :     0.034686
 20 O s       :     3.834201  s :     3.834201
      pz      :     1.583454  p :     4.604318
      px      :     1.593748
      py      :     1.427116
      dz2     :     0.005307  d :     0.027927
      dxz     :     0.002654
      dyz     :     0.007509
      dx2y2   :     0.006107
      dxy     :     0.006350
 21 O s       :     3.839149  s :     3.839149
      pz      :     1.504768  p :     4.698180
      px      :     1.580929
      py      :     1.612484
      dz2     :     0.007424  d :     0.027786
      dxz     :     0.003993
      dyz     :     0.004892
      dx2y2   :     0.005009
      dxy     :     0.006468
 22 H s       :     0.560670  s :     0.560670
 23 H s       :     0.830254  s :     0.830254
 24 H s       :     0.782585  s :     0.782585
 25 H s       :     0.647052  s :     0.647052
 26 C s       :     2.974460  s :     2.974460
      pz      :     0.736966  p :     2.311980
      px      :     0.854978
      py      :     0.720036
      dz2     :     0.022832  d :     0.131658
      dxz     :     0.017780
      dyz     :     0.025031
      dx2y2   :     0.038277
      dxy     :     0.027737
 27 O s       :     3.835116  s :     3.835116
      pz      :     1.455078  p :     4.567095
      px      :     1.657122
      py      :     1.454895
      dz2     :     0.005957  d :     0.029854
      dxz     :     0.005017
      dyz     :     0.005639
      dx2y2   :     0.006721
      dxy     :     0.006519
 28 O s       :     3.830722  s :     3.830722
      pz      :     1.651181  p :     4.591380
      px      :     1.343705
      py      :     1.596494
      dz2     :     0.005239  d :     0.029675
      dxz     :     0.004141
      dyz     :     0.006005
      dx2y2   :     0.008916
      dxy     :     0.005374
 29 C s       :     3.251582  s :     3.251582
      pz      :     1.128791  p :     2.943178
      px      :     0.685730
      py      :     1.128656
      dz2     :     0.008578  d :     0.058407
      dxz     :     0.013148
      dyz     :     0.008856
      dx2y2   :     0.017796
      dxy     :     0.010029
 30 H s       :     0.811528  s :     0.811528
 31 H s       :     0.816687  s :     0.816687
 32 H s       :     0.812027  s :     0.812027
 33 H s       :     0.730254  s :     0.730254
 34 H s       :     0.844102  s :     0.844102
 35 H s       :     0.824335  s :     0.824335
 36 H s       :     0.826679  s :     0.826679
 37 H s       :     0.829542  s :     0.829542
 38 H s       :     0.836049  s :     0.836049


                     *******************************
                     * LOEWDIN POPULATION ANALYSIS *
                     *******************************

----------------------
LOEWDIN ATOMIC CHARGES
----------------------
   0 C :   -0.112060
   1 C :   -0.120592
   2 C :   -0.186234
   3 C :   -0.120054
   4 C :   -0.135106
   5 C :   -0.023799
   6 C :   -0.222648
   7 H :    0.151983
   8 H :    0.134872
   9 C :   -0.077627
  10 N :    0.092339
  11 C :   -0.178583
  12 O :   -0.399286
  13 C :   -0.084945
  14 N :   -0.468565
  15 H :    0.247074
  16 H :    0.242440
  17 H :    0.142378
  18 C :   -0.270754
  19 C :    0.138650
  20 O :   -0.262588
  21 O :   -0.271114
  22 H :    0.326812
  23 H :    0.140255
  24 H :    0.166483
  25 H :    0.287332
  26 C :    0.134710
  27 O :   -0.226886
  28 O :   -0.145850
  29 C :   -0.216940
  30 H :    0.139118
  31 H :    0.136407
  32 H :    0.140995
  33 H :    0.198332
  34 H :    0.135475
  35 H :    0.144680
  36 H :    0.140683
  37 H :    0.142124
  38 H :    0.140488

-------------------------------
LOEWDIN REDUCED ORBITAL CHARGES
-------------------------------
  0 C s       :     2.904125  s :     2.904125
      pz      :     0.972415  p :     3.121044
      px      :     1.074831
      py      :     1.073797
      dz2     :     0.006456  d :     0.086892
      dxz     :     0.011028
      dyz     :     0.006036
      dx2y2   :     0.028774
      dxy     :     0.034599
  1 C s       :     2.906684  s :     2.906684
      pz      :     0.964942  p :     3.125338
      px      :     1.080782
      py      :     1.079615
      dz2     :     0.006233  d :     0.088570
      dxz     :     0.012016
      dyz     :     0.006662
      dx2y2   :     0.029215
      dxy     :     0.034444
  2 C s       :     2.910208  s :     2.910208
      pz      :     1.024149  p :     3.187413
      px      :     1.082071
      py      :     1.081192
      dz2     :     0.006530  d :     0.088613
      dxz     :     0.003032
      dyz     :     0.015142
      dx2y2   :     0.036750
      dxy     :     0.027159
  3 C s       :     2.909866  s :     2.909866
      pz      :     0.954847  p :     3.120710
      px      :     1.082181
      py      :     1.083682
      dz2     :     0.006635  d :     0.089478
      dxz     :     0.012309
      dyz     :     0.007063
      dx2y2   :     0.029468
      dxy     :     0.034003
  4 C s       :     2.906322  s :     2.906322
      pz      :     0.993503  p :     3.141252
      px      :     1.076316
      py      :     1.071432
      dz2     :     0.006422  d :     0.087532
      dxz     :     0.011143
      dyz     :     0.006178
      dx2y2   :     0.029121
      dxy     :     0.034668
  5 C s       :     2.865334  s :     2.865334
      pz      :     0.947217  p :     3.053689
      px      :     1.023624
      py      :     1.082848
      dz2     :     0.006301  d :     0.104776
      dxz     :     0.010586
      dyz     :     0.014597
      dx2y2   :     0.038285
      dxy     :     0.035006
  6 C s       :     2.919399  s :     2.919399
      pz      :     1.048828  p :     3.217908
      px      :     1.052855
      py      :     1.116225
      dz2     :     0.016661  d :     0.085341
      dxz     :     0.017722
      dyz     :     0.015897
      dx2y2   :     0.021395
      dxy     :     0.013666
  7 H s       :     0.848017  s :     0.848017
  8 H s       :     0.865128  s :     0.865128
  9 C s       :     2.886938  s :     2.886938
      pz      :     0.955120  p :     3.069072
      px      :     1.009420
      py      :     1.104532
      dz2     :     0.030514  d :     0.121617
      dxz     :     0.017985
      dyz     :     0.028482
      dx2y2   :     0.030839
      dxy     :     0.013798
 10 N s       :     2.905454  s :     2.905454
      pz      :     1.252623  p :     3.749954
      px      :     1.302682
      py      :     1.194649
      dz2     :     0.063490  d :     0.252253
      dxz     :     0.049491
      dyz     :     0.044905
      dx2y2   :     0.035776
      dxy     :     0.058591
 11 C s       :     2.691094  s :     2.691094
      pz      :     0.999350  p :     2.972214
      px      :     0.975139
      py      :     0.997725
      dz2     :     0.098955  d :     0.515275
      dxz     :     0.054701
      dyz     :     0.131527
      dx2y2   :     0.124809
      dxy     :     0.105283
 12 O s       :     3.511879  s :     3.511879
      pz      :     1.738284  p :     4.829742
      px      :     1.662593
      py      :     1.428865
      dz2     :     0.007322  d :     0.057665
      dxz     :     0.003361
      dyz     :     0.012159
      dx2y2   :     0.017203
      dxy     :     0.017620
 13 C s       :     2.893650  s :     2.893650
      pz      :     1.081622  p :     3.063039
      px      :     1.030675
      py      :     0.950742
      dz2     :     0.016638  d :     0.128256
      dxz     :     0.020238
      dyz     :     0.027168
      dx2y2   :     0.037103
      dxy     :     0.027109
 14 N s       :     3.241030  s :     3.241030
      pz      :     1.300715  p :     4.165232
      px      :     1.674023
      py      :     1.190494
      dz2     :     0.007193  d :     0.062302
      dxz     :     0.010777
      dyz     :     0.021684
      dx2y2   :     0.010307
      dxy     :     0.012341
 15 H s       :     0.752926  s :     0.752926
 16 H s       :     0.757560  s :     0.757560
 17 H s       :     0.857622  s :     0.857622
 18 C s       :     2.937914  s :     2.937914
      pz      :     1.062649  p :     3.254236
      px      :     1.054316
      py      :     1.137271
      dz2     :     0.012866  d :     0.078604
      dxz     :     0.020711
      dyz     :     0.017051
      dx2y2   :     0.019262
      dxy     :     0.008713
 19 C s       :     2.844256  s :     2.844256
      pz      :     0.946192  p :     2.708424
      px      :     0.822038
      py      :     0.940194
      dz2     :     0.060825  d :     0.308670
      dxz     :     0.029645
      dyz     :     0.073492
      dx2y2   :     0.063503
      dxy     :     0.081206
 20 O s       :     3.541046  s :     3.541046
      pz      :     1.595227  p :     4.665530
      px      :     1.574682
      py      :     1.495620
      dz2     :     0.008752  d :     0.056012
      dxz     :     0.003840
      dyz     :     0.019267
      dx2y2   :     0.013904
      dxy     :     0.010249
 21 O s       :     3.502081  s :     3.502081
      pz      :     1.496065  p :     4.714993
      px      :     1.586222
      py      :     1.632705
      dz2     :     0.013886  d :     0.054041
      dxz     :     0.009036
      dyz     :     0.008593
      dx2y2   :     0.008521
      dxy     :     0.014003
 22 H s       :     0.673188  s :     0.673188
 23 H s       :     0.859745  s :     0.859745
 24 H s       :     0.833517  s :     0.833517
 25 H s       :     0.712668  s :     0.712668
 26 C s       :     2.843156  s :     2.843156
      pz      :     0.823070  p :     2.714820
      px      :     1.002844
      py      :     0.888906
      dz2     :     0.048927  d :     0.307314
      dxz     :     0.039340
      dyz     :     0.063559
      dx2y2   :     0.090374
      dxy     :     0.065114
 27 O s       :     3.541583  s :     3.541583
      pz      :     1.462873  p :     4.626791
      px      :     1.672393
      py      :     1.491525
      dz2     :     0.008621  d :     0.058512
      dxz     :     0.009682
      dyz     :     0.012827
      dx2y2   :     0.011663
      dxy     :     0.015719
 28 O s       :     3.447833  s :     3.447833
      pz      :     1.645334  p :     4.627975
      px      :     1.377570
      py      :     1.605071
      dz2     :     0.009337  d :     0.070042
      dxz     :     0.012718
      dyz     :     0.012774
      dx2y2   :     0.019667
      dxy     :     0.015547
 29 C s       :     2.969366  s :     2.969366
      pz      :     1.158560  p :     3.131227
      px      :     0.814376
      py      :     1.158291
      dz2     :     0.016125  d :     0.116347
      dxz     :     0.027163
      dyz     :     0.015093
      dx2y2   :     0.036837
      dxy     :     0.021130
 30 H s       :     0.860882  s :     0.860882
 31 H s       :     0.863593  s :     0.863593
 32 H s       :     0.859005  s :     0.859005
 33 H s       :     0.801668  s :     0.801668
 34 H s       :     0.864525  s :     0.864525
 35 H s       :     0.855320  s :     0.855320
 36 H s       :     0.859317  s :     0.859317
 37 H s       :     0.857876  s :     0.857876
 38 H s       :     0.859512  s :     0.859512


                      *****************************
                      * MAYER POPULATION ANALYSIS *
                      *****************************

  NA   - Mulliken gross atomic population
  ZA   - Total nuclear charge
  QA   - Mulliken gross atomic charge
  VA   - Mayer's total valence
  BVA  - Mayer's bonded valence
  FA   - Mayer's free valence

  ATOM       NA         ZA         QA         VA         BVA        FA
  0 C      6.1476     6.0000    -0.1476     3.9656     3.9656     0.0000
  1 C      6.1216     6.0000    -0.1216     3.9441     3.9441     0.0000
  2 C      6.2917     6.0000    -0.2917     3.9241     3.9241    -0.0000
  3 C      6.1272     6.0000    -0.1272     3.9401     3.9401     0.0000
  4 C      6.1895     6.0000    -0.1895     3.9714     3.9714    -0.0000
  5 C      5.8750     6.0000     0.1250     3.9455     3.9455     0.0000
  6 C      6.3885     6.0000    -0.3885     3.8418     3.8418    -0.0000
  7 H      0.8031     1.0000     0.1969     0.9296     0.9296    -0.0000
  8 H      0.8282     1.0000     0.1718     0.9330     0.9330     0.0000
  9 C      6.2013     6.0000    -0.2013     3.7395     3.7395    -0.0000
 10 N      6.9797     7.0000     0.0203     3.3576     3.3576     0.0000
 11 C      5.8069     6.0000     0.1931     4.1331     4.1331     0.0000
 12 O      8.6119     8.0000    -0.6119     1.9643     1.9643     0.0000
 13 C      6.1578     6.0000    -0.1578     3.7799     3.7799    -0.0000
 14 N      7.7922     7.0000    -0.7922     2.7884     2.7884    -0.0000
 15 H      0.6607     1.0000     0.3393     0.8547     0.8547    -0.0000
 16 H      0.6509     1.0000     0.3491     0.8733     0.8733    -0.0000
 17 H      0.8154     1.0000     0.1846     0.9281     0.9281    -0.0000
 18 C      6.3687     6.0000    -0.3687     3.7828     3.7828    -0.0000
 19 C      5.4438     6.0000     0.5562     3.9999     3.9999    -0.0000
 20 O      8.4664     8.0000    -0.4664     2.0335     2.0335    -0.0000
 21 O      8.5651     8.0000    -0.5651     1.9534     1.9534    -0.0000
 22 H      0.5607     1.0000     0.4393     0.8102     0.8102    -0.0000
 23 H      0.8303     1.0000     0.1697     0.9338     0.9338    -0.0000
 24 H      0.7826     1.0000     0.2174     0.9362     0.9362    -0.0000
 25 H      0.6471     1.0000     0.3529     0.8698     0.8698     0.0000
 26 C      5.4181     6.0000     0.5819     3.9361     3.9361     0.0000
 27 O      8.4321     8.0000    -0.4321     2.0973     2.0973     0.0000
 28 O      8.4518     8.0000    -0.4518     2.0128     2.0128    -0.0000
 29 C      6.2532     6.0000    -0.2532     3.7388     3.7388     0.0000
 30 H      0.8115     1.0000     0.1885     0.9292     0.9292    -0.0000
 31 H      0.8167     1.0000     0.1833     0.9301     0.9301    -0.0000
 32 H      0.8120     1.0000     0.1880     0.9302     0.9302     0.0000
 33 H      0.7303     1.0000     0.2697     0.9308     0.9308    -0.0000
 34 H      0.8441     1.0000     0.1559     0.9412     0.9412     0.0000
 35 H      0.8243     1.0000     0.1757     0.9375     0.9375     0.0000
 36 H      0.8267     1.0000     0.1733     0.9326     0.9326     0.0000
 37 H      0.8295     1.0000     0.1705     0.9336     0.9336     0.0000
 38 H      0.8360     1.0000     0.1640     0.9371     0.9371     0.0000

  Mayer bond orders larger than 0.100000
B(  0-C ,  1-C ) :   1.4892 B(  0-C ,  5-C ) :   1.4112 B(  0-C , 38-H ) :   0.9279 
B(  1-C ,  2-C ) :   1.3988 B(  1-C , 37-H ) :   0.9324 B(  2-C ,  3-C ) :   1.4396 
B(  2-C , 36-H ) :   0.9320 B(  3-C ,  4-C ) :   1.4256 B(  3-C , 35-H ) :   0.9296 
B(  4-C ,  5-C ) :   1.4648 B(  4-C , 34-H ) :   0.9309 B(  5-C ,  6-C ) :   0.9834 
B(  6-C ,  7-H ) :   0.9258 B(  6-C ,  8-H ) :   0.9377 B(  6-C ,  9-C ) :   0.9720 
B(  9-C , 10-N ) :   0.9184 B(  9-C , 26-C ) :   0.9343 B(  9-C , 33-H ) :   0.8598 
B( 10-N , 11-C ) :   1.6994 B( 10-N , 25-H ) :   0.7191 B( 11-C , 12-O ) :   1.6985 
B( 11-C , 13-C ) :   0.8182 B( 13-C , 14-N ) :   1.0101 B( 13-C , 17-H ) :   0.9290 
B( 13-C , 18-C ) :   0.9727 B( 14-N , 15-H ) :   0.8526 B( 14-N , 16-H ) :   0.8012 
B( 14-N , 25-H ) :   0.1333 B( 18-C , 19-C ) :   0.9667 B( 18-C , 23-H ) :   0.9344 
B( 18-C , 24-H ) :   0.9110 B( 19-C , 20-O ) :   1.8183 B( 19-C , 21-O ) :   1.1770 
B( 21-O , 22-H ) :   0.6769 B( 26-C , 27-O ) :   1.9201 B( 26-C , 28-O ) :   1.0637 
B( 28-O , 29-C ) :   0.8670 B( 29-C , 30-H ) :   0.9379 B( 29-C , 31-H ) :   0.9390 
B( 29-C , 32-H ) :   0.9470 

-------
TIMINGS
-------

Total SCF time: 0 days 0 hours 8 min 53 sec 

Total time                  ....     533.283 sec
Sum of individual times     ....     533.006 sec  ( 99.9%)

Fock matrix formation       ....     520.233 sec  ( 97.6%)
  XC integration            ....      28.053 sec  (  5.4% of F)
    Basis function eval.    ....      10.087 sec  ( 36.0% of XC)
    Density eval.           ....       5.776 sec  ( 20.6% of XC)
    XC-Functional eval.     ....       6.122 sec  ( 21.8% of XC)
    XC-Potential eval.      ....       5.203 sec  ( 18.5% of XC)
Diagonalization             ....       0.121 sec  (  0.0%)
Density matrix formation    ....       0.026 sec  (  0.0%)
Population analysis         ....       0.011 sec  (  0.0%)
Initial guess               ....       2.608 sec  (  0.5%)
Orbital Transformation      ....       0.000 sec  (  0.0%)
Orbital Orthonormalization  ....       0.000 sec  (  0.0%)
DIIS solution               ....       0.000 sec  (  0.0%)
Grid generation             ....      10.006 sec  (  1.9%)

-------------------------   --------------------
FINAL SINGLE POINT ENERGY     -1028.945780987355
-------------------------   --------------------

Storing actual gbw-file in aspartame.001.gbw ... done

                            ***************************************
                            *     ORCA property calculations      *
                            ***************************************

                                    ---------------------
                                    Active property flags
                                    ---------------------
   (+) Dipole Moment


------------------------------------------------------------------------------
                       ORCA ELECTRIC PROPERTIES CALCULATION
------------------------------------------------------------------------------

Dipole Moment Calculation                       ... on
Quadrupole Moment Calculation                   ... off
Polarizability Calculation                      ... off
GBWName                                         ... aspartame.gbw
Electron density file                           ... aspartame.scfp
The origin for moment calculation is the CENTER OF MASS  = (-2.381182,  2.563469 -3.260150)

-------------
DIPOLE MOMENT
-------------
                                X             Y             Z
Electronic contribution:      2.18340      -0.24510      -0.99218
Nuclear contribution   :     -2.73740       0.60894       1.68155
                        -----------------------------------------
Total Dipole Moment    :     -0.55400       0.36384       0.68937
                        -----------------------------------------
Magnitude (a.u.)       :      0.95631
Magnitude (Debye)      :      2.43075



--------------------
Rotational spectrum 
--------------------
 
Rotational constants in cm-1:     0.016952     0.008583     0.006705 
Rotational constants in MHz :   508.195386   257.317526   201.006872 

 Dipole components along the rotational axes: 
x,y,z [a.u.] :    -0.530790    -0.373319     0.702444 
x,y,z [Debye]:    -1.349161    -0.948902     1.785470 

 

         *************************************************************
                                TRAJECTORY STEP   2
                  R  :   0.94280000
         *************************************************************
---------------------------------
CARTESIAN COORDINATES (ANGSTROEM)
---------------------------------
  C      0.000000    0.000000    0.000000
  C      1.381870    0.000000    0.000000
  C      2.077079    1.200258    0.000000
  C      1.381323    2.398171   -0.003480
  C     -0.002719    2.393332   -0.015190
  C     -0.706097    1.197247   -0.006561
  C     -2.209479    1.191188   -0.020686
  H     -2.593746    0.531858    0.760170
  H     -2.588273    2.200770    0.152220
  C     -2.740604    0.685730   -1.381469
  N     -2.235112    1.475325   -2.470552
  C     -1.610757    1.138752   -3.091658
  O     -1.132365    0.024408   -3.035317
  C     -1.249026    2.137596   -4.202437
  N     -1.665231    3.473569   -3.834768
  H     -1.608110    4.096168   -4.633336
  H     -1.033054    3.835146   -3.123331
  H     -1.811549    1.832531   -5.093823
  C      0.264613    1.987178   -4.511623
  C      1.034244    2.278995   -3.249857
  O      0.945525    3.308261   -2.623176
  O      1.808024    1.271793   -2.873157
  H      2.188648    1.433646   -1.990013
  H      0.548739    2.696927   -5.290381
  H      0.477830    0.968916   -4.830099
  H     -2.630881    2.390294   -2.644159
  C     -4.260820    0.745283   -1.362501
  O     -4.916011    1.582790   -1.922741
  O     -4.771998   -0.230626   -0.611332
  C     -6.189669   -0.250816   -0.486497
  H     -6.653464   -0.351181   -1.469226
  H     -6.541699    0.673097   -0.023841
  H     -6.426964   -1.107269    0.138532
  H     -2.407881   -0.345155   -1.544646
  H     -0.538214    3.331257   -0.030062
  H      1.913367    3.337336   -0.008385
  H      3.158914    1.199459    0.021569
  H      1.919976   -0.936133    0.000114
  H     -0.535831   -0.937267    0.003949

----------------------------
CARTESIAN COORDINATES (A.U.)
----------------------------
  NO LB      ZA    FRAG     MASS         X           Y           Z
   0 C     6.0000    0    12.011    0.000000    0.000000    0.000000
   1 C     6.0000    0    12.011    2.611356    0.000000    0.000000
   2 C     6.0000    0    12.011    3.925111    2.268159    0.000000
   3 C     6.0000    0    12.011    2.610323    4.531887   -0.006576
   4 C     6.0000    0    12.011   -0.005138    4.522741   -0.028705
   5 C     6.0000    0    12.011   -1.334330    2.262469   -0.012398
   6 C     6.0000    0    12.011   -4.175309    2.251018   -0.039091
   7 H     1.0000    0     1.008   -4.901469    1.005065    1.436514
   8 H     1.0000    0     1.008   -4.891127    4.158853    0.287653
   9 C     6.0000    0    12.011   -5.178991    1.295841   -2.610599
  10 N     7.0000    0    14.007   -4.223750    2.787959   -4.668668
  11 C     6.0000    0    12.011   -3.043890    2.151930   -5.842386
  12 O     8.0000    0    15.999   -2.139861    0.046124   -5.735918
  13 C     6.0000    0    12.011   -2.360317    4.039472   -7.941454
  14 N     7.0000    0    14.007   -3.146830    6.564095   -7.246662
  15 H     1.0000    0     1.008   -3.038888    7.740635   -8.755736
  16 H     1.0000    0     1.008   -1.952189    7.247375   -5.902241
  17 H     1.0000    0     1.008   -3.423332    3.462981   -9.625930
  18 C     6.0000    0    12.011    0.500046    3.755221   -8.525733
  19 C     6.0000    0    12.011    1.954437    4.306677   -6.141340
  20 O     8.0000    0    15.999    1.786783    6.251707   -4.957084
  21 O     8.0000    0    15.999    3.416670    2.403340   -5.429480
  22 H     1.0000    0     1.008    4.135945    2.709199   -3.760579
  23 H     1.0000    0     1.008    1.036967    5.096454   -9.997371
  24 H     1.0000    0     1.008    0.902968    1.830987   -9.127564
  25 H     1.0000    0     1.008   -4.971644    4.517002   -4.996736
  26 C     6.0000    0    12.011   -8.051782    1.408380   -2.574753
  27 O     8.0000    0    15.999   -9.289915    2.991040   -3.633453
  28 O     8.0000    0    15.999   -9.017769   -0.435821   -1.155251
  29 C     6.0000    0    12.011  -11.696779   -0.473973   -0.919346
  30 H     1.0000    0     1.008  -12.573224   -0.663636   -2.776435
  31 H     1.0000    0     1.008  -12.362019    1.271969   -0.045053
  32 H     1.0000    0     1.008  -12.145202   -2.092435    0.261787
  33 H     1.0000    0     1.008   -4.550236   -0.652248   -2.918958
  34 H     1.0000    0     1.008   -1.017077    6.295164   -0.056809
  35 H     1.0000    0     1.008    3.615740    6.306652   -0.015845
  36 H     1.0000    0     1.008    5.969482    2.266649    0.040760
  37 H     1.0000    0     1.008    3.628230   -1.769035    0.000215
  38 H     1.0000    0     1.008   -1.012574   -1.771179    0.007463

--------------------------------
INTERNAL COORDINATES (ANGSTROEM)
--------------------------------
 C      0   0   0     0.000000000000     0.00000000     0.00000000
 C      1   0   0     1.381870000000     0.00000000     0.00000000
 C      2   1   0     1.387060000000   120.08012000     0.00000000
 C      3   2   1     1.385310000000   119.77147000   359.83419000
 C      4   3   2     1.384100000000   119.94808000   359.60580000
 C      5   4   3     1.387600000000   120.65337000     0.81469000
 C      6   5   4     1.503460000000   120.68328000   180.06271000
 H      7   6   5     1.091840000000   110.34309000   229.28604000
 H      7   6   5     1.092080000000   109.97587000   349.36879000
 C      7   6   5     1.545740000000   110.68175000   109.63384000
 N     10   7   6     1.437040000000   111.50870000   303.17814000
 C     11  10   7     0.942800000000   122.41631000   110.30968000
 O     12  11  10     1.214000000000   123.92280000   358.03686000
 C     12  11  10     1.537000000000   113.57570000   177.83027000
 N     14  12  11     1.446800000000   110.40950000    15.67630000
 H     15  14  12     1.014200000000   110.52160000   191.86830000
 H     15  14  12     1.018100000000   109.08050000    74.13921000
 H     14  12  11     1.097300000000   106.60390000   258.13203000
 C     14  12  11     1.552200000000   108.08820000   142.09406000
 C     19  14  12     1.506500000000   108.21460000   300.34855000
 O     20  19  14     1.208300000000   124.18630000   303.44744000
 O     20  19  14     1.324800000000   112.90920000   122.09727000
 H     22  20  19     0.975200000000   111.05650000   188.50182000
[...]
  H     -2.630881    2.390294   -2.644159
  C     -4.260820    0.745283   -1.362501
  O     -4.916011    1.582790   -1.922741
  O     -4.771998   -0.230626   -0.611332
  C     -6.189669   -0.250816   -0.486497
  H     -6.653464   -0.351181   -1.469226
  H     -6.541699    0.673097   -0.023841
  H     -6.426964   -1.107269    0.138532
  H     -2.407881   -0.345155   -1.544646
  H     -0.538214    3.331257   -0.030062
  H      1.913367    3.337336   -0.008385
  H      3.158914    1.199459    0.021569
  H      1.919976   -0.936133    0.000114
  H     -0.535831   -0.937267    0.003949

----------------------------
CARTESIAN COORDINATES (A.U.)
----------------------------
  NO LB      ZA    FRAG     MASS         X           Y           Z
   0 C     6.0000    0    12.011    0.000000    0.000000    0.000000
   1 C     6.0000    0    12.011    2.611356    0.000000    0.000000
   2 C     6.0000    0    12.011    3.925111    2.268159    0.000000
   3 C     6.0000    0    12.011    2.610323    4.531887   -0.006576
   4 C     6.0000    0    12.011   -0.005138    4.522741   -0.028705
   5 C     6.0000    0    12.011   -1.334330    2.262469   -0.012398
   6 C     6.0000    0    12.011   -4.175309    2.251018   -0.039091
   7 H     1.0000    0     1.008   -4.901469    1.005065    1.436514
   8 H     1.0000    0     1.008   -4.891127    4.158853    0.287653
   9 C     6.0000    0    12.011   -5.178991    1.295841   -2.610599
  10 N     7.0000    0    14.007   -4.223750    2.787959   -4.668668
  11 C     6.0000    0    12.011    2.462459   -0.816387  -11.320072
  12 O     8.0000    0    15.999    3.366488   -2.922193  -11.213604
  13 C     6.0000    0    12.011    3.146031    1.071155  -13.419140
  14 N     7.0000    0    14.007    2.359518    3.595778  -12.724347
  15 H     1.0000    0     1.008    2.467460    4.772318  -14.233421
  16 H     1.0000    0     1.008    3.554159    4.279058  -11.379926
  17 H     1.0000    0     1.008    2.083016    0.494664  -15.103616
  18 C     6.0000    0    12.011    6.006394    0.786904  -14.003418
  19 C     6.0000    0    12.011    7.460785    1.338359  -11.619026
  20 O     8.0000    0    15.999    7.293132    3.283390  -10.434770
  21 O     8.0000    0    15.999    8.923018   -0.564977  -10.907166
  22 H     1.0000    0     1.008    9.642293   -0.259118   -9.238265
  23 H     1.0000    0     1.008    6.543315    2.128137  -15.475057
  24 H     1.0000    0     1.008    6.409316   -1.137331  -14.605250
  25 H     1.0000    0     1.008   -4.971644    4.517002   -4.996736
  26 C     6.0000    0    12.011   -8.051782    1.408380   -2.574753
  27 O     8.0000    0    15.999   -9.289915    2.991040   -3.633453
  28 O     8.0000    0    15.999   -9.017769   -0.435821   -1.155251
  29 C     6.0000    0    12.011  -11.696779   -0.473973   -0.919346
  30 H     1.0000    0     1.008  -12.573224   -0.663636   -2.776435
  31 H     1.0000    0     1.008  -12.362019    1.271969   -0.045053
  32 H     1.0000    0     1.008  -12.145202   -2.092435    0.261787
  33 H     1.0000    0     1.008   -4.550236   -0.652248   -2.918958
  34 H     1.0000    0     1.008   -1.017077    6.295164   -0.056809
  35 H     1.0000    0     1.008    3.615740    6.306652   -0.015845
  36 H     1.0000    0     1.008    5.969482    2.266649    0.040760
  37 H     1.0000    0     1.008    3.628230   -1.769035    0.000215
  38 H     1.0000    0     1.008   -1.012574   -1.771179    0.007463

--------------------------------
INTERNAL COORDINATES (ANGSTROEM)
--------------------------------
 C      0   0   0     0.000000000000     0.00000000     0.00000000
 C      1   0   0     1.381870000000     0.00000000     0.00000000
 C      2   1   0     1.387060000000   120.08012000     0.00000000
 C      3   2   1     1.385310000000   119.77147000   359.83419000
 C      4   3   2     1.384100000000   119.94808000   359.60580000
 C      5   4   3     1.387600000000   120.65337000     0.81469000
 C      6   5   4     1.503460000000   120.68328000   180.06271000
 H      7   6   5     1.091840000000   110.34309000   229.28604000
 H      7   6   5     1.092080000000   109.97587000   349.36879000
 C      7   6   5     1.545740000000   110.68175000   109.63384000
 N     10   7   6     1.437040000000   111.50870000   303.17814000
 C     11  10   7     5.342800000000   122.41631000   110.30968000
 O     12  11  10     1.214000000000   123.92280000   358.03686000
 C     12  11  10     1.537000000000   113.57570000   177.83027000
 N     14  12  11     1.446800000000   110.40950000    15.67630000
 H     15  14  12     1.014200000000   110.52160000   191.86830000
 H     15  14  12     1.018100000000   109.08050000    74.13921000
 H     14  12  11     1.097300000000   106.60390000   258.13203000
 C     14  12  11     1.552200000000   108.08820000   142.09406000
 C     19  14  12     1.506500000000   108.21460000   300.34855000
 O     20  19  14     1.208300000000   124.18630000   303.44744000
 O     20  19  14     1.324800000000   112.90920000   122.09727000
 H     22  20  19     0.975200000000   111.05650000   188.50182000
 H     19  14  12     1.091300000000   109.45140000   180.72150000
 H     19  14  12     1.088000000000   109.88330000    59.31788000
 H     11  10   7     1.011900000000   119.29270000   283.51616000
 C     10   7   6     1.521500000000   108.63520000   181.98751000
 O     27  10   7     1.201900000000   124.48097000   103.99512000
 O     27  10   7     1.333400000000   111.18724000   285.78694000
 C     29  27  10     1.423300000000   116.20860000   178.18553000
 H     30  29  27     1.091300000000   110.22050000    59.30913000
 H     30  29  27     1.091600000000   110.26620000   299.15613000
 H     30  29  27     1.086500000000   106.21110000   179.21253000
 H     10   7   6     1.095470000000   109.54165000    61.79850000
 H      5   4   3     1.080130000000   119.52666000   180.74532000
 H      4   3   2     1.079410000000   120.32014000   180.29979000
 H      3   2   1     1.082050000000   120.03120000   178.68066000
 H      2   1   3     1.079770000000   119.89108000   179.99305000
 H      1   2   3     1.079630000000   119.75618000   180.24143000

---------------------------
INTERNAL COORDINATES (A.U.)
---------------------------
 C      0   0   0     0.000000000000     0.00000000     0.00000000
 C      1   0   0     2.611355852682     0.00000000     0.00000000
 C      2   1   0     2.621163531317   120.08012000     0.00000000
 C      3   2   1     2.617856510582   119.77147000   359.83419000
 C      4   3   2     2.615569941960   119.94808000   359.60580000
 C      5   4   3     2.622183983429   120.65337000     0.81469000
 C      6   5   4     2.841127653305   120.68328000   180.06271000
 H      7   6   5     2.063278582061   110.34309000   229.28604000
 H      7   6   5     2.063732116333   109.97587000   349.36879000
 C      7   6   5     2.921025274247   110.68175000   109.63384000
 N     10   7   6     2.715612043490   111.50870000   303.17814000
 C     11  10   7    10.096428788314   122.41631000   110.30968000
 O     12  11  10     2.294127526580   123.92280000   358.03686000
 C     12  11  10     2.904509067837   113.57570000   177.83027000
 N     14  12  11     2.734055770557   110.40950000    15.67630000
 H     15  14  12     1.916560245023   110.52160000   191.86830000
 H     15  14  12     1.923930176945   109.08050000    74.13921000
 H     14  12  11     2.073596486752   106.60390000   258.13203000
 C     14  12  11     2.933232905073   108.08820000   142.09406000
 C     19  14  12     2.846872420752   108.21460000   300.34855000
 O     20  19  14     2.283356087617   124.18630000   303.44744000
 O     20  19  14     2.503509182219   112.90920000   122.09727000
 H     22  20  19     1.842860925800   111.05650000   188.50182000
 H     19  14  12     2.062258129948   109.45140000   180.72150000
 H     19  14  12     2.056022033706   109.88330000    59.31788000
 H     11  10   7     1.912213874915   119.29270000   283.51616000
 C     10   7   6     2.875218312761   108.63520000   181.98751000
 O     27  10   7     2.271261840360   124.48097000   103.99512000
 O     27  10   7     2.519760826971   111.18724000   285.78694000
 C     29  27  10     2.689647206410   116.20860000   178.18553000
 H     30  29  27     2.062258129948   110.22050000    59.30913000
 H     30  29  27     2.062825047788   110.26620000   299.15613000
 H     30  29  27     2.053187444505   106.21110000   179.21253000
 H     10   7   6     2.070138287927   109.54165000    61.79850000
 H      5   4   3     2.041149889032   119.52666000   180.74532000
 H      4   3   2     2.039789286216   120.32014000   180.29979000
 H      3   2   1     2.044778163209   120.03120000   178.68066000
 H      2   1   3     2.040469587624   119.89108000   179.99305000
 H      1   2   3     2.040205025965   119.75618000   180.24143000


Diagonalization of the overlap matrix:
Smallest eigenvalue                        ... 4.416e-04
Time for diagonalization                   ...    0.010 sec
Threshold for overlap eigenvalues          ... 1.000e-08
Number of eigenvalues below threshold      ... 0
Time for construction of square roots      ...    0.004 sec
Total time needed                          ...    0.015 sec

-------------------
DFT GRID GENERATION
-------------------

General Integration Accuracy     IntAcc      ...  4.670
Radial Grid Type                 RadialGrid  ... Gauss-Chebyshev
Angular Grid (max. acc.)         AngularGrid ... Lebedev-302
Angular grid pruning method      GridPruning ... 3 (G Style)
Weight generation scheme         WeightScheme... Becke
Basis function cutoff            BFCut       ...    1.0000e-10
Integration weight cutoff        WCut        ...    1.0000e-14
Grids for H and He will be reduced by one unit

# of grid points (after initial pruning)     ... 191544 (   0.1 sec)
# of grid points (after weights+screening)   ... 170097 (   1.3 sec)
nearest neighbour list constructed           ...    0.0 sec
Grid point re-assignment to atoms done       ...    0.0 sec
Grid point division into batches done        ...    0.5 sec
Reduced shell lists constructed in    1.7 sec

Total number of grid points                  ...   170097
Total number of batches                      ...     2678
Average number of points per batch           ...       63
Average number of grid points per atom       ...     4361
Average number of shells per batch           ...    51.18 (31.59%)
Average number of basis functions per batch  ...   104.72 (31.73%)
Average number of large shells per batch     ...    34.47 (67.36%)
Average number of large basis fcns per batch ...    71.30 (68.08%)
Maximum spatial batch extension              ...  21.43, 21.77, 23.00 au
Average spatial batch extension              ...   2.25,  2.25,  2.28 au

Time for grid setup =    3.083 sec

--------------
SCF ITERATIONS
--------------
ITER       Energy         Delta-E        Max-DP      RMS-DP      [F,P]   Gradient Norm
               ***  Starting incremental Fock matrix formation  ***
                             ****Resetting KDIIS****
                             ****Turning on KDIIS(Cayley)****
  0  -1029.4152174073   0.000000000000 0.00008361  0.00000142  0.0001553   0.000069628
                          ***Energy convergence achieved***
  1  -1029.4152176093  -0.000000201971 0.00015523  0.00000259  0.0001184   0.000061183
  2  -1029.4152178791  -0.000000269839 0.00030364  0.00000492  0.0001216   0.000051651
  3  -1029.4152183009  -0.000000421807 0.00048112  0.00000804  0.0000673   0.000034190
  4  -1029.4152186617  -0.000000360722 0.00015895  0.00000215  0.0000271   0.000011982

            ***Energy convergence in two consecutive cycles with***
                    ***'reasonable' density convergence***
                       *** signaling convergence ***

                    *** KDIIS BlockDiag (123.423 sec) ***

               *****************************************************
               *                     SUCCESS                       *
               *           SCF CONVERGED AFTER   5 CYCLES          *
               *****************************************************

Setting up the final grid:

General Integration Accuracy     IntAcc      ...  5.010
Radial Grid Type                 RadialGrid  ... Gauss-Chebyshev
Angular Grid (max. acc.)         AngularGrid ... Lebedev-434
Angular grid pruning method      GridPruning ... 3 (G Style)
Weight generation scheme         WeightScheme... Becke
Basis function cutoff            BFCut       ...    1.0000e-10
Integration weight cutoff        WCut        ...    1.0000e-14
Grids for H and He will be reduced by one unit

# of grid points (after initial pruning)     ... 345618 (   0.2 sec)
# of grid points (after weights+screening)   ... 306134 (   2.3 sec)
nearest neighbour list constructed           ...    0.0 sec
Grid point re-assignment to atoms done       ...    0.0 sec
Grid point division into batches done        ...    1.7 sec
Reduced shell lists constructed in    3.6 sec

Total number of grid points                  ...   306134
Total number of batches                      ...     4806
Average number of points per batch           ...       63
Average number of grid points per atom       ...     7850
Average number of shells per batch           ...    49.23 (30.39%)
Average number of basis functions per batch  ...   100.62 (30.49%)
Average number of large shells per batch     ...    33.03 (67.10%)
Average number of large basis fcns per batch ...    68.19 (67.77%)
Maximum spatial batch extension              ...  27.14, 19.86, 32.25 au
Average spatial batch extension              ...   1.86,  1.84,  1.86 au

Final grid set up in    6.1 sec
Final integration                            ... done (   2.9 sec)
Change in XC energy                          ...    -0.003177980
Integrated number of electrons               ...   155.999990403
Previous integrated no of electrons          ...   155.999775902
Total Energy       :        -1029.41839669 Eh          -28011.89867 eV
  Last Energy change         ...   -4.6829e-08  Tolerance :   1.0000e-06
  Last MAX-Density change    ...    8.2443e-05  Tolerance :   1.0000e-05
             **** THE GBW FILE WAS UPDATED (aspartame.gbw) ****
             **** DENSITY FILE WAS UPDATED (aspartame.scfp) ****
             **** ENERGY FILE WAS UPDATED (aspartame.en.tmp) ****
             **** THE GBW FILE WAS UPDATED (aspartame.gbw) ****
             **** DENSITY FILE WAS UPDATED (aspartame.scfp) ****
Total SCF time: 0 days 0 hours 2 min 12 sec 

-------------------------   --------------------
FINAL SINGLE POINT ENERGY     -1029.418396688770
-------------------------   --------------------

Storing actual gbw-file in aspartame.046.gbw ... done

                            ***************************************
                            *     ORCA property calculations      *
                            ***************************************

                                    ---------------------
                                    Active property flags
                                    ---------------------
   (+) Dipole Moment


------------------------------------------------------------------------------
                       ORCA ELECTRIC PROPERTIES CALCULATION
------------------------------------------------------------------------------

Dipole Moment Calculation                       ... on
Quadrupole Moment Calculation                   ... off
Polarizability Calculation                      ... off
GBWName                                         ... aspartame.gbw
Electron density file                           ... aspartame.scfp
The origin for moment calculation is the CENTER OF MASS  = (-0.159714,  1.365938 -5.470055)

-------------
DIPOLE MOMENT
-------------
                                X             Y             Z
Electronic contribution:      7.12234      -2.71095      -5.83437
Nuclear contribution   :     -5.76546       2.24128       4.69384
                        -----------------------------------------
Total Dipole Moment    :      1.35688      -0.46967      -1.14053
                        -----------------------------------------
Magnitude (a.u.)       :      1.83372
Magnitude (Debye)      :      4.66094



--------------------
Rotational spectrum 
--------------------
 
Rotational constants in cm-1:     0.012043     0.003620     0.003087 
Rotational constants in MHz :   361.035145   108.524613    92.533090 

 Dipole components along the rotational axes: 
x,y,z [a.u.] :     1.786676    -0.073728    -0.406043 
x,y,z [Debye]:     4.541370    -0.187402    -1.032080 

 
                              **** TRAJECTORY DONE ***

                         SUMMARY OF THE CALCULATED SURFACE

------------------
TRAJECTORY RESULTS
------------------

Column   1: R

The Calculated Surface using the 'Actual Energy'
   0.84280000 -1028.94578099
   0.94280000 -1029.34482292
   1.04280000 -1029.56166318
   1.14280000 -1029.67304629
   1.24280000 -1029.72311252
   1.34280000 -1029.73790306
   1.44280000 -1029.73286681
   1.54280000 -1029.71714387
   1.64280000 -1029.69622380
   1.74280000 -1029.67331685
   1.84280000 -1029.65019282
   1.94280000 -1029.62784997
   2.04280000 -1029.60675580
   2.14280000 -1029.58714645
   2.24280000 -1029.56905290
   2.34280000 -1029.55244471
   2.44280000 -1029.53722935
   2.54280000 -1029.52334380
   2.64280000 -1029.51072742
   2.74280000 -1029.49930717
   2.84280000 -1029.48911530
   2.94280000 -1029.48025262
   3.04280000 -1029.47273073
   3.14280000 -1029.46640376
   3.24280000 -1029.46101824
   3.34280000 -1029.45634165
   3.44280000 -1029.45223143
   3.54280000 -1029.44859326
   3.64280000 -1029.44533775
   3.74280000 -1029.44240213
   3.84280000 -1029.43975526
   3.94280000 -1029.43735802
   4.04280000 -1029.43518530
   4.14280000 -1029.43321865
   4.24280000 -1029.43142987
   4.34280000 -1029.42978880
   4.44280000 -1029.42828210
   4.54280000 -1029.42688640
   4.64280000 -1029.42558767
   4.74280000 -1029.42437588
   4.84280000 -1029.42323866
   4.94280000 -1029.42216736
   5.04280000 -1029.42115333
   5.14280000 -1029.42019025
   5.24280000 -1029.41927273
   5.34280000 -1029.41839669

The Calculated Surface using the SCF energy
   0.84280000 -1028.94578099
   0.94280000 -1029.34482292
   1.04280000 -1029.56166318
   1.14280000 -1029.67304629
   1.24280000 -1029.72311252
   1.34280000 -1029.73790306
   1.44280000 -1029.73286681
   1.54280000 -1029.71714387
   1.64280000 -1029.69622380
   1.74280000 -1029.67331685
   1.84280000 -1029.65019282
   1.94280000 -1029.62784997
   2.04280000 -1029.60675580
   2.14280000 -1029.58714645
   2.24280000 -1029.56905290
   2.34280000 -1029.55244471
   2.44280000 -1029.53722935
   2.54280000 -1029.52334380
   2.64280000 -1029.51072742
   2.74280000 -1029.49930717
   2.84280000 -1029.48911530
   2.94280000 -1029.48025262
   3.04280000 -1029.47273073
   3.14280000 -1029.46640376
   3.24280000 -1029.46101824
   3.34280000 -1029.45634165
   3.44280000 -1029.45223143
   3.54280000 -1029.44859326
   3.64280000 -1029.44533775
   3.74280000 -1029.44240213
   3.84280000 -1029.43975526
   3.94280000 -1029.43735802
   4.04280000 -1029.43518530
   4.14280000 -1029.43321865
   4.24280000 -1029.43142987
   4.34280000 -1029.42978880
   4.44280000 -1029.42828210
   4.54280000 -1029.42688640
   4.64280000 -1029.42558767
   4.74280000 -1029.42437588
   4.84280000 -1029.42323866
   4.94280000 -1029.42216736
   5.04280000 -1029.42115333
   5.14280000 -1029.42019025
   5.24280000 -1029.41927273
   5.34280000 -1029.41839669


Timings for individual modules:

Sum of individual times         ...    12540.355 sec (= 209.006 min)
GTO integral calculation        ...       15.716 sec (=   0.262 min)   0.1 %
SCF iterations                  ...    12524.639 sec (= 208.744 min)  99.9 %
                             ****ORCA TERMINATED NORMALLY****
TOTAL RUN TIME: 0 days 3 hours 29 minutes 6 seconds 910 msec
