
                                 *****************
                                 * O   R   C   A *
                                 *****************

           --- An Ab Initio, DFT and Semiempirical electronic structure package ---

                  #######################################################
                  #                        -***-                        #
                  #          Department of theory and spectroscopy      #
                  #               Directorship: Frank Neese             #
                  #        Max Planck Institute fuer Kohlenforschung    #
                  #                Kaiser Wilhelm Platz 1               #
                  #                 D-45470 Muelheim/Ruhr               #
                  #                      Germany                        #
                  #                                                     #
                  #                  All rights reserved                #
                  #                        -***-                        #
                  #######################################################


                         Program Version 4.2.0 -  RELEASE  -


 With contributions from (in alphabetic order):
   Daniel Aravena         : Magnetic Suceptibility
   Michael Atanasov       : Ab Initio Ligand Field Theory (pilot matlab implementation)
   Alexander A. Auer      : GIAO ZORA, VPT2
   Ute Becker             : Parallelization
   Giovanni Bistoni       : ED, misc. LED, open-shell LED, HFLED
   Martin Brehm           : Molecular dynamics
   Dmytro Bykov           : SCF Hessian
   Vijay G. Chilkuri      : MRCI spin determinant printing, contributions to CSF-ICE
   Dipayan Datta          : RHF DLPNO-CCSD density
   Achintya Kumar Dutta   : EOM-CC, STEOM-CC
   Dmitry Ganyushin       : Spin-Orbit,Spin-Spin,Magnetic field MRCI
   Miquel Garcia          : C-PCM Hessian, Gaussian charge scheme
   Yang Guo               : DLPNO-NEVPT2, CIM, IAO-localization
   Andreas Hansen         : Spin unrestricted coupled pair/coupled cluster methods
   Benjamin Helmich-Paris : CASSCF linear response (MC-RPA)
   Lee Huntington         : MR-EOM, pCC
   Robert Izsak           : Overlap fitted RIJCOSX, COSX-SCS-MP3, EOM
   Christian Kollmar      : KDIIS, OOCD, Brueckner-CCSD(T), CCSD density
   Simone Kossmann        : Meta GGA functionals, TD-DFT gradient, OOMP2, MP2 Hessian
   Martin Krupicka        : AUTO-CI
   Lucas Lang             : DCDCAS
   Dagmar Lenk            : GEPOL surface, SMD
   Dimitrios Liakos       : Extrapolation schemes; Compound Job, initial MDCI parallelization
   Dimitrios Manganas     : Further ROCIS development; embedding schemes
   Dimitrios Pantazis     : SARC Basis sets
   Taras Petrenko         : DFT Hessian,TD-DFT gradient, ASA, ECA, R-Raman, ABS, FL, XAS/XES, NRVS
   Peter Pinski           : DLPNO-MP2, DLPNO-MP2 Gradient
   Christoph Reimann      : Effective Core Potentials
   Marius Retegan         : Local ZFS, SOC
   Christoph Riplinger    : Optimizer, TS searches, QM/MM, DLPNO-CCSD(T), (RO)-DLPNO pert. Triples
   Tobias Risthaus        : Range-separated hybrids, TD-DFT gradient, RPA, STAB
   Michael Roemelt        : Original ROCIS implementation
   Masaaki Saitow         : Open-shell DLPNO-CCSD energy and density
   Barbara Sandhoefer     : DKH picture change effects
   Avijit Sen             : IP-ROCIS
   Kantharuban Sivalingam : CASSCF convergence, NEVPT2, FIC-MRCI
   Bernardo de Souza      : ESD, SOC TD-DFT
   Georgi Stoychev        : AutoAux, RI-MP2 NMR
   Willem Van den Heuvel  : Paramagnetic NMR
   Boris Wezisla          : Elementary symmetry handling
   Frank Wennmohs         : Technical directorship


 We gratefully acknowledge several colleagues who have allowed us to
 interface, adapt or use parts of their codes:
   Stefan Grimme, W. Hujo, H. Kruse,             : VdW corrections, initial TS optimization,
                  C. Bannwarth                     DFT functionals, gCP, sTDA/sTD-DF
   Ed Valeev, F. Pavosevic, A. Kumar             : LibInt (2-el integral package), F12 methods
   Garnet Chan, S. Sharma, J. Yang, R. Olivares  : DMRG
   Ulf Ekstrom                                   : XCFun DFT Library
   Mihaly Kallay                                 : mrcc  (arbitrary order and MRCC methods)
   Andreas Klamt, Michael Diedenhofen            : otool_cosmo (COSMO solvation model)
   Jiri Pittner, Ondrej Demel                    : Mk-CCSD
   Frank Weinhold                                : gennbo (NPA and NBO analysis)
   Christopher J. Cramer and Donald G. Truhlar   : smd solvation model
   Lars Goerigk                                  : TD-DFT with DH, B97 family of functionals
   V. Asgeirsson, H. Jonsson                     : NEB implementation
   FAccTs GmbH                                   : IRC, NEB, NEB-TS, Multilevel, MM, QM/MM, CI optimization
   S Lehtola, MJT Oliveira, MAL Marques          : LibXC Library


 Your calculation uses the libint2 library for the computation of 2-el integrals
 For citations please refer to: http://libint.valeyev.net

 Your ORCA version has been built with support for libXC version: 4.2.3
 For citations please refer to: https://tddft.org/programs/libxc/

 This ORCA versions uses:
   CBLAS   interface :  Fast vector & matrix operations
   LAPACKE interface :  Fast linear algebra routines
   SCALAPACK package :  Parallel linear algebra routines


XCFun DFT library Copyright 2009-2010 Ulf Ekstrom and contributors.
See http://admol.org/xcfun for more information. This is free soft-
ware; see the source code for copying conditions. There is ABSOLUTELY
NO WARRANTY; not even for MERCHANTABILITY or FITNESS FOR A PARTICULAR
PURPOSE. For details see the documentation. Scientific users of this 
library should cite U. Ekstrom, L. Visscher, R. Bast, A. J. Thorvald-
sen and K. Ruud; J.Chem.Theor.Comp. 2010, DOI: 10.1021/ct100117s
XCFun Version 0.99 
----- Orbital basis set information -----
Your calculation utilizes the basis: 6-31G(d)
   H-He, Li-Ne : W. J. Hehre, R. Ditchfield and J.A. Pople, J. Chem. Phys. 56, 2257 (1972).
                 Note: He and Ne are unpublished basis sets taken from the Gaussian program.
                 Note: Li and B from J. D. Dill and J. A. Pople, J. Chem. Phys. 62, 2921 (1975).
   Na - Ar     : M. M. Francl, W. J. Pietro, W. J. Hehre, J. S. Binkley, M. S. Gordon, 
                 D. J. DeFrees and J. A. Pople, J. Chem. Phys. 77, 3654 (1982).
   K - Zn      : V. A. Rassolov, J. A. Pople, M. A. Ratner, and T. L. Windus, J. Chem. Phys. 109, 1223 (1998).

================================================================================
                                        WARNINGS
                       Please study these warnings very carefully!
================================================================================


INFO   : the flag for use of LIBINT has been found!

================================================================================
                                       INPUT FILE
================================================================================
NAME = biphenyl.inp
|  1> ! wB97X 6-31G(d)  KDIIS NOSOSCF VerySlowConv Grid4
|  2> %paras
|  3> R=0.97111,5.47111,46
|  4> end
|  5> * int 0 1
|  6>  C 0 0 0 0 0 0
|  7>  C    1  0  0   1.39291 0 0
|  8>  C    2  1  0   1.38255 120.62811 0
|  9>  C    3  2  1   1.38477 120.20849  359.79201
| 10>  C    4  3  2   1.38477 119.65945    0.09384
| 11>  C    5  4  3   1.38254 120.20864    0.11352
| 12>  C    1  2  3   {R} 120.67050  180.12721
| 13>  C    7  1  2   1.39291 120.65895  138.77643
| 14>  C    8  7  1   1.38255 120.63028  180.14100
| 15>  C    9  8  7   1.38477 120.20638  359.77332
| 16>  C   10  9  8   1.38478 119.66024    0.11073
| 17>  C   11 10  9   1.38256 120.20856    0.11187
| 18>  H    2  1  3   1.08044 119.51834  178.72699
| 19>  H    3  2  1   1.08055 119.79335  179.67899
| 20>  H    4  3  2   1.08010 120.17046  180.09210
| 21>  H    5  4  3   1.08055 119.99816  180.21642
| 22>  H    6  5  4   1.08044 119.84111  181.06684
| 23>  H    8  7  1   1.08045 119.51700  358.83423
| 24>  H    9  8  7   1.08053 119.79426  179.69915
| 25>  H   10  9  8   1.08010 120.17010  180.13148
| 26>  H   11 10  9   1.08054 119.99775  180.21436
| 27>  H   12 11 10   1.08043 119.84090  181.06359
| 28> **                         ****END OF INPUT****
================================================================================

                       ******************************
                       * Parameter Scan Calculation *
                       ******************************

Trajectory settings:
    -> SCF surface will be mapped

There are 1 parameter(s) to be scanned
             R: range=   0.97111000 ..   5.47111000  steps=   46
There will be   46 energy evaluations


         *************************************************************
                                TRAJECTORY STEP   1
                  R  :   0.97111000
         *************************************************************
---------------------------------
CARTESIAN COORDINATES (ANGSTROEM)
---------------------------------
  C      0.000000    0.000000    0.000000
  C      1.392910    0.000000    0.000000
  C      2.097269    1.189673    0.000000
  C      1.422475    2.398897   -0.004344
  C      0.037759    2.410886   -0.006721
  C     -0.668193    1.222177   -0.002402
  C     -0.495363   -0.835264    0.001854
  C     -1.632834   -0.984721    0.791805
  C     -2.335966   -2.175112    0.796195
  C     -1.917615   -3.234291    0.008342
  C     -0.789487   -3.096166   -0.782774
  C     -0.082540   -1.908019   -0.784872
  H      1.925245   -0.939965    0.020888
  H      3.177692    1.173939    0.005254
  H      1.973367    3.327946   -0.005843
  H     -0.494353    3.351310   -0.013647
  H     -1.748340    1.238298   -0.021737
  H     -1.954312   -0.168117    1.422029
  H     -3.213753   -2.277905    1.417861
  H     -2.468588   -4.163290    0.010613
  H     -0.460169   -3.917950   -1.402279
  H      0.786829   -1.800827   -1.417356

----------------------------
CARTESIAN COORDINATES (A.U.)
----------------------------
  NO LB      ZA    FRAG     MASS         X           Y           Z
   0 C     6.0000    0    12.011    0.000000    0.000000    0.000000
   1 C     6.0000    0    12.011    2.632218    0.000000    0.000000
   2 C     6.0000    0    12.011    3.963264    2.248157    0.000000
   3 C     6.0000    0    12.011    2.688087    4.533258   -0.008209
   4 C     6.0000    0    12.011    0.071353    4.555915   -0.012701
   5 C     6.0000    0    12.011   -1.262703    2.309580   -0.004539
   6 C     6.0000    0    12.011   -0.936101   -1.578421    0.003504
   7 C     6.0000    0    12.011   -3.085609   -1.860853    1.496294
   8 C     6.0000    0    12.011   -4.414335   -4.110366    1.504590
   9 C     6.0000    0    12.011   -3.623768   -6.111924    0.015765
  10 C     6.0000    0    12.011   -1.491915   -5.850905   -1.479228
  11 C     6.0000    0    12.011   -0.155979   -3.605633   -1.483193
  12 H     1.0000    0     1.008    3.638186   -1.776276    0.039472
  13 H     1.0000    0     1.008    6.004967    2.218423    0.009928
  14 H     1.0000    0     1.008    3.729123    6.288906   -0.011041
  15 H     1.0000    0     1.008   -0.934192    6.333059   -0.025788
  16 H     1.0000    0     1.008   -3.303884    2.340043   -0.041077
  17 H     1.0000    0     1.008   -3.693115   -0.317696    2.687246
  18 H     1.0000    0     1.008   -6.073112   -4.304617    2.679369
  19 H     1.0000    0     1.008   -4.664956   -7.867478    0.020057
  20 H     1.0000    0     1.008   -0.869594   -7.403853   -2.649923
  21 H     1.0000    0     1.008    1.486892   -3.403071   -2.678414

--------------------------------
INTERNAL COORDINATES (ANGSTROEM)
--------------------------------
 C      0   0   0     0.000000000000     0.00000000     0.00000000
 C      1   0   0     1.392910000000     0.00000000     0.00000000
 C      2   1   0     1.382550000000   120.62811000     0.00000000
 C      3   2   1     1.384770000000   120.20849000   359.79201000
 C      4   3   2     1.384770000000   119.65945000     0.09384000
 C      5   4   3     1.382540000000   120.20864000     0.11352000
 C      1   2   3     0.971110000000   120.67050000   180.12721000
 C      7   1   2     1.392910000000   120.65895000   138.77643000
 C      8   7   1     1.382550000000   120.63028000   180.14100000
 C      9   8   7     1.384770000000   120.20638000   359.77332000
 C     10   9   8     1.384780000000   119.66024000     0.11073000
 C     11  10   9     1.382560000000   120.20856000     0.11187000
 H      2   1   3     1.080440000000   119.51834000   178.72699000
 H      3   2   1     1.080550000000   119.79335000   179.67899000
 H      4   3   2     1.080100000000   120.17046000   180.09210000
 H      5   4   3     1.080550000000   119.99816000   180.21642000
 H      6   5   4     1.080440000000   119.84111000   181.06684000
 H      8   7   1     1.080450000000   119.51700000   358.83423000
 H      9   8   7     1.080530000000   119.79426000   179.69915000
 H     10   9   8     1.080100000000   120.17010000   180.13148000
 H     11  10   9     1.080540000000   119.99775000   180.21436000
 H     12  11  10     1.080430000000   119.84090000   181.06359000

---------------------------
INTERNAL COORDINATES (A.U.)
---------------------------
 C      0   0   0     0.000000000000     0.00000000     0.00000000
 C      1   0   0     2.632218429200     0.00000000     0.00000000
 C      2   1   0     2.612640866453   120.62811000     0.00000000
 C      3   2   1     2.616836058470   120.20849000   359.79201000
 C      4   3   2     2.616836058470   119.65945000     0.09384000
 C      5   4   3     2.612621969191   120.20864000     0.11352000
 C      1   2   3     1.835131945912   120.67050000   180.12721000
 C      7   1   2     2.632218429200   120.65895000   138.77643000
 C      8   7   1     2.612640866453   120.63028000   180.14100000
 C      9   8   7     2.616836058470   120.20638000   359.77332000
 C     10   9   8     2.616854955731   119.66024000     0.11073000
 C     11  10   9     2.612659763714   120.20856000     0.11187000
 H      2   1   3     2.041735704134   119.51834000   178.72699000
 H      3   2   1     2.041943574009   119.79335000   179.67899000
 H      4   3   2     2.041093197248   120.17046000   180.09210000
 H      5   4   3     2.041943574009   119.99816000   180.21642000
 H      6   5   4     2.041735704134   119.84111000   181.06684000
 H      8   7   1     2.041754601395   119.51700000   358.83423000
 H      9   8   7     2.041905779486   119.79426000   179.69915000
 H     10   9   8     2.041093197248   120.17010000   180.13148000
 H     11  10   9     2.041924676747   119.99775000   180.21436000
 H     12  11  10     2.041716806873   119.84090000   181.06359000

---------------------
BASIS SET INFORMATION
---------------------
There are 2 groups of distinct atoms

 Group   1 Type C   : 10s4p1d contracted to 3s2p1d pattern {631/31/1}
 Group   2 Type H   : 4s contracted to 2s pattern {31}

Atom   0C    basis set group =>   1
Atom   1C    basis set group =>   1
Atom   2C    basis set group =>   1
Atom   3C    basis set group =>   1
Atom   4C    basis set group =>   1
Atom   5C    basis set group =>   1
Atom   6C    basis set group =>   1
Atom   7C    basis set group =>   1
Atom   8C    basis set group =>   1
Atom   9C    basis set group =>   1
Atom  10C    basis set group =>   1
Atom  11C    basis set group =>   1
Atom  12H    basis set group =>   2
Atom  13H    basis set group =>   2
Atom  14H    basis set group =>   2
Atom  15H    basis set group =>   2
Atom  16H    basis set group =>   2
Atom  17H    basis set group =>   2
Atom  18H    basis set group =>   2
Atom  19H    basis set group =>   2
Atom  20H    basis set group =>   2
Atom  21H    basis set group =>   2
------------------------------------------------------------------------------
                           ORCA GTO INTEGRAL CALCULATION
------------------------------------------------------------------------------

                         BASIS SET STATISTICS AND STARTUP INFO

 # of primitive gaussian shells          ...  220
 # of primitive gaussian functions       ...  364
 # of contracted shells                  ...   92
 # of contracted basis functions         ...  188
 Highest angular momentum                ...    2
 Maximum contraction depth               ...    6
 Integral package used                   ... LIBINT
 Integral threshhold            Thresh   ...  1.000e-10
 Primitive cut-off              TCut     ...  1.000e-11


------------------------------ INTEGRAL EVALUATION ----------------------------


 * One electron integrals 
 Pre-screening matrix                    ... done
 Shell pair data                         ... done (   0.002 sec)

-------------------------------------------------------------------------------
                                 ORCA SCF
-------------------------------------------------------------------------------

------------
SCF SETTINGS
------------
Hamiltonian:
 Density Functional     Method          .... DFT(GTOs)
 Exchange Functional    Exchange        .... WB97X
 Correlation Functional Correlation     .... WB97X
 Gradients option       PostSCFGGA      .... off
 Hybrid DFT is turned on
   Fraction HF Exchange ScalHFX         ....  0.157706
   Scaling of DF-GGA-X  ScalDFX         ....  0.000000
   Scaling of DF-GGA-C  ScalDFC         ....  1.000000
   Scaling of DF-LDA-C  ScalLDAC        ....  1.000000
   Perturbative correction              ....  0.000000
   Density functional embedding theory  .... OFF
 Long-range corrected/Screened/Range-Separated Hybrid DFT is turned on
   Amount of maximum screened exact exchange              ....  0.842294
   Range separation parameter mu (erf(mu*r12)/r12)        ....  0.300000


General Settings:
 Integral files         IntName         .... biphenyl
 Hartree-Fock type      HFTyp           .... RHF
 Total Charge           Charge          ....    0
 Multiplicity           Mult            ....    1
 Number of Electrons    NEL             ....   82
 Basis Dimension        Dim             ....  188
 Nuclear Repulsion      ENuc            ....    636.6212341171 Eh

Convergence Acceleration:
 DIIS                   CNVDIIS         .... on
   Start iteration      DIISMaxIt       ....     0
   Startup error        DIISStart       ....  0.200000
   # of expansion vecs  DIISMaxEq       ....     5
   Bias factor          DIISBfac        ....   1.050
   Max. coefficient     DIISMaxC        ....  10.000
 Newton-Raphson         CNVNR           .... off
 SOSCF                  CNVSOSCF        .... off
 Level Shifting         CNVShift        .... off
 Zerner damping         CNVZerner       .... off
 Static damping         CNVDamp         .... off
 Fernandez-Rico         CNVRico         .... off

SCF Procedure:
 Maximum # iterations   MaxIter         ....   125
 SCF integral mode      SCFMode         .... Direct
   Integral package                     .... LIBINT
 Reset frequency        DirectResetFreq ....    20
 Integral Threshold     Thresh          ....  1.000e-10 Eh
 Primitive CutOff       TCut            ....  1.000e-11 Eh

Convergence Tolerance:
 Convergence Check Mode ConvCheckMode   .... All-Criteria
 Convergence forced     ConvForced      .... 0
 Energy Change          TolE            ....  1.000e-06 Eh
 Max Density Change     TolMaxP         ....  1.000e-05
 RMS Density Change     TolRMSP         ....  1.000e-06
 DIIS Error             TolErr          ....  1.000e-06


Diagonalization of the overlap matrix:
Smallest eigenvalue                        ... 1.707e-04
Time for diagonalization                   ...    0.128 sec
Threshold for overlap eigenvalues          ... 1.000e-08
Number of eigenvalues below threshold      ... 0
Time for construction of square roots      ...    0.002 sec
Total time needed                          ...    0.129 sec

-------------------
DFT GRID GENERATION
-------------------

General Integration Accuracy     IntAcc      ...  4.670
Radial Grid Type                 RadialGrid  ... Gauss-Chebyshev
Angular Grid (max. acc.)         AngularGrid ... Lebedev-302
Angular grid pruning method      GridPruning ... 3 (G Style)
Weight generation scheme         WeightScheme... Becke
Basis function cutoff            BFCut       ...    1.0000e-10
Integration weight cutoff        WCut        ...    1.0000e-14
Grids for H and He will be reduced by one unit

# of grid points (after initial pruning)     ... 108484 (   0.1 sec)
# of grid points (after weights+screening)   ...  96851 (   0.3 sec)
nearest neighbour list constructed           ...    0.0 sec
Grid point re-assignment to atoms done       ...    0.0 sec
Grid point division into batches done        ...    0.3 sec
Reduced shell lists constructed in    1.0 sec

Total number of grid points                  ...    96851
Total number of batches                      ...     1525
Average number of points per batch           ...       63
Average number of grid points per atom       ...     4402
Average number of shells per batch           ...    52.73 (57.32%)
Average number of basis functions per batch  ...   109.44 (58.21%)
Average number of large shells per batch     ...    38.15 (72.34%)
Average number of large basis fcns per batch ...    79.95 (73.05%)
Maximum spatial batch extension              ...  20.80, 19.33, 18.90 au
Average spatial batch extension              ...   2.41,  2.38,  2.52 au

Time for grid setup =    1.387 sec

------------------------------
INITIAL GUESS: MODEL POTENTIAL
------------------------------
Loading Hartree-Fock densities                     ... done
Calculating cut-offs                               ... done
Setting up the integral package                    ... done
Initializing the effective Hamiltonian             ... done
Starting the Coulomb interaction                   ... done (   0.2 sec)
Reading the grid                                   ... done
Mapping shells                                     ... done
Starting the XC term evaluation                    ... done (   1.0 sec)
  promolecular density results
     # of electrons  =     81.994760705
     EX              =    -64.598712608
     EC              =     -2.750839370
     EX+EC           =    -67.349551978
Transforming the Hamiltonian                       ... done (   0.0 sec)
Diagonalizing the Hamiltonian                      ... done (   0.0 sec)
Back transforming the eigenvectors                 ... done (   0.0 sec)
Now organizing SCF variables                       ... done
                      ------------------
                      INITIAL GUESS DONE (   2.7 sec)
                      ------------------
--------------
SCF ITERATIONS
--------------
ITER       Energy         Delta-E        Max-DP      RMS-DP      [F,P]   Gradient Norm
               ***  Starting incremental Fock matrix formation  ***
                             ****Resetting KDIIS****
                             ****Turning on KDIIS(Cayley)****
  0   -462.3010008593   0.000000000000 0.13215578  0.00185737  0.0859936   0.094491927
  1   -462.4267060109  -0.125705151663 0.10902661  0.00176191  0.0739869   0.077789821
  2   -462.5233225359  -0.096616524985 0.16149249  0.00263300  0.0581554   0.063180571
  3   -462.6350317612  -0.111709225338 0.17594486  0.00358126  0.0362561   0.039208723
  4   -462.7046127504  -0.069580989140 0.00612566  0.00027225  0.0033079   0.002623180
  5   -462.7050282441  -0.000415493688 0.00921897  0.00040878  0.0018076   0.001481372
  6   -462.7051635534  -0.000135309333 0.00263052  0.00011095  0.0008422   0.000901328
  7   -462.7052030129  -0.000039459505 0.00073501  0.00001729  0.0001499   0.000111566
  8   -462.7052040391  -0.000001026232 0.00024086  0.00000867  0.0001915   0.000068238
                          ***Energy convergence achieved***
  9   -462.7052044414  -0.000000402250 0.00007982  0.00000412  0.0000419   0.000034652

            ***Energy convergence in two consecutive cycles with***
                    ***'reasonable' density convergence***
                       *** signaling convergence ***

                    *** KDIIS BlockDiag (151.067 sec) ***

               *****************************************************
               *                     SUCCESS                       *
               *           SCF CONVERGED AFTER  10 CYCLES          *
               *****************************************************

Setting up the final grid:

General Integration Accuracy     IntAcc      ...  5.010
Radial Grid Type                 RadialGrid  ... Gauss-Chebyshev
Angular Grid (max. acc.)         AngularGrid ... Lebedev-434
Angular grid pruning method      GridPruning ... 3 (G Style)
Weight generation scheme         WeightScheme... Becke
Basis function cutoff            BFCut       ...    1.0000e-10
Integration weight cutoff        WCut        ...    1.0000e-14
Grids for H and He will be reduced by one unit

# of grid points (after initial pruning)     ... 195296 (   0.1 sec)
# of grid points (after weights+screening)   ... 173924 (   0.6 sec)
nearest neighbour list constructed           ...    0.0 sec
Grid point re-assignment to atoms done       ...    0.0 sec
Grid point division into batches done        ...    1.1 sec
Reduced shell lists constructed in    2.2 sec

Total number of grid points                  ...   173924
Total number of batches                      ...     2730
Average number of points per batch           ...       63
Average number of grid points per atom       ...     7906
Average number of shells per batch           ...    50.96 (55.39%)
Average number of basis functions per batch  ...   105.56 (56.15%)
Average number of large shells per batch     ...    36.61 (71.85%)
Average number of large basis fcns per batch ...    76.63 (72.60%)
Maximum spatial batch extension              ...  21.90, 17.41, 20.42 au
Average spatial batch extension              ...   1.96,  1.94,  2.03 au

Final grid set up in    2.9 sec
Final integration                            ... done (   2.6 sec)
Change in XC energy                          ...    -0.001305598
Integrated number of electrons               ...    81.999994453
Previous integrated no of electrons          ...    81.999846973

----------------
TOTAL SCF ENERGY
----------------

Total Energy       :         -462.70651011 Eh          -12590.88425 eV

Components:
Nuclear Repulsion  :          636.62123412 Eh           17323.34448 eV
Electronic Energy  :        -1099.32774423 Eh          -29914.22873 eV
One Electron Energy:        -1885.23852624 Eh          -51299.94834 eV
Two Electron Energy:          785.91078201 Eh           21385.71961 eV

Virial components:
Potential Energy   :         -925.84425172 Eh          -25193.50290 eV
Kinetic Energy     :          463.13774161 Eh           12602.61865 eV
Virial Ratio       :            1.99906889


DFT components:
N(Alpha)           :       40.999997226732 electrons
N(Beta)            :       40.999997226732 electrons
N(Total)           :       81.999994453464 electrons
E(XC)              :      -48.052569302349 Eh       
DFET-embed. en.    :        0.000000000000 Eh       

---------------
SCF CONVERGENCE
---------------

  Last Energy change         ...   -7.2897e-08  Tolerance :   1.0000e-06
  Last MAX-Density change    ...    3.4480e-05  Tolerance :   1.0000e-05
  Last RMS-Density change    ...    1.3294e-06  Tolerance :   1.0000e-06
  Last DIIS Error            ...    1.4307e-05  Tolerance :   1.0000e-06

             **** THE GBW FILE WAS UPDATED (biphenyl.gbw) ****
             **** DENSITY FILE WAS UPDATED (biphenyl.scfp) ****
             **** ENERGY FILE WAS UPDATED (biphenyl.en.tmp) ****
             **** THE GBW FILE WAS UPDATED (biphenyl.gbw) ****
             **** DENSITY FILE WAS UPDATED (biphenyl.scfp) ****
----------------
ORBITAL ENERGIES
----------------

  NO   OCC          E(Eh)            E(eV) 
   0   2.0000     -10.260784      -279.2101 
   1   2.0000     -10.260772      -279.2098 
   2   2.0000     -10.260756      -279.2094 
   3   2.0000     -10.260745      -279.2091 
   4   2.0000     -10.257178      -279.1120 
   5   2.0000     -10.257168      -279.1117 
   6   2.0000     -10.256158      -279.0843 
   7   2.0000     -10.256142      -279.0838 
   8   2.0000     -10.256138      -279.0837 
   9   2.0000     -10.256133      -279.0836 
  10   2.0000     -10.239605      -278.6338 
  11   2.0000     -10.222278      -278.1623 
  12   2.0000      -1.074412       -29.2362 
  13   2.0000      -0.972231       -26.4558 
  14   2.0000      -0.941723       -25.6256 
  15   2.0000      -0.896178       -24.3862 
  16   2.0000      -0.865055       -23.5393 
  17   2.0000      -0.827206       -22.5094 
  18   2.0000      -0.775957       -21.1149 
  19   2.0000      -0.773728       -21.0542 
  20   2.0000      -0.702650       -19.1201 
  21   2.0000      -0.681286       -18.5387 
  22   2.0000      -0.656372       -17.8608 
  23   2.0000      -0.605681       -16.4814 
  24   2.0000      -0.602708       -16.4005 
  25   2.0000      -0.598572       -16.2880 
  26   2.0000      -0.582515       -15.8510 
  27   2.0000      -0.539880       -14.6909 
  28   2.0000      -0.536417       -14.5966 
  29   2.0000      -0.532160       -14.4808 
  30   2.0000      -0.518521       -14.1097 
  31   2.0000      -0.476724       -12.9723 
  32   2.0000      -0.465466       -12.6660 
  33   2.0000      -0.459104       -12.4928 
  34   2.0000      -0.452252       -12.3064 
  35   2.0000      -0.451698       -12.2913 
  36   2.0000      -0.428233       -11.6528 
  37   2.0000      -0.363727        -9.8975 
  38   2.0000      -0.342450        -9.3185 
  39   2.0000      -0.339317        -9.2333 
  40   2.0000      -0.268708        -7.3119 
  41   0.0000       0.026764         0.7283 
  42   0.0000       0.085990         2.3399 
  43   0.0000       0.087332         2.3764 
  44   0.0000       0.157832         4.2948 
  45   0.0000       0.193021         5.2524 
  46   0.0000       0.204684         5.5697 
  47   0.0000       0.226070         6.1517 
  48   0.0000       0.237141         6.4529 
  49   0.0000       0.246809         6.7160 
  50   0.0000       0.267699         7.2845 
  51   0.0000       0.277529         7.5520 
  52   0.0000       0.284726         7.7478 
  53   0.0000       0.292277         7.9533 
  54   0.0000       0.300725         8.1831 
  55   0.0000       0.302032         8.2187 
  56   0.0000       0.319344         8.6898 
  57   0.0000       0.387848        10.5539 
  58   0.0000       0.396822        10.7981 
  59   0.0000       0.401626        10.9288 
  60   0.0000       0.423086        11.5128 
  61   0.0000       0.424104        11.5405 
  62   0.0000       0.427296        11.6273 
  63   0.0000       0.441282        12.0079 
  64   0.0000       0.487181        13.2569 
  65   0.0000       0.591126        16.0854 
  66   0.0000       0.594279        16.1712 
  67   0.0000       0.616148        16.7662 
  68   0.0000       0.616681        16.7807 
  69   0.0000       0.634854        17.2753 
  70   0.0000       0.647265        17.6130 
  71   0.0000       0.650798        17.7091 
  72   0.0000       0.652964        17.7681 
  73   0.0000       0.669582        18.2203 
  74   0.0000       0.679582        18.4924 
  75   0.0000       0.690772        18.7969 
  76   0.0000       0.693939        18.8830 
  77   0.0000       0.718649        19.5554 
  78   0.0000       0.721366        19.6294 
  79   0.0000       0.726237        19.7619 
  80   0.0000       0.727559        19.7979 
  81   0.0000       0.729558        19.8523 
  82   0.0000       0.733855        19.9692 
  83   0.0000       0.735756        20.0209 
  84   0.0000       0.763527        20.7766 
  85   0.0000       0.772007        21.0074 
  86   0.0000       0.792458        21.5639 
  87   0.0000       0.830361        22.5953 
  88   0.0000       0.841426        22.8964 
  89   0.0000       0.843062        22.9409 
  90   0.0000       0.851582        23.1727 
  91   0.0000       0.860545        23.4166 
  92   0.0000       0.902811        24.5667 
  93   0.0000       0.909121        24.7384 
  94   0.0000       0.917272        24.9602 
  95   0.0000       0.960800        26.1447 
  96   0.0000       0.971752        26.4427 
  97   0.0000       0.972590        26.4655 
  98   0.0000       0.973688        26.4954 
  99   0.0000       0.980346        26.6766 
 100   0.0000       1.003914        27.3179 
 101   0.0000       1.014329        27.6013 
 102   0.0000       1.024059        27.8661 
 103   0.0000       1.036820        28.2133 
 104   0.0000       1.041685        28.3457 
 105   0.0000       1.079222        29.3671 
 106   0.0000       1.084489        29.5104 
 107   0.0000       1.103718        30.0337 
 108   0.0000       1.125396        30.6236 
 109   0.0000       1.146038        31.1853 
 110   0.0000       1.156755        31.4769 
 111   0.0000       1.183895        32.2154 
 112   0.0000       1.186553        32.2878 
 113   0.0000       1.260258        34.2934 
 114   0.0000       1.271438        34.5976 
 115   0.0000       1.279217        34.8093 
 116   0.0000       1.283911        34.9370 
 117   0.0000       1.291571        35.1454 
 118   0.0000       1.335226        36.3333 
 119   0.0000       1.382401        37.6170 
 120   0.0000       1.427566        38.8461 
 121   0.0000       1.445714        39.3399 
 122   0.0000       1.453269        39.5455 
 123   0.0000       1.516278        41.2600 
 124   0.0000       1.521846        41.4115 
 125   0.0000       1.544924        42.0395 
 126   0.0000       1.559738        42.4426 
 127   0.0000       1.586063        43.1590 
 128   0.0000       1.586407        43.1683 
 129   0.0000       1.589484        43.2521 
 130   0.0000       1.589528        43.2532 
 131   0.0000       1.643550        44.7233 
 132   0.0000       1.650314        44.9073 
 133   0.0000       1.664425        45.2913 
 134   0.0000       1.664581        45.2955 
 135   0.0000       1.679050        45.6893 
 136   0.0000       1.865703        50.7684 
 137   0.0000       1.877225        51.0819 
 138   0.0000       1.935167        52.6586 
 139   0.0000       1.969892        53.6035 
 140   0.0000       1.976090        53.7721 
 141   0.0000       2.002243        54.4838 
 142   0.0000       2.013902        54.8011 
 143   0.0000       2.043660        55.6108 
 144   0.0000       2.058248        56.0078 
 145   0.0000       2.109469        57.4016 
 146   0.0000       2.122111        57.7456 
 147   0.0000       2.174908        59.1823 
 148   0.0000       2.182453        59.3876 
 149   0.0000       2.182971        59.4017 
 150   0.0000       2.187356        59.5210 
 151   0.0000       2.196517        59.7703 
 152   0.0000       2.245061        61.0912 
 153   0.0000       2.277627        61.9774 
 154   0.0000       2.290987        62.3409 
 155   0.0000       2.297967        62.5309 
 156   0.0000       2.323167        63.2166 
 157   0.0000       2.337028        63.5938 
 158   0.0000       2.360614        64.2356 
 159   0.0000       2.369537        64.4784 
 160   0.0000       2.397624        65.2427 
 161   0.0000       2.432744        66.1983 
 162   0.0000       2.460903        66.9646 
 163   0.0000       2.474750        67.3414 
 164   0.0000       2.495295        67.9004 
 165   0.0000       2.498177        67.9788 
 166   0.0000       2.610544        71.0365 
 167   0.0000       2.676976        72.8442 
 168   0.0000       2.687245        73.1237 
 169   0.0000       2.698541        73.4310 
 170   0.0000       2.710284        73.7506 
 171   0.0000       2.779434        75.6322 
 172   0.0000       2.788247        75.8721 
 173   0.0000       2.816587        76.6432 
 174   0.0000       2.854528        77.6756 
 175   0.0000       2.879852        78.3647 
 176   0.0000       2.900047        78.9143 
 177   0.0000       2.931002        79.7566 
 178   0.0000       2.973386        80.9100 
 179   0.0000       2.996767        81.5462 
 180   0.0000       3.017675        82.1151 
 181   0.0000       3.038500        82.6818 
 182   0.0000       3.043633        82.8215 
 183   0.0000       3.307205        89.9936 
 184   0.0000       3.479982        94.6951 
 185   0.0000       3.572710        97.2184 
 186   0.0000       3.827762       104.1587 
 187   0.0000       4.576294       124.5273 

                    ********************************
                    * MULLIKEN POPULATION ANALYSIS *
                    ********************************

-----------------------
MULLIKEN ATOMIC CHARGES
-----------------------
   0 C :    0.138791
   1 C :   -0.224877
   2 C :   -0.163420
   3 C :   -0.167040
   4 C :   -0.163498
   5 C :   -0.225054
   6 C :    0.138779
   7 C :   -0.224928
   8 C :   -0.163493
   9 C :   -0.166996
  10 C :   -0.163487
  11 C :   -0.224949
  12 H :    0.167210
  13 H :    0.157499
  14 H :    0.155640
  15 H :    0.157512
  16 H :    0.167261
  17 H :    0.167212
  18 H :    0.157503
  19 H :    0.155649
  20 H :    0.157499
  21 H :    0.167187
Sum of atomic charges:    0.0000000

--------------------------------
MULLIKEN REDUCED ORBITAL CHARGES
--------------------------------
  0 C s       :     2.937218  s :     2.937218
      pz      :     0.993969  p :     2.851024
      px      :     0.855436
      py      :     1.001619
      dz2     :     0.002739  d :     0.072967
      dxz     :     0.010849
      dyz     :     0.016685
      dx2y2   :     0.024281
      dxy     :     0.018413
  1 C s       :     3.172988  s :     3.172988
      pz      :     1.019139  p :     3.012974
      px      :     0.969198
      py      :     1.024637
      dz2     :     0.003590  d :     0.038915
      dxz     :     0.005039
      dyz     :     0.003375
      dx2y2   :     0.012063
      dxy     :     0.014848
  2 C s       :     3.175058  s :     3.175058
      pz      :     0.976620  p :     2.950550
      px      :     1.026189
      py      :     0.947741
      dz2     :     0.003345  d :     0.037812
      dxz     :     0.002252
      dyz     :     0.007687
      dx2y2   :     0.014788
      dxy     :     0.009740
  3 C s       :     3.162626  s :     3.162626
      pz      :     1.013533  p :     2.967508
      px      :     0.958650
      py      :     0.995325
      dz2     :     0.003358  d :     0.036905
      dxz     :     0.005351
      dyz     :     0.003357
      dx2y2   :     0.011112
      dxy     :     0.013728
  4 C s       :     3.175016  s :     3.175016
      pz      :     0.976683  p :     2.950670
      px      :     0.956814
      py      :     1.017173
      dz2     :     0.003344  d :     0.037812
      dxz     :     0.006298
      dyz     :     0.003639
      dx2y2   :     0.011002
      dxy     :     0.013528
  5 C s       :     3.173036  s :     3.173036
      pz      :     1.019123  p :     3.013101
      px      :     1.009283
      py      :     0.984695
      dz2     :     0.003593  d :     0.038917
      dxz     :     0.002050
      dyz     :     0.006362
      dx2y2   :     0.016874
      dxy     :     0.010038
  6 C s       :     2.937205  s :     2.937205
      pz      :     0.825239  p :     2.851051
      px      :     0.980667
      py      :     1.045145
      dz2     :     0.008159  d :     0.072964
      dxz     :     0.010272
      dyz     :     0.017698
      dx2y2   :     0.021935
      dxy     :     0.014901
  7 C s       :     3.173030  s :     3.173030
      pz      :     1.018537  p :     3.012983
      px      :     0.972620
      py      :     1.021825
      dz2     :     0.004386  d :     0.038916
      dxz     :     0.005857
      dyz     :     0.009416
      dx2y2   :     0.009631
      dxy     :     0.009626
  8 C s       :     3.175057  s :     3.175057
      pz      :     0.987178  p :     2.950626
      px      :     1.008122
      py      :     0.955326
      dz2     :     0.004421  d :     0.037810
      dxz     :     0.007634
      dyz     :     0.007858
      dx2y2   :     0.009832
      dxy     :     0.008065
  9 C s       :     3.162642  s :     3.162642
      pz      :     0.972903  p :     2.967454
      px      :     0.988763
      py      :     1.005788
      dz2     :     0.007477  d :     0.036900
      dxz     :     0.005447
      dyz     :     0.005587
      dx2y2   :     0.007805
      dxy     :     0.010584
 10 C s       :     3.175082  s :     3.175082
      pz      :     0.986886  p :     2.950595
      px      :     0.959430
      py      :     1.004279
      dz2     :     0.004441  d :     0.037809
      dxz     :     0.005886
      dyz     :     0.009593
      dx2y2   :     0.009279
      dxy     :     0.008610
 11 C s       :     3.172942  s :     3.172942
      pz      :     1.018739  p :     3.013092
      px      :     1.006427
      py      :     0.987925
      dz2     :     0.004379  d :     0.038915
      dxz     :     0.007496
      dyz     :     0.007775
      dx2y2   :     0.011429
      dxy     :     0.007835
 12 H s       :     0.832790  s :     0.832790
 13 H s       :     0.842501  s :     0.842501
 14 H s       :     0.844360  s :     0.844360
 15 H s       :     0.842488  s :     0.842488
 16 H s       :     0.832739  s :     0.832739
 17 H s       :     0.832788  s :     0.832788
 18 H s       :     0.842497  s :     0.842497
 19 H s       :     0.844351  s :     0.844351
 20 H s       :     0.842501  s :     0.842501
 21 H s       :     0.832813  s :     0.832813


                     *******************************
                     * LOEWDIN POPULATION ANALYSIS *
                     *******************************

----------------------
LOEWDIN ATOMIC CHARGES
----------------------
   0 C :   -0.058276
   1 C :   -0.113462
   2 C :   -0.129027
   3 C :   -0.150651
   4 C :   -0.129062
   5 C :   -0.113442
   6 C :   -0.058279
   7 C :   -0.113422
   8 C :   -0.129053
   9 C :   -0.150633
  10 C :   -0.129048
  11 C :   -0.113440
  12 H :    0.142910
  13 H :    0.136365
  14 H :    0.135355
  15 H :    0.136374
  16 H :    0.142898
  17 H :    0.142910
  18 H :    0.136369
  19 H :    0.135360
  20 H :    0.136374
  21 H :    0.142880

-------------------------------
LOEWDIN REDUCED ORBITAL CHARGES
-------------------------------
  0 C s       :     2.731317  s :     2.731317
      pz      :     0.898649  p :     3.094253
      px      :     1.059620
      py      :     1.135985
      dz2     :     0.014412  d :     0.232706
      dxz     :     0.025426
      dyz     :     0.043956
      dx2y2   :     0.085576
      dxy     :     0.063336
  1 C s       :     2.903468  s :     2.903468
      pz      :     1.019705  p :     3.121643
      px      :     1.022549
      py      :     1.079388
      dz2     :     0.006591  d :     0.088351
      dxz     :     0.010418
      dyz     :     0.006123
      dx2y2   :     0.029844
      dxy     :     0.035374
  2 C s       :     2.907633  s :     2.907633
      pz      :     0.968195  p :     3.132144
      px      :     1.080567
      py      :     1.083382
      dz2     :     0.006154  d :     0.089250
      dxz     :     0.003493
      dyz     :     0.016510
      dx2y2   :     0.036137
      dxy     :     0.026955
  3 C s       :     2.905657  s :     2.905657
      pz      :     1.003792  p :     3.157530
      px      :     1.076032
      py      :     1.077706
      dz2     :     0.006168  d :     0.087464
      dxz     :     0.011125
      dyz     :     0.006191
      dx2y2   :     0.029586
      dxy     :     0.034395
  4 C s       :     2.907629  s :     2.907629
      pz      :     0.968233  p :     3.132182
      px      :     1.081374
      py      :     1.082575
      dz2     :     0.006155  d :     0.089250
      dxz     :     0.013154
      dyz     :     0.006845
      dx2y2   :     0.029360
      dxy     :     0.033735
  5 C s       :     2.903467  s :     2.903467
      pz      :     1.019720  p :     3.121619
      px      :     1.068038
      py      :     1.033861
      dz2     :     0.006598  d :     0.088356
      dxz     :     0.003383
      dyz     :     0.013151
      dx2y2   :     0.037826
      dxy     :     0.027399
  6 C s       :     2.731313  s :     2.731313
      pz      :     0.961466  p :     3.094263
      px      :     1.013033
      py      :     1.119764
      dz2     :     0.022868  d :     0.232703
      dxz     :     0.028435
      dyz     :     0.049954
      dx2y2   :     0.077471
      dxy     :     0.053975
  7 C s       :     2.903478  s :     2.903478
      pz      :     1.051646  p :     3.121590
      px      :     1.000993
      py      :     1.068951
      dz2     :     0.010169  d :     0.088354
      dxz     :     0.012923
      dyz     :     0.019052
      dx2y2   :     0.022526
      dxy     :     0.023685
  8 C s       :     2.907626  s :     2.907626
      pz      :     1.015919  p :     3.132179
      px      :     1.044660
      py      :     1.071600
      dz2     :     0.009852  d :     0.089248
      dxz     :     0.014399
      dyz     :     0.019918
      dx2y2   :     0.024242
      dxy     :     0.020836
  9 C s       :     2.905662  s :     2.905662
      pz      :     1.028774  p :     3.157512
      px      :     1.057480
      py      :     1.071258
      dz2     :     0.015561  d :     0.087459
      dxz     :     0.014775
      dyz     :     0.014288
      dx2y2   :     0.019069
      dxy     :     0.023766
 10 C s       :     2.907634  s :     2.907634
      pz      :     1.015915  p :     3.132168
      px      :     1.046478
      py      :     1.069775
      dz2     :     0.009893  d :     0.089246
      dxz     :     0.014250
      dyz     :     0.020070
      dx2y2   :     0.022663
      dxy     :     0.022371
 11 C s       :     2.903450  s :     2.903450
      pz      :     1.051777  p :     3.121638
      px      :     1.042068
      py      :     1.027794
      dz2     :     0.010151  d :     0.088351
      dxz     :     0.014097
      dyz     :     0.017860
      dx2y2   :     0.025630
      dxy     :     0.020613
 12 H s       :     0.857090  s :     0.857090
 13 H s       :     0.863635  s :     0.863635
 14 H s       :     0.864645  s :     0.864645
 15 H s       :     0.863626  s :     0.863626
 16 H s       :     0.857102  s :     0.857102
 17 H s       :     0.857090  s :     0.857090
 18 H s       :     0.863631  s :     0.863631
 19 H s       :     0.864640  s :     0.864640
 20 H s       :     0.863626  s :     0.863626
 21 H s       :     0.857120  s :     0.857120


                      *****************************
                      * MAYER POPULATION ANALYSIS *
                      *****************************

  NA   - Mulliken gross atomic population
  ZA   - Total nuclear charge
  QA   - Mulliken gross atomic charge
  VA   - Mayer's total valence
  BVA  - Mayer's bonded valence
  FA   - Mayer's free valence

  ATOM       NA         ZA         QA         VA         BVA        FA
  0 C      5.8612     6.0000     0.1388     4.1702     4.1702     0.0000
  1 C      6.2249     6.0000    -0.2249     3.9389     3.9389     0.0000
  2 C      6.1634     6.0000    -0.1634     3.9535     3.9535     0.0000
  3 C      6.1670     6.0000    -0.1670     3.9491     3.9491     0.0000
  4 C      6.1635     6.0000    -0.1635     3.9537     3.9537     0.0000
  5 C      6.2251     6.0000    -0.2251     3.9388     3.9388     0.0000
  6 C      5.8612     6.0000     0.1388     4.1704     4.1704     0.0000
  7 C      6.2249     6.0000    -0.2249     3.9389     3.9389     0.0000
  8 C      6.1635     6.0000    -0.1635     3.9536     3.9536     0.0000
  9 C      6.1670     6.0000    -0.1670     3.9491     3.9491     0.0000
 10 C      6.1635     6.0000    -0.1635     3.9536     3.9536    -0.0000
 11 C      6.2249     6.0000    -0.2249     3.9389     3.9389     0.0000
 12 H      0.8328     1.0000     0.1672     0.9374     0.9374    -0.0000
 13 H      0.8425     1.0000     0.1575     0.9366     0.9366     0.0000
 14 H      0.8444     1.0000     0.1556     0.9372     0.9372    -0.0000
 15 H      0.8425     1.0000     0.1575     0.9366     0.9366    -0.0000
 16 H      0.8327     1.0000     0.1673     0.9374     0.9374    -0.0000
 17 H      0.8328     1.0000     0.1672     0.9374     0.9374     0.0000
 18 H      0.8425     1.0000     0.1575     0.9366     0.9366     0.0000
 19 H      0.8444     1.0000     0.1556     0.9372     0.9372     0.0000
 20 H      0.8425     1.0000     0.1575     0.9366     0.9366    -0.0000
 21 H      0.8328     1.0000     0.1672     0.9374     0.9374    -0.0000

  Mayer bond orders larger than 0.100000
B(  0-C ,  1-C ) :   1.2876 B(  0-C ,  5-C ) :   1.2872 B(  0-C ,  6-C ) :   1.4023 
B(  1-C ,  2-C ) :   1.4585 B(  1-C , 12-H ) :   0.9209 B(  2-C ,  3-C ) :   1.4416 
B(  2-C , 13-H ) :   0.9328 B(  3-C ,  4-C ) :   1.4416 B(  3-C , 14-H ) :   0.9360 
B(  4-C ,  5-C ) :   1.4586 B(  4-C , 15-H ) :   0.9328 B(  5-C , 16-H ) :   0.9209 
B(  6-C ,  7-C ) :   1.2874 B(  6-C , 11-C ) :   1.2875 B(  7-C ,  8-C ) :   1.4586 
B(  7-C , 17-H ) :   0.9209 B(  8-C ,  9-C ) :   1.4416 B(  8-C , 18-H ) :   0.9328 
B(  9-C , 10-C ) :   1.4416 B(  9-C , 19-H ) :   0.9360 B( 10-C , 11-C ) :   1.4586 
B( 10-C , 20-H ) :   0.9328 B( 11-C , 21-H ) :   0.9209 

-------
TIMINGS
-------

Total SCF time: 0 days 0 hours 2 min 36 sec 

Total time                  ....     156.606 sec
Sum of individual times     ....     156.282 sec  ( 99.8%)

Fock matrix formation       ....     150.670 sec  ( 96.2%)
  XC integration            ....      17.714 sec  ( 11.8% of F)
    Basis function eval.    ....       5.518 sec  ( 31.2% of XC)
    Density eval.           ....       3.234 sec  ( 18.3% of XC)
    XC-Functional eval.     ....       4.999 sec  ( 28.2% of XC)
    XC-Potential eval.      ....       3.421 sec  ( 19.3% of XC)
Diagonalization             ....       0.036 sec  (  0.0%)
Density matrix formation    ....       0.007 sec  (  0.0%)
Population analysis         ....       0.004 sec  (  0.0%)
Initial guess               ....       1.269 sec  (  0.8%)
Orbital Transformation      ....       0.000 sec  (  0.0%)
Orbital Orthonormalization  ....       0.000 sec  (  0.0%)
DIIS solution               ....       0.000 sec  (  0.0%)
Grid generation             ....       4.296 sec  (  2.7%)

-------------------------   --------------------
FINAL SINGLE POINT ENERGY      -462.706510112067
-------------------------   --------------------

Storing actual gbw-file in biphenyl.001.gbw ... done

                            ***************************************
                            *     ORCA property calculations      *
                            ***************************************

                                    ---------------------
                                    Active property flags
                                    ---------------------
   (+) Dipole Moment


------------------------------------------------------------------------------
                       ORCA ELECTRIC PROPERTIES CALCULATION
------------------------------------------------------------------------------

Dipole Moment Calculation                       ... on
Quadrupole Moment Calculation                   ... off
Polarizability Calculation                      ... off
GBWName                                         ... biphenyl.gbw
Electron density file                           ... biphenyl.scfp
The origin for moment calculation is the CENTER OF MASS  = (-0.467958, -0.789265  0.002709)

-------------
DIPOLE MOMENT
-------------
                                X             Y             Z
Electronic contribution:     -0.00016      -0.00020      -0.00121
Nuclear contribution   :     -0.00005       0.00005       0.00136
                        -----------------------------------------
Total Dipole Moment    :     -0.00021      -0.00015       0.00015
                        -----------------------------------------
Magnitude (a.u.)       :      0.00030
Magnitude (Debye)      :      0.00077



--------------------
Rotational spectrum 
--------------------
 
Rotational constants in cm-1:     0.096559     0.022406     0.019086 
Rotational constants in MHz :  2894.774649   671.707167   572.177533 

 Dipole components along the rotational axes: 
x,y,z [a.u.] :    -0.000240     0.000152     0.000103 
x,y,z [Debye]:    -0.000611     0.000387     0.000262 

 

         *************************************************************
                                TRAJECTORY STEP   2
                  R  :   1.07111000
         *************************************************************
---------------------------------
CARTESIAN COORDINATES (ANGSTROEM)
---------------------------------
  C      0.000000    0.000000    0.000000
  C      1.392910    0.000000    0.000000
  C      2.097269    1.189673    0.000000
  C      1.422475    2.398897   -0.004344
  C      0.037759    2.410886   -0.006721
  C     -0.668193    1.222177   -0.002402
  C     -0.546373   -0.921276    0.002045
  C     -1.683844   -1.070732    0.791996
  C     -2.386976   -2.261123    0.796386
  C     -1.968625   -3.320302    0.008533
  C     -0.840497   -3.182177   -0.782583
  C     -0.133550   -1.994030   -0.784681
  H      1.925245   -0.939965    0.020888
  H      3.177692    1.173939    0.005254
  H      1.973367    3.327946   -0.005843
  H     -0.494353    3.351310   -0.013647
  H     -1.748340    1.238298   -0.021737
  H     -2.005322   -0.254129    1.422220
  H     -3.264763   -2.363916    1.418052
  H     -2.519598   -4.249301    0.010804
  H     -0.511179   -4.003962   -1.402088
  H      0.735819   -1.886839   -1.417165

----------------------------
CARTESIAN COORDINATES (A.U.)
----------------------------
  NO LB      ZA    FRAG     MASS         X           Y           Z
   0 C     6.0000    0    12.011    0.000000    0.000000    0.000000
   1 C     6.0000    0    12.011    2.632218    0.000000    0.000000
   2 C     6.0000    0    12.011    3.963264    2.248157    0.000000
   3 C     6.0000    0    12.011    2.688087    4.533258   -0.008209
   4 C     6.0000    0    12.011    0.071353    4.555915   -0.012701
   5 C     6.0000    0    12.011   -1.262703    2.309580   -0.004539
   6 C     6.0000    0    12.011   -1.032496   -1.740958    0.003865
   7 C     6.0000    0    12.011   -3.182004   -2.023391    1.496655
   8 C     6.0000    0    12.011   -4.510730   -4.272904    1.504951
   9 C     6.0000    0    12.011   -3.720163   -6.274461    0.016126
  10 C     6.0000    0    12.011   -1.588310   -6.013443   -1.478867
  11 C     6.0000    0    12.011   -0.252374   -3.768170   -1.482832
  12 H     1.0000    0     1.008    3.638186   -1.776276    0.039472
  13 H     1.0000    0     1.008    6.004967    2.218423    0.009928
  14 H     1.0000    0     1.008    3.729123    6.288906   -0.011041
  15 H     1.0000    0     1.008   -0.934192    6.333059   -0.025788
  16 H     1.0000    0     1.008   -3.303884    2.340043   -0.041077
  17 H     1.0000    0     1.008   -3.789510   -0.480234    2.687607
  18 H     1.0000    0     1.008   -6.169507   -4.467155    2.679730
  19 H     1.0000    0     1.008   -4.761351   -8.030016    0.020417
  20 H     1.0000    0     1.008   -0.965989   -7.566391   -2.649562
  21 H     1.0000    0     1.008    1.390497   -3.565608   -2.678053

--------------------------------
INTERNAL COORDINATES (ANGSTROEM)
--------------------------------
 C      0   0   0     0.000000000000     0.00000000     0.00000000
 C      1   0   0     1.392910000000     0.00000000     0.00000000
 C      2   1   0     1.382550000000   120.62811000     0.00000000
 C      3   2   1     1.384770000000   120.20849000   359.79201000
 C      4   3   2     1.384770000000   119.65945000     0.09384000
 C      5   4   3     1.382540000000   120.20864000     0.11352000
 C      1   2   3     1.071110000000   120.67050000   180.12721000
 C      7   1   2     1.392910000000   120.65895000   138.77643000
 C      8   7   1     1.382550000000   120.63028000   180.14100000
 C      9   8   7     1.384770000000   120.20638000   359.77332000
 C     10   9   8     1.384780000000   119.66024000     0.11073000
 C     11  10   9     1.382560000000   120.20856000     0.11187000
 H      2   1   3     1.080440000000   119.51834000   178.72699000
 H      3   2   1     1.080550000000   119.79335000   179.67899000
 H      4   3   2     1.080100000000   120.17046000   180.09210000
 H      5   4   3     1.080550000000   119.99816000   180.21642000
 H      6   5   4     1.080440000000   119.84111000   181.06684000
 H      8   7   1     1.080450000000   119.51700000   358.83423000
 H      9   8   7     1.080530000000   119.79426000   179.69915000
 H     10   9   8     1.080100000000   120.17010000   180.13148000
 H     11  10   9     1.080540000000   119.99775000   180.21436000
 H     12  11  10     1.080430000000   119.84090000   181.06359000

---------------------------
INTERNAL COORDINATES (A.U.)
---------------------------
 C      0   0   0     0.000000000000     0.00000000     0.00000000
 C      1   0   0     2.632218429200     0.00000000     0.00000000
 C      2   1   0     2.612640866453   120.62811000     0.00000000
 C      3   2   1     2.616836058470   120.20849000   359.79201000
 C      4   3   2     2.616836058470   119.65945000     0.09384000
 C      5   4   3     2.612621969191   120.20864000     0.11352000
 C      1   2   3     2.024104559304   120.67050000   180.12721000
 C      7   1   2     2.632218429200   120.65895000   138.77643000
 C      8   7   1     2.612640866453   120.63028000   180.14100000
 C      9   8   7     2.616836058470   120.20638000   359.77332000
 C     10   9   8     2.616854955731   119.66024000     0.11073000
 C     11  10   9     2.612659763714   120.20856000     0.11187000
 H      2   1   3     2.041735704134   119.51834000   178.72699000
 H      3   2   1     2.041943574009   119.79335000   179.67899000
 H      4   3   2     2.041093197248   120.17046000   180.09210000
 H      5   4   3     2.041943574009   119.99816000   180.21642000
 H      6   5   4     2.041735704134   119.84111000   181.06684000
 H      8   7   1     2.041754601395   119.51700000   358.83423000
 H      9   8   7     2.041905779486   119.79426000   179.69915000
 H     10   9   8     2.041093197248   120.17010000   180.13148000
 H     11  10   9     2.041924676747   119.99775000   180.21436000
 H     12  11  10     2.041716806873   119.84090000   181.06359000


Diagonalization of the overlap matrix:
Smallest eigenvalue                        ... 2.946e-04
Time for diagonalization                   ...    0.006 sec
Threshold for overlap eigenvalues          ... 1.000e-08
Number of eigenvalues below threshold      ... 0
Time for construction of square roots      ...    0.001 sec
Total time needed                          ...    0.008 sec

-------------------
DFT GRID GENERATION
-------------------

General Integration Accuracy     IntAcc      ...  4.670
Radial Grid Type                 RadialGrid  ... Gauss-Chebyshev
Angular Grid (max. acc.)         AngularGrid ... Lebedev-302
Angular grid pruning method      GridPruning ... 3 (G Style)
Weight generation scheme         WeightScheme... Becke
Basis function cutoff            BFCut       ...    1.0000e-10
Integration weight cutoff        WCut        ...    1.0000e-14
Grids for H and He will be reduced by one unit

# of grid points (after initial pruning)     ... 108484 (   0.1 sec)
# of grid points (after weights+screening)   ...  96971 (   0.3 sec)
nearest neighbour list constructed           ...    0.0 sec
Grid point re-assignment to atoms done       ...    0.0 sec
Grid point division into batches done        ...    0.3 sec
Reduced shell lists constructed in    1.0 sec

Total number of grid points                  ...    96971
Total number of batches                      ...     1527
Average number of points per batch           ...       63
Average number of grid points per atom       ...     4408
Average number of shells per batch           ...    52.16 (56.69%)
Average number of basis functions per batch  ...   108.21 (57.56%)
Average number of large shells per batch     ...    37.58 (72.04%)
Average number of large basis fcns per batch ...    78.68 (72.70%)
Maximum spatial batch extension              ...  21.82, 21.08, 19.71 au
Average spatial batch extension              ...   2.42,  2.39,  2.53 au

Time for grid setup =    1.383 sec

--------------
SCF ITERATIONS
--------------
ITER       Energy         Delta-E        Max-DP      RMS-DP      [F,P]   Gradient Norm
               ***  Starting incremental Fock matrix formation  ***
                             ****Resetting KDIIS****
                             ****Turning on KDIIS(Cayley)****
  0   -462.9180506291   0.000000000000 0.01313869  0.00022388  0.0154253   0.014254838
  1   -462.9199304334  -0.001879804263 0.01783206  0.00035591  0.0133091   0.012583401
  2   -462.9223838944  -0.002453461062 0.02767966  0.00057125  0.0114174   0.010318973
  3   -462.9257105590  -0.003326664552 0.03451687  0.00081726  0.0072445   0.006297143
  4   -462.9277548991  -0.002044340150 0.00105401  0.00003157  0.0003738   0.000266123
  5   -462.9277607954  -0.000005896285 0.00019599  0.00001003  0.0001294   0.000070717
                          ***Energy convergence achieved***
  6   -462.9277610907  -0.000000295273 0.00007990  0.00000243  0.0000324   0.000039899
                           ***RMSP convergence achieved***

            ***Energy convergence in two consecutive cycles with***
                    ***'reasonable' density convergence***
                       *** signaling convergence ***

                    *** KDIIS BlockDiag (102.367 sec) ***

               *****************************************************
               *                     SUCCESS                       *
               *           SCF CONVERGED AFTER   7 CYCLES          *
               *****************************************************

Setting up the final grid:

General Integration Accuracy     IntAcc      ...  5.010
Radial Grid Type                 RadialGrid  ... Gauss-Chebyshev
Angular Grid (max. acc.)         AngularGrid ... Lebedev-434
Angular grid pruning method      GridPruning ... 3 (G Style)
Weight generation scheme         WeightScheme... Becke
Basis function cutoff            BFCut       ...    1.0000e-10
Integration weight cutoff        WCut        ...    1.0000e-14
Grids for H and He will be reduced by one unit

# of grid points (after initial pruning)     ... 195296 (   0.1 sec)
# of grid points (after weights+screening)   ... 174155 (   0.6 sec)
nearest neighbour list constructed           ...    0.0 sec
Grid point re-assignment to atoms done       ...    0.0 sec
Grid point division into batches done        ...    1.1 sec
Reduced shell lists constructed in    2.2 sec

Total number of grid points                  ...   174155
Total number of batches                      ...     2734
Average number of points per batch           ...       63
Average number of grid points per atom       ...     7916
Average number of shells per batch           ...    50.42 (54.81%)
Average number of basis functions per batch  ...   104.39 (55.52%)
Average number of large shells per batch     ...    36.11 (71.60%)
Average number of large basis fcns per batch ...    75.60 (72.42%)
Maximum spatial batch extension              ...  21.90, 17.93, 21.32 au
Average spatial batch extension              ...   1.98,  1.94,  2.04 au

Final grid set up in    2.8 sec
Final integration                            ... done (   2.4 sec)
Change in XC energy                          ...    -0.001291412
Integrated number of electrons               ...    82.000022529
Previous integrated no of electrons          ...    81.999885647
Total Energy       :         -462.92905256 Eh          -12596.93994 eV
  Last Energy change         ...   -5.9681e-08  Tolerance :   1.0000e-06
  Last MAX-Density change    ...    3.0126e-05  Tolerance :   1.0000e-05
             **** THE GBW FILE WAS UPDATED (biphenyl.gbw) ****
             **** DENSITY FILE WAS UPDATED (biphenyl.scfp) ****
             **** ENERGY FILE WAS UPDATED (biphenyl.en.tmp) ****
             **** THE GBW FILE WAS UPDATED (biphenyl.gbw) ****
             **** DENSITY FILE WAS UPDATED (biphenyl.scfp) ****
Total SCF time: 0 days 0 hours 1 min 47 sec 

-------------------------   --------------------
FINAL SINGLE POINT ENERGY      -462.929052562357
-------------------------   --------------------

Storing actual gbw-file in biphenyl.002.gbw ... done

                            ***************************************
                            *     ORCA property calculations      *
                            ***************************************

                                    ---------------------
                                    Active property flags
                                    ---------------------
   (+) Dipole Moment


------------------------------------------------------------------------------
                       ORCA ELECTRIC PROPERTIES CALCULATION
------------------------------------------------------------------------------

Dipole Moment Calculation                       ... on
Quadrupole Moment Calculation                   ... off
Polarizability Calculation                      ... off
GBWName                                         ... biphenyl.gbw
Electron density file                           ... biphenyl.scfp
The origin for moment calculation is the CENTER OF MASS  = (-0.516155, -0.870534  0.002890)

-------------
DIPOLE MOMENT
-------------
                                X             Y             Z
Electronic contribution:      0.00005      -0.00015      -0.00128
Nuclear contribution   :     -0.00005       0.00005       0.00136
                        -----------------------------------------
Total Dipole Moment    :     -0.00001      -0.00010       0.00008
                        -----------------------------------------
Magnitude (a.u.)       :      0.00013
Magnitude (Debye)      :      0.00032



--------------------
Rotational spectrum 
--------------------
 
Rotational constants in cm-1:     0.096559     0.021548     0.018460 
Rotational constants in MHz :  2894.774648   645.990245   553.410683 

 Dipole components along the rotational axes: 
x,y,z [a.u.] :    -0.000092    -0.000017     0.000087 
x,y,z [Debye]:    -0.000234    -0.000043     0.000221 

 

         *************************************************************
                                TRAJECTORY STEP   3
                  R  :   1.17111000
         *************************************************************
---------------------------------
CARTESIAN COORDINATES (ANGSTROEM)
---------------------------------
  C      0.000000    0.000000    0.000000
  C      1.392910    0.000000    0.000000
  C      2.097269    1.189673    0.000000
  C      1.422475    2.398897   -0.004344
  C      0.037759    2.410886   -0.006721
  C     -0.668193    1.222177   -0.002402
  C     -0.597383   -1.007287    0.002236
  C     -1.734854   -1.156743    0.792187
  C     -2.437986   -2.347135    0.796577
  C     -2.019635   -3.406313    0.008724
  C     -0.891507   -3.268188   -0.782392
  C     -0.184560   -2.080041   -0.784490
  H      1.925245   -0.939965    0.020888
  H      3.177692    1.173939    0.005254
  H      1.973367    3.327946   -0.005843
  H     -0.494353    3.351310   -0.013647
  H     -1.748340    1.238298   -0.021737
  H     -2.056332   -0.340140    1.422411
  H     -3.315773   -2.449928    1.418243
  H     -2.570608   -4.335313    0.010995
  H     -0.562189   -4.089973   -1.401897
  H      0.684809   -1.972850   -1.416974

----------------------------
CARTESIAN COORDINATES (A.U.)
----------------------------
  NO LB      ZA    FRAG     MASS         X           Y           Z
   0 C     6.0000    0    12.011    0.000000    0.000000    0.000000
   1 C     6.0000    0    12.011    2.632218    0.000000    0.000000
   2 C     6.0000    0    12.011    3.963264    2.248157    0.000000
   3 C     6.0000    0    12.011    2.688087    4.533258   -0.008209
   4 C     6.0000    0    12.011    0.071353    4.555915   -0.012701
   5 C     6.0000    0    12.011   -1.262703    2.309580   -0.004539
   6 C     6.0000    0    12.011   -1.128891   -1.903496    0.004226
   7 C     6.0000    0    12.011   -3.278399   -2.185928    1.497016
   8 C     6.0000    0    12.011   -4.607125   -4.435442    1.505312
   9 C     6.0000    0    12.011   -3.816558   -6.436999    0.016487
  10 C     6.0000    0    12.011   -1.684705   -6.175981   -1.478506
  11 C     6.0000    0    12.011   -0.348768   -3.930708   -1.482472
  12 H     1.0000    0     1.008    3.638186   -1.776276    0.039472
  13 H     1.0000    0     1.008    6.004967    2.218423    0.009928
  14 H     1.0000    0     1.008    3.729123    6.288906   -0.011041
  15 H     1.0000    0     1.008   -0.934192    6.333059   -0.025788
  16 H     1.0000    0     1.008   -3.303884    2.340043   -0.041077
  17 H     1.0000    0     1.008   -3.885905   -0.642772    2.687968
  18 H     1.0000    0     1.008   -6.265902   -4.629692    2.680090
  19 H     1.0000    0     1.008   -4.857746   -8.192553    0.020778
  20 H     1.0000    0     1.008   -1.062384   -7.728929   -2.649201
  21 H     1.0000    0     1.008    1.294102   -3.728146   -2.677692

--------------------------------
INTERNAL COORDINATES (ANGSTROEM)
--------------------------------
 C      0   0   0     0.000000000000     0.00000000     0.00000000
 C      1   0   0     1.392910000000     0.00000000     0.00000000
 C      2   1   0     1.382550000000   120.62811000     0.00000000
 C      3   2   1     1.384770000000   120.20849000   359.79201000
 C      4   3   2     1.384770000000   119.65945000     0.09384000
 C      5   4   3     1.382540000000   120.20864000     0.11352000
 C      1   2   3     1.171110000000   120.67050000   180.12721000
 C      7   1   2     1.392910000000   120.65895000   138.77643000
 C      8   7   1     1.382550000000   120.63028000   180.14100000
 C      9   8   7     1.384770000000   120.20638000   359.77332000
 C     10   9   8     1.384780000000   119.66024000     0.11073000
 C     11  10   9     1.382560000000   120.20856000     0.11187000
 H      2   1   3     1.080440000000   119.51834000   178.72699000
 H      3   2   1     1.080550000000   119.79335000   179.67899000
 H      4   3   2     1.080100000000   120.17046000   180.09210000
 H      5   4   3     1.080550000000   119.99816000   180.21642000
 H      6   5   4     1.080440000000   119.84111000   181.06684000
 H      8   7   1     1.080450000000   119.51700000   358.83423000
 H      9   8   7     1.080530000000   119.79426000   179.69915000
 H     10   9   8     1.080100000000   120.17010000   180.13148000
 H     11  10   9     1.080540000000   119.99775000   180.21436000
 H     12  11  10     1.080430000000   119.84090000   181.06359000

---------------------------
INTERNAL COORDINATES (A.U.)
---------------------------
 C      0   0   0     0.000000000000     0.00000000     0.00000000
 C      1   0   0     2.632218429200     0.00000000     0.00000000
 C      2   1   0     2.612640866453   120.62811000     0.00000000
 C      3   2   1     2.616836058470   120.20849000   359.79201000
 C      4   3   2     2.616836058470   119.65945000     0.09384000
 C      5   4   3     2.612621969191   120.20864000     0.11352000
 C      1   2   3     2.213077172697   120.67050000   180.12721000
 C      7   1   2     2.632218429200   120.65895000   138.77643000
 C      8   7   1     2.612640866453   120.63028000   180.14100000
 C      9   8   7     2.616836058470   120.20638000   359.77332000
 C     10   9   8     2.616854955731   119.66024000     0.11073000
 C     11  10   9     2.612659763714   120.20856000     0.11187000
 H      2   1   3     2.041735704134   119.51834000   178.72699000
 H      3   2   1     2.041943574009   119.79335000   179.67899000
 H      4   3   2     2.041093197248   120.17046000   180.09210000
 H      5   4   3     2.041943574009   119.99816000   180.21642000
 H      6   5   4     2.041735704134   119.84111000   181.06684000
 H      8   7   1     2.041754601395   119.51700000   358.83423000
 H      9   8   7     2.041905779486   119.79426000   179.69915000
 H     10   9   8     2.041093197248   120.17010000   180.13148000
 H     11  10   9     2.041924676747   119.99775000   180.21436000
 H     12  11  10     2.041716806873   119.84090000   181.06359000


Diagonalization of the overlap matrix:
Smallest eigenvalue                        ... 4.139e-04
Time for diagonalization                   ...    0.005 sec
Threshold for overlap eigenvalues          ... 1.000e-08
Number of eigenvalues below threshold      ... 0
Time for construction of square roots      ...    0.001 sec
Total time needed                          ...    0.007 sec

-------------------
DFT GRID GENERATION
-------------------

General Integration Accuracy     IntAcc      ...  4.670
Radial Grid Type                 RadialGrid  ... Gauss-Chebyshev
Angular Grid (max. acc.)         AngularGrid ... Lebedev-302
Angular grid pruning method      GridPruning ... 3 (G Style)
Weight generation scheme         WeightScheme... Becke
Basis function cutoff            BFCut       ...    1.0000e-10
Integration weight cutoff        WCut        ...    1.0000e-14
Grids for H and He will be reduced by one unit

# of grid points (after initial pruning)     ... 108484 (   0.0 sec)
# of grid points (after weights+screening)   ...  97084 (   0.3 sec)
nearest neighbour list constructed           ...    0.0 sec
Grid point re-assignment to atoms done       ...    0.0 sec
Grid point division into batches done        ...    0.3 sec
Reduced shell lists constructed in    0.9 sec

Total number of grid points                  ...    97084
Total number of batches                      ...     1528
Average number of points per batch           ...       63
Average number of grid points per atom       ...     4413
Average number of shells per batch           ...    51.59 (56.08%)
Average number of basis functions per batch  ...   106.88 (56.85%)
Average number of large shells per batch     ...    37.05 (71.81%)
Average number of large basis fcns per batch ...    77.54 (72.55%)
Maximum spatial batch extension              ...  19.57, 21.24, 21.42 au
Average spatial batch extension              ...   2.42,  2.40,  2.56 au

Time for grid setup =    1.315 sec

--------------
SCF ITERATIONS
--------------
ITER       Energy         Delta-E        Max-DP      RMS-DP      [F,P]   Gradient Norm
               ***  Starting incremental Fock matrix formation  ***
                             ****Resetting KDIIS****
                             ****Turning on KDIIS(Cayley)****
  0   -463.0481004946   0.000000000000 0.00634088  0.00014762  0.0122087   0.011676154
  1   -463.0494023271  -0.001301832535 0.00816939  0.00024374  0.0106068   0.010343164
  2   -463.0511621476  -0.001759820442 0.01362800  0.00040160  0.0091208   0.008495510
  3   -463.0535597693  -0.002397621689 0.02196565  0.00058975  0.0057638   0.005176012
  4   -463.0550180437  -0.001458274452 0.00080425  0.00002264  0.0003165   0.000217603
  5   -463.0550216732  -0.000003629438 0.00013894  0.00000693  0.0000972   0.000054176
                          ***Energy convergence achieved***
  6   -463.0550218430  -0.000000169834 0.00005862  0.00000173  0.0000253   0.000029628
                           ***RMSP convergence achieved***

            ***Energy convergence in two consecutive cycles with***
                    ***'reasonable' density convergence***
                       *** signaling convergence ***

                    *** KDIIS BlockDiag (95.203 sec) ***

               *****************************************************
               *                     SUCCESS                       *
               *           SCF CONVERGED AFTER   7 CYCLES          *
               *****************************************************

Setting up the final grid:

General Integration Accuracy     IntAcc      ...  5.010
Radial Grid Type                 RadialGrid  ... Gauss-Chebyshev
Angular Grid (max. acc.)         AngularGrid ... Lebedev-434
Angular grid pruning method      GridPruning ... 3 (G Style)
Weight generation scheme         WeightScheme... Becke
Basis function cutoff            BFCut       ...    1.0000e-10
Integration weight cutoff        WCut        ...    1.0000e-14
Grids for H and He will be reduced by one unit

# of grid points (after initial pruning)     ... 195296 (   0.1 sec)
# of grid points (after weights+screening)   ... 174366 (   0.6 sec)
nearest neighbour list constructed           ...    0.0 sec
Grid point re-assignment to atoms done       ...    0.0 sec
Grid point division into batches done        ...    1.1 sec
Reduced shell lists constructed in    2.2 sec

Total number of grid points                  ...   174366
Total number of batches                      ...     2737
Average number of points per batch           ...       63
Average number of grid points per atom       ...     7926
Average number of shells per batch           ...    49.88 (54.22%)
Average number of basis functions per batch  ...   103.22 (54.91%)
Average number of large shells per batch     ...    35.59 (71.35%)
Average number of large basis fcns per batch ...    74.44 (72.12%)
Maximum spatial batch extension              ...  21.90, 16.90, 22.69 au
Average spatial batch extension              ...   1.97,  1.95,  2.05 au

Final grid set up in    2.8 sec
Final integration                            ... done (   2.4 sec)
Change in XC energy                          ...    -0.001218811
Integrated number of electrons               ...    82.000015703
Previous integrated no of electrons          ...    81.999962219
Total Energy       :         -463.05624069 Eh          -12600.40090 eV
  Last Energy change         ...   -3.8024e-08  Tolerance :   1.0000e-06
  Last MAX-Density change    ...    2.0126e-05  Tolerance :   1.0000e-05
             **** THE GBW FILE WAS UPDATED (biphenyl.gbw) ****
             **** DENSITY FILE WAS UPDATED (biphenyl.scfp) ****
             **** ENERGY FILE WAS UPDATED (biphenyl.en.tmp) ****
             **** THE GBW FILE WAS UPDATED (biphenyl.gbw) ****
             **** DENSITY FILE WAS UPDATED (biphenyl.scfp) ****
Total SCF time: 0 days 0 hours 1 min 40 sec 

-------------------------   --------------------
FINAL SINGLE POINT ENERGY      -463.056240691717
-------------------------   --------------------

Storing actual gbw-file in biphenyl.003.gbw ... done

                            ***************************************
                            *     ORCA property calculations      *
                            ***************************************

                                    ---------------------
                                    Active property flags
                                    ---------------------
   (+) Dipole Moment


------------------------------------------------------------------------------
                       ORCA ELECTRIC PROPERTIES CALCULATION
------------------------------------------------------------------------------

Dipole Moment Calculation                       ... on
Quadrupole Moment Calculation                   ... off
Polarizability Calculation                      ... off
GBWName                                         ... biphenyl.gbw
Electron density file                           ... biphenyl.scfp
The origin for moment calculation is the CENTER OF MASS  = (-0.564353, -0.951803  0.003070)

-------------
DIPOLE MOMENT
-------------
                                X             Y             Z
Electronic contribution:     -0.00000      -0.00014      -0.00126
Nuclear contribution   :     -0.00005       0.00005       0.00136
[...]
Final integration                            ... done (   1.6 sec)
Change in XC energy                          ...    -0.001563125
Integrated number of electrons               ...    81.999992376
Previous integrated no of electrons          ...    81.999936028
Total Energy       :         -462.83397745 Eh          -12594.35281 eV
  Last Energy change         ...   -1.2506e-09  Tolerance :   1.0000e-06
  Last MAX-Density change    ...    4.8403e-06  Tolerance :   1.0000e-05
             **** THE GBW FILE WAS UPDATED (biphenyl.gbw) ****
             **** DENSITY FILE WAS UPDATED (biphenyl.scfp) ****
             **** ENERGY FILE WAS UPDATED (biphenyl.en.tmp) ****
             **** THE GBW FILE WAS UPDATED (biphenyl.gbw) ****
             **** DENSITY FILE WAS UPDATED (biphenyl.scfp) ****
Total SCF time: 0 days 0 hours 0 min 42 sec 

-------------------------   --------------------
FINAL SINGLE POINT ENERGY      -462.833977452121
-------------------------   --------------------

Storing actual gbw-file in biphenyl.045.gbw ... done

                            ***************************************
                            *     ORCA property calculations      *
                            ***************************************

                                    ---------------------
                                    Active property flags
                                    ---------------------
   (+) Dipole Moment


------------------------------------------------------------------------------
                       ORCA ELECTRIC PROPERTIES CALCULATION
------------------------------------------------------------------------------

Dipole Moment Calculation                       ... on
Quadrupole Moment Calculation                   ... off
Polarizability Calculation                      ... off
GBWName                                         ... biphenyl.gbw
Electron density file                           ... biphenyl.scfp
The origin for moment calculation is the CENTER OF MASS  = (-2.588647, -4.365097  0.010649)

-------------
DIPOLE MOMENT
-------------
                                X             Y             Z
Electronic contribution:      0.00002      -0.00011      -0.00113
Nuclear contribution   :     -0.00005       0.00005       0.00136
                        -----------------------------------------
Total Dipole Moment    :     -0.00003      -0.00006       0.00022
                        -----------------------------------------
Magnitude (a.u.)       :      0.00023
Magnitude (Debye)      :      0.00060



--------------------
Rotational spectrum 
--------------------
 
Rotational constants in cm-1:     0.096559     0.006021     0.005752 
Rotational constants in MHz :  2894.774619   180.511622   172.450220 

 Dipole components along the rotational axes: 
x,y,z [a.u.] :    -0.000066     0.000073     0.000213 
x,y,z [Debye]:    -0.000167     0.000187     0.000540 

 

         *************************************************************
                                TRAJECTORY STEP  46
                  R  :   5.47111000
         *************************************************************
---------------------------------
CARTESIAN COORDINATES (ANGSTROEM)
---------------------------------
  C      0.000000    0.000000    0.000000
  C      1.392910    0.000000    0.000000
  C      2.097269    1.189673    0.000000
  C      1.422475    2.398897   -0.004344
  C      0.037759    2.410886   -0.006721
  C     -0.668193    1.222177   -0.002402
  C     -2.790814   -4.705772    0.010448
  C     -3.928285   -4.855229    0.800398
  C     -4.631416   -6.045620    0.804788
  C     -4.213066   -7.104799    0.016936
  C     -3.084938   -6.966674   -0.774180
  C     -2.377991   -5.778527   -0.776279
  H      1.925245   -0.939965    0.020888
  H      3.177692    1.173939    0.005254
  H      1.973367    3.327946   -0.005843
  H     -0.494353    3.351310   -0.013647
  H     -1.748340    1.238298   -0.021737
  H     -4.249763   -4.038626    1.430623
  H     -5.509203   -6.148413    1.426454
  H     -4.764039   -8.033798    0.019207
  H     -2.755620   -7.788458   -1.393685
  H     -1.508621   -5.671335   -1.408762

----------------------------
CARTESIAN COORDINATES (A.U.)
----------------------------
  NO LB      ZA    FRAG     MASS         X           Y           Z
   0 C     6.0000    0    12.011    0.000000    0.000000    0.000000
   1 C     6.0000    0    12.011    2.632218    0.000000    0.000000
   2 C     6.0000    0    12.011    3.963264    2.248157    0.000000
   3 C     6.0000    0    12.011    2.688087    4.533258   -0.008209
   4 C     6.0000    0    12.011    0.071353    4.555915   -0.012701
   5 C     6.0000    0    12.011   -1.262703    2.309580   -0.004539
   6 C     6.0000    0    12.011   -5.273874   -8.892621    0.019744
   7 C     6.0000    0    12.011   -7.423382   -9.175053    1.512533
   8 C     6.0000    0    12.011   -8.752108  -11.424566    1.520830
   9 C     6.0000    0    12.011   -7.961541  -13.426124    0.032004
  10 C     6.0000    0    12.011   -5.829688  -13.165105   -1.462989
  11 C     6.0000    0    12.011   -4.493752  -10.919833   -1.466954
  12 H     1.0000    0     1.008    3.638186   -1.776276    0.039472
  13 H     1.0000    0     1.008    6.004967    2.218423    0.009928
  14 H     1.0000    0     1.008    3.729123    6.288906   -0.011041
  15 H     1.0000    0     1.008   -0.934192    6.333059   -0.025788
  16 H     1.0000    0     1.008   -3.303884    2.340043   -0.041077
  17 H     1.0000    0     1.008   -8.030888   -7.631896    2.703485
  18 H     1.0000    0     1.008  -10.410885  -11.618817    2.695608
  19 H     1.0000    0     1.008   -9.002729  -15.181678    0.036296
  20 H     1.0000    0     1.008   -5.207367  -14.718053   -2.633683
  21 H     1.0000    0     1.008   -2.850881  -10.717271   -2.662175

--------------------------------
INTERNAL COORDINATES (ANGSTROEM)
--------------------------------
 C      0   0   0     0.000000000000     0.00000000     0.00000000
 C      1   0   0     1.392910000000     0.00000000     0.00000000
 C      2   1   0     1.382550000000   120.62811000     0.00000000
 C      3   2   1     1.384770000000   120.20849000   359.79201000
 C      4   3   2     1.384770000000   119.65945000     0.09384000
 C      5   4   3     1.382540000000   120.20864000     0.11352000
 C      1   2   3     5.471110000000   120.67050000   180.12721000
 C      7   1   2     1.392910000000   120.65895000   138.77643000
 C      8   7   1     1.382550000000   120.63028000   180.14100000
 C      9   8   7     1.384770000000   120.20638000   359.77332000
 C     10   9   8     1.384780000000   119.66024000     0.11073000
 C     11  10   9     1.382560000000   120.20856000     0.11187000
 H      2   1   3     1.080440000000   119.51834000   178.72699000
 H      3   2   1     1.080550000000   119.79335000   179.67899000
 H      4   3   2     1.080100000000   120.17046000   180.09210000
 H      5   4   3     1.080550000000   119.99816000   180.21642000
 H      6   5   4     1.080440000000   119.84111000   181.06684000
 H      8   7   1     1.080450000000   119.51700000   358.83423000
 H      9   8   7     1.080530000000   119.79426000   179.69915000
 H     10   9   8     1.080100000000   120.17010000   180.13148000
 H     11  10   9     1.080540000000   119.99775000   180.21436000
 H     12  11  10     1.080430000000   119.84090000   181.06359000

---------------------------
INTERNAL COORDINATES (A.U.)
---------------------------
 C      0   0   0     0.000000000000     0.00000000     0.00000000
 C      1   0   0     2.632218429200     0.00000000     0.00000000
 C      2   1   0     2.612640866453   120.62811000     0.00000000
 C      3   2   1     2.616836058470   120.20849000   359.79201000
 C      4   3   2     2.616836058470   119.65945000     0.09384000
 C      5   4   3     2.612621969191   120.20864000     0.11352000
 C      1   2   3    10.338899548558   120.67050000   180.12721000
 C      7   1   2     2.632218429200   120.65895000   138.77643000
 C      8   7   1     2.612640866453   120.63028000   180.14100000
 C      9   8   7     2.616836058470   120.20638000   359.77332000
 C     10   9   8     2.616854955731   119.66024000     0.11073000
 C     11  10   9     2.612659763714   120.20856000     0.11187000
 H      2   1   3     2.041735704134   119.51834000   178.72699000
 H      3   2   1     2.041943574009   119.79335000   179.67899000
 H      4   3   2     2.041093197248   120.17046000   180.09210000
 H      5   4   3     2.041943574009   119.99816000   180.21642000
 H      6   5   4     2.041735704134   119.84111000   181.06684000
 H      8   7   1     2.041754601395   119.51700000   358.83423000
 H      9   8   7     2.041905779486   119.79426000   179.69915000
 H     10   9   8     2.041093197248   120.17010000   180.13148000
 H     11  10   9     2.041924676747   119.99775000   180.21436000
 H     12  11  10     2.041716806873   119.84090000   181.06359000


Diagonalization of the overlap matrix:
Smallest eigenvalue                        ... 7.101e-04
Time for diagonalization                   ...    0.004 sec
Threshold for overlap eigenvalues          ... 1.000e-08
Number of eigenvalues below threshold      ... 0
Time for construction of square roots      ...    0.001 sec
Total time needed                          ...    0.006 sec

-------------------
DFT GRID GENERATION
-------------------

General Integration Accuracy     IntAcc      ...  4.670
Radial Grid Type                 RadialGrid  ... Gauss-Chebyshev
Angular Grid (max. acc.)         AngularGrid ... Lebedev-302
Angular grid pruning method      GridPruning ... 3 (G Style)
Weight generation scheme         WeightScheme... Becke
Basis function cutoff            BFCut       ...    1.0000e-10
Integration weight cutoff        WCut        ...    1.0000e-14
Grids for H and He will be reduced by one unit

# of grid points (after initial pruning)     ... 108484 (   0.0 sec)
# of grid points (after weights+screening)   ...  99984 (   0.3 sec)
nearest neighbour list constructed           ...    0.0 sec
Grid point re-assignment to atoms done       ...    0.0 sec
Grid point division into batches done        ...    0.3 sec
Reduced shell lists constructed in    0.8 sec

Total number of grid points                  ...    99984
Total number of batches                      ...     1573
Average number of points per batch           ...       63
Average number of grid points per atom       ...     4545
Average number of shells per batch           ...    35.20 (38.26%)
Average number of basis functions per batch  ...    73.87 (39.29%)
Average number of large shells per batch     ...    27.41 (77.87%)
Average number of large basis fcns per batch ...    57.75 (78.18%)
Maximum spatial batch extension              ...  17.57, 16.89, 23.19 au
Average spatial batch extension              ...   2.64,  2.56,  2.92 au

Time for grid setup =    1.136 sec

--------------
SCF ITERATIONS
--------------
ITER       Energy         Delta-E        Max-DP      RMS-DP      [F,P]   Gradient Norm
               ***  Starting incremental Fock matrix formation  ***
                             ****Resetting KDIIS****
                             ****Turning on KDIIS(Cayley)****
  0   -462.8310541917   0.000000000000 0.00027573  0.00001296  0.0004956   0.000131053
                          ***Energy convergence achieved***
  1   -462.8310545191  -0.000000327441 0.00060978  0.00002843  0.0004549   0.000120330
  2   -462.8310551548  -0.000000635645 0.00103248  0.00004731  0.0003706   0.000097995
  3   -462.8310559539  -0.000000799145 0.00154099  0.00007007  0.0002217   0.000058649
                           ***RMSP convergence achieved***

            ***Energy convergence in two consecutive cycles with***
                    ***'reasonable' density convergence***
                       *** signaling convergence ***

                    *** KDIIS BlockDiag (32.881 sec) ***

               *****************************************************
               *                     SUCCESS                       *
               *           SCF CONVERGED AFTER   4 CYCLES          *
               *****************************************************

Setting up the final grid:

General Integration Accuracy     IntAcc      ...  5.010
Radial Grid Type                 RadialGrid  ... Gauss-Chebyshev
Angular Grid (max. acc.)         AngularGrid ... Lebedev-434
Angular grid pruning method      GridPruning ... 3 (G Style)
Weight generation scheme         WeightScheme... Becke
Basis function cutoff            BFCut       ...    1.0000e-10
Integration weight cutoff        WCut        ...    1.0000e-14
Grids for H and He will be reduced by one unit

# of grid points (after initial pruning)     ... 195296 (   0.1 sec)
# of grid points (after weights+screening)   ... 179622 (   0.5 sec)
nearest neighbour list constructed           ...    0.0 sec
Grid point re-assignment to atoms done       ...    0.0 sec
Grid point division into batches done        ...    1.1 sec
Reduced shell lists constructed in    1.9 sec

Total number of grid points                  ...   179622
Total number of batches                      ...     2817
Average number of points per batch           ...       63
Average number of grid points per atom       ...     8165
Average number of shells per batch           ...    34.11 (37.08%)
Average number of basis functions per batch  ...    71.63 (38.10%)
Average number of large shells per batch     ...    26.41 (77.42%)
Average number of large basis fcns per batch ...    55.59 (77.61%)
Maximum spatial batch extension              ...  19.93, 19.25, 23.12 au
Average spatial batch extension              ...   2.14,  2.11,  2.29 au

Final grid set up in    2.5 sec
Final integration                            ... done (   1.6 sec)
Change in XC energy                          ...    -0.001561779
Integrated number of electrons               ...    81.999992394
Previous integrated no of electrons          ...    81.999935878
Total Energy       :         -462.83261819 Eh          -12594.31582 eV
  Last Energy change         ...   -4.5581e-07  Tolerance :   1.0000e-06
  Last MAX-Density change    ...    1.3638e-05  Tolerance :   1.0000e-05
             **** THE GBW FILE WAS UPDATED (biphenyl.gbw) ****
             **** DENSITY FILE WAS UPDATED (biphenyl.scfp) ****
             **** ENERGY FILE WAS UPDATED (biphenyl.en.tmp) ****
             **** THE GBW FILE WAS UPDATED (biphenyl.gbw) ****
             **** DENSITY FILE WAS UPDATED (biphenyl.scfp) ****
Total SCF time: 0 days 0 hours 0 min 37 sec 

-------------------------   --------------------
FINAL SINGLE POINT ENERGY      -462.832618188810
-------------------------   --------------------

Storing actual gbw-file in biphenyl.046.gbw ... done

                            ***************************************
                            *     ORCA property calculations      *
                            ***************************************

                                    ---------------------
                                    Active property flags
                                    ---------------------
   (+) Dipole Moment


------------------------------------------------------------------------------
                       ORCA ELECTRIC PROPERTIES CALCULATION
------------------------------------------------------------------------------

Dipole Moment Calculation                       ... on
Quadrupole Moment Calculation                   ... off
Polarizability Calculation                      ... off
GBWName                                         ... biphenyl.gbw
Electron density file                           ... biphenyl.scfp
The origin for moment calculation is the CENTER OF MASS  = (-2.636844, -4.446365  0.010829)

-------------
DIPOLE MOMENT
-------------
                                X             Y             Z
Electronic contribution:     -0.00010      -0.00031      -0.00113
Nuclear contribution   :     -0.00005       0.00005       0.00136
                        -----------------------------------------
Total Dipole Moment    :     -0.00015      -0.00026       0.00022
                        -----------------------------------------
Magnitude (a.u.)       :      0.00038
Magnitude (Debye)      :      0.00096



--------------------
Rotational spectrum 
--------------------
 
Rotational constants in cm-1:     0.096559     0.005887     0.005630 
Rotational constants in MHz :  2894.774619   176.484887   168.771447 

 Dipole components along the rotational axes: 
x,y,z [a.u.] :    -0.000304     0.000073     0.000212 
x,y,z [Debye]:    -0.000773     0.000187     0.000539 

 
                              **** TRAJECTORY DONE ***

                         SUMMARY OF THE CALCULATED SURFACE

------------------
TRAJECTORY RESULTS
------------------

Column   1: R

The Calculated Surface using the 'Actual Energy'
   0.97111000 -462.70651011
   1.07111000 -462.92905256
   1.17111000 -463.05624069
   1.27111000 -463.12476096
   1.37111000 -463.15718852
   1.47111000 -463.16743943
   1.57111000 -463.16416257
   1.67111000 -463.15286271
   1.77111000 -463.13700752
   1.87111000 -463.11879010
   1.97111000 -463.09963278
   2.07111000 -463.08048423
   2.17111000 -463.06188937
   2.27111000 -463.04413103
   2.37111000 -463.02740762
   2.47111000 -463.01176731
   2.57111000 -462.99719732
   2.67111000 -462.98367947
   2.77111000 -462.97115210
   2.87111000 -462.95955395
   2.97111000 -462.94882111
   3.07111000 -462.93886477
   3.17111000 -462.92962638
   3.27111000 -462.92104037
   3.37111000 -462.91305666
   3.47111000 -462.90561086
   3.57111000 -462.89866037
   3.67111000 -462.89216501
   3.77111000 -462.88609144
   3.87111000 -462.88041548
   3.97111000 -462.87512467
   4.07111000 -462.87020085
   4.17111000 -462.86563313
   4.27111000 -462.86141731
   4.37111000 -462.85755253
   4.47111000 -462.85402399
   4.57111000 -462.85081916
   4.67111000 -462.84791688
   4.77111000 -462.84529352
   4.87111000 -462.84292286
   4.97111000 -462.84078007
   5.07111000 -462.83883841
   5.17111000 -462.83707104
   5.27111000 -462.83545676
   5.37111000 -462.83397745
   5.47111000 -462.83261819

The Calculated Surface using the SCF energy
   0.97111000 -462.70651011
   1.07111000 -462.92905256
   1.17111000 -463.05624069
   1.27111000 -463.12476096
   1.37111000 -463.15718852
   1.47111000 -463.16743943
   1.57111000 -463.16416257
   1.67111000 -463.15286271
   1.77111000 -463.13700752
   1.87111000 -463.11879010
   1.97111000 -463.09963278
   2.07111000 -463.08048423
   2.17111000 -463.06188937
   2.27111000 -463.04413103
   2.37111000 -463.02740762
   2.47111000 -463.01176731
   2.57111000 -462.99719732
   2.67111000 -462.98367947
   2.77111000 -462.97115210
   2.87111000 -462.95955395
   2.97111000 -462.94882111
   3.07111000 -462.93886477
   3.17111000 -462.92962638
   3.27111000 -462.92104037
   3.37111000 -462.91305666
   3.47111000 -462.90561086
   3.57111000 -462.89866037
   3.67111000 -462.89216501
   3.77111000 -462.88609144
   3.87111000 -462.88041548
   3.97111000 -462.87512467
   4.07111000 -462.87020085
   4.17111000 -462.86563313
   4.27111000 -462.86141731
   4.37111000 -462.85755253
   4.47111000 -462.85402399
   4.57111000 -462.85081916
   4.67111000 -462.84791688
   4.77111000 -462.84529352
   4.87111000 -462.84292286
   4.97111000 -462.84078007
   5.07111000 -462.83883841
   5.17111000 -462.83707104
   5.27111000 -462.83545676
   5.37111000 -462.83397745
   5.47111000 -462.83261819


Timings for individual modules:

Sum of individual times         ...     2845.395 sec (=  47.423 min)
GTO integral calculation        ...       12.499 sec (=   0.208 min)   0.4 %
SCF iterations                  ...     2832.896 sec (=  47.215 min)  99.6 %
                             ****ORCA TERMINATED NORMALLY****
TOTAL RUN TIME: 0 days 0 hours 47 minutes 30 seconds 170 msec
