
                                 *****************
                                 * O   R   C   A *
                                 *****************

           --- An Ab Initio, DFT and Semiempirical electronic structure package ---

                  #######################################################
                  #                        -***-                        #
                  #          Department of theory and spectroscopy      #
                  #               Directorship: Frank Neese             #
                  #        Max Planck Institute fuer Kohlenforschung    #
                  #                Kaiser Wilhelm Platz 1               #
                  #                 D-45470 Muelheim/Ruhr               #
                  #                      Germany                        #
                  #                                                     #
                  #                  All rights reserved                #
                  #                        -***-                        #
                  #######################################################


                         Program Version 4.2.0 -  RELEASE  -


 With contributions from (in alphabetic order):
   Daniel Aravena         : Magnetic Suceptibility
   Michael Atanasov       : Ab Initio Ligand Field Theory (pilot matlab implementation)
   Alexander A. Auer      : GIAO ZORA, VPT2
   Ute Becker             : Parallelization
   Giovanni Bistoni       : ED, misc. LED, open-shell LED, HFLED
   Martin Brehm           : Molecular dynamics
   Dmytro Bykov           : SCF Hessian
   Vijay G. Chilkuri      : MRCI spin determinant printing, contributions to CSF-ICE
   Dipayan Datta          : RHF DLPNO-CCSD density
   Achintya Kumar Dutta   : EOM-CC, STEOM-CC
   Dmitry Ganyushin       : Spin-Orbit,Spin-Spin,Magnetic field MRCI
   Miquel Garcia          : C-PCM Hessian, Gaussian charge scheme
   Yang Guo               : DLPNO-NEVPT2, CIM, IAO-localization
   Andreas Hansen         : Spin unrestricted coupled pair/coupled cluster methods
   Benjamin Helmich-Paris : CASSCF linear response (MC-RPA)
   Lee Huntington         : MR-EOM, pCC
   Robert Izsak           : Overlap fitted RIJCOSX, COSX-SCS-MP3, EOM
   Christian Kollmar      : KDIIS, OOCD, Brueckner-CCSD(T), CCSD density
   Simone Kossmann        : Meta GGA functionals, TD-DFT gradient, OOMP2, MP2 Hessian
   Martin Krupicka        : AUTO-CI
   Lucas Lang             : DCDCAS
   Dagmar Lenk            : GEPOL surface, SMD
   Dimitrios Liakos       : Extrapolation schemes; Compound Job, initial MDCI parallelization
   Dimitrios Manganas     : Further ROCIS development; embedding schemes
   Dimitrios Pantazis     : SARC Basis sets
   Taras Petrenko         : DFT Hessian,TD-DFT gradient, ASA, ECA, R-Raman, ABS, FL, XAS/XES, NRVS
   Peter Pinski           : DLPNO-MP2, DLPNO-MP2 Gradient
   Christoph Reimann      : Effective Core Potentials
   Marius Retegan         : Local ZFS, SOC
   Christoph Riplinger    : Optimizer, TS searches, QM/MM, DLPNO-CCSD(T), (RO)-DLPNO pert. Triples
   Tobias Risthaus        : Range-separated hybrids, TD-DFT gradient, RPA, STAB
   Michael Roemelt        : Original ROCIS implementation
   Masaaki Saitow         : Open-shell DLPNO-CCSD energy and density
   Barbara Sandhoefer     : DKH picture change effects
   Avijit Sen             : IP-ROCIS
   Kantharuban Sivalingam : CASSCF convergence, NEVPT2, FIC-MRCI
   Bernardo de Souza      : ESD, SOC TD-DFT
   Georgi Stoychev        : AutoAux, RI-MP2 NMR
   Willem Van den Heuvel  : Paramagnetic NMR
   Boris Wezisla          : Elementary symmetry handling
   Frank Wennmohs         : Technical directorship


 We gratefully acknowledge several colleagues who have allowed us to
 interface, adapt or use parts of their codes:
   Stefan Grimme, W. Hujo, H. Kruse,             : VdW corrections, initial TS optimization,
                  C. Bannwarth                     DFT functionals, gCP, sTDA/sTD-DF
   Ed Valeev, F. Pavosevic, A. Kumar             : LibInt (2-el integral package), F12 methods
   Garnet Chan, S. Sharma, J. Yang, R. Olivares  : DMRG
   Ulf Ekstrom                                   : XCFun DFT Library
   Mihaly Kallay                                 : mrcc  (arbitrary order and MRCC methods)
   Andreas Klamt, Michael Diedenhofen            : otool_cosmo (COSMO solvation model)
   Jiri Pittner, Ondrej Demel                    : Mk-CCSD
   Frank Weinhold                                : gennbo (NPA and NBO analysis)
   Christopher J. Cramer and Donald G. Truhlar   : smd solvation model
   Lars Goerigk                                  : TD-DFT with DH, B97 family of functionals
   V. Asgeirsson, H. Jonsson                     : NEB implementation
   FAccTs GmbH                                   : IRC, NEB, NEB-TS, Multilevel, MM, QM/MM, CI optimization
   S Lehtola, MJT Oliveira, MAL Marques          : LibXC Library


 Your calculation uses the libint2 library for the computation of 2-el integrals
 For citations please refer to: http://libint.valeyev.net

 Your ORCA version has been built with support for libXC version: 4.2.3
 For citations please refer to: https://tddft.org/programs/libxc/

 This ORCA versions uses:
   CBLAS   interface :  Fast vector & matrix operations
   LAPACKE interface :  Fast linear algebra routines
   SCALAPACK package :  Parallel linear algebra routines


XCFun DFT library Copyright 2009-2010 Ulf Ekstrom and contributors.
See http://admol.org/xcfun for more information. This is free soft-
ware; see the source code for copying conditions. There is ABSOLUTELY
NO WARRANTY; not even for MERCHANTABILITY or FITNESS FOR A PARTICULAR
PURPOSE. For details see the documentation. Scientific users of this 
library should cite U. Ekstrom, L. Visscher, R. Bast, A. J. Thorvald-
sen and K. Ruud; J.Chem.Theor.Comp. 2010, DOI: 10.1021/ct100117s
XCFun Version 0.99 
----- Orbital basis set information -----
Your calculation utilizes the basis: 6-31G(d)
   H-He, Li-Ne : W. J. Hehre, R. Ditchfield and J.A. Pople, J. Chem. Phys. 56, 2257 (1972).
                 Note: He and Ne are unpublished basis sets taken from the Gaussian program.
                 Note: Li and B from J. D. Dill and J. A. Pople, J. Chem. Phys. 62, 2921 (1975).
   Na - Ar     : M. M. Francl, W. J. Pietro, W. J. Hehre, J. S. Binkley, M. S. Gordon, 
                 D. J. DeFrees and J. A. Pople, J. Chem. Phys. 77, 3654 (1982).
   K - Zn      : V. A. Rassolov, J. A. Pople, M. A. Ratner, and T. L. Windus, J. Chem. Phys. 109, 1223 (1998).

================================================================================
                                        WARNINGS
                       Please study these warnings very carefully!
================================================================================


INFO   : the flag for use of LIBINT has been found!

================================================================================
                                       INPUT FILE
================================================================================
NAME = C6H6-H.inp
|  1> ! wB97X 6-31G(d)  KDIIS NOSOSCF VerySlowConv Grid4
|  2> %paras
|  3> RH= 0.5805,5.0805,46
|  4> RC=1.3846
|  5> A=120.0
|  6> end
|  7> * int 0  1
|  8> C 0 0 0 0 0 0
|  9> C 1 0 0 {RC}  0    0
| 10> C 2 1 0 {RC} {A}   0.0
| 11> C 3 2 1 {RC} {A}   0.0
| 12> C 4 3 2 {RC} {A} 360.0
| 13> C 1 2 3 {RC} {A} 360.0
| 14> H 1 2 3 {RH} {A} 180.0
| 15> H 2 1 3 {RH} {A} 180.0
| 16> H 3 2 1 {RH} {A} 180.0
| 17> H 4 3 2 {RH} {A} 180.0
| 18> H 5 4 3 {RH} {A} 180.0
| 19> H 6 1 2 {RH} {A} 180.0
| 20> **                         ****END OF INPUT****
================================================================================

                       ******************************
                       * Parameter Scan Calculation *
                       ******************************

Trajectory settings:
    -> SCF surface will be mapped

There are 1 parameter(s) to be scanned
            RH: range=   0.58050000 ..   5.08050000  steps=   46
There will be   46 energy evaluations


         *************************************************************
                                TRAJECTORY STEP   1
                 RH  :   0.58050000
         *************************************************************
---------------------------------
CARTESIAN COORDINATES (ANGSTROEM)
---------------------------------
  C      0.000000    0.000000    0.000000
  C      1.384600    0.000000    0.000000
  C      2.076900    1.199099    0.000000
  C      1.384600    2.398198    0.000000
  C     -0.000000    2.398198   -0.000000
  C     -0.692300    1.199099    0.000000
  H     -0.290250   -0.502728   -0.000000
  H      1.674850   -0.502728    0.000000
  H      2.657400    1.199099    0.000000
  H      1.674850    2.900925    0.000000
  H     -0.290250    2.900925   -0.000000
  H     -1.272800    1.199099    0.000000

----------------------------
CARTESIAN COORDINATES (A.U.)
----------------------------
  NO LB      ZA    FRAG     MASS         X           Y           Z
   0 C     6.0000    0    12.011    0.000000    0.000000    0.000000
   1 C     6.0000    0    12.011    2.616515    0.000000    0.000000
   2 C     6.0000    0    12.011    3.924772    2.265968    0.000000
   3 C     6.0000    0    12.011    2.616515    4.531937    0.000000
   4 C     6.0000    0    12.011   -0.000000    4.531937   -0.000000
   5 C     6.0000    0    12.011   -1.308257    2.265968    0.000000
   6 H     1.0000    0     1.008   -0.548493   -0.950018   -0.000000
   7 H     1.0000    0     1.008    3.165008   -0.950018    0.000000
   8 H     1.0000    0     1.008    5.021758    2.265968    0.000000
   9 H     1.0000    0     1.008    3.165008    5.481954    0.000000
  10 H     1.0000    0     1.008   -0.548493    5.481954   -0.000000
  11 H     1.0000    0     1.008   -2.405243    2.265968    0.000000

--------------------------------
INTERNAL COORDINATES (ANGSTROEM)
--------------------------------
 C      0   0   0     0.000000000000     0.00000000     0.00000000
 C      1   0   0     1.384600000000     0.00000000     0.00000000
 C      2   1   0     1.384600000000   120.00000000     0.00000000
 C      3   2   1     1.384600000000   120.00000000     0.00000000
 C      4   3   2     1.384600000000   120.00000000   360.00000000
 C      1   2   3     1.384600000000   120.00000000   360.00000000
 H      1   2   3     0.580500000000   120.00000000   180.00000000
 H      2   1   3     0.580500000000   120.00000000   180.00000000
 H      3   2   1     0.580500000000   120.00000000   180.00000000
 H      4   3   2     0.580500000000   120.00000000   180.00000000
 H      5   4   3     0.580500000000   120.00000000   180.00000000
 H      6   1   2     0.580500000000   120.00000000   180.00000000

---------------------------
INTERNAL COORDINATES (A.U.)
---------------------------
 C      0   0   0     0.000000000000     0.00000000     0.00000000
 C      1   0   0     2.616514805027     0.00000000     0.00000000
 C      2   1   0     2.616514805027   120.00000000     0.00000000
 C      3   2   1     2.616514805027   120.00000000     0.00000000
 C      4   3   2     2.616514805027   120.00000000   360.00000000
 C      1   2   3     2.616514805027   120.00000000   360.00000000
 H      1   2   3     1.096986020741   120.00000000   180.00000000
 H      2   1   3     1.096986020741   120.00000000   180.00000000
 H      3   2   1     1.096986020741   120.00000000   180.00000000
 H      4   3   2     1.096986020741   120.00000000   180.00000000
 H      5   4   3     1.096986020741   120.00000000   180.00000000
 H      6   1   2     1.096986020741   120.00000000   180.00000000

---------------------
BASIS SET INFORMATION
---------------------
There are 2 groups of distinct atoms

 Group   1 Type C   : 10s4p1d contracted to 3s2p1d pattern {631/31/1}
 Group   2 Type H   : 4s contracted to 2s pattern {31}

Atom   0C    basis set group =>   1
Atom   1C    basis set group =>   1
Atom   2C    basis set group =>   1
Atom   3C    basis set group =>   1
Atom   4C    basis set group =>   1
Atom   5C    basis set group =>   1
Atom   6H    basis set group =>   2
Atom   7H    basis set group =>   2
Atom   8H    basis set group =>   2
Atom   9H    basis set group =>   2
Atom  10H    basis set group =>   2
Atom  11H    basis set group =>   2
------------------------------------------------------------------------------
                           ORCA GTO INTEGRAL CALCULATION
------------------------------------------------------------------------------

                         BASIS SET STATISTICS AND STARTUP INFO

 # of primitive gaussian shells          ...  114
 # of primitive gaussian functions       ...  186
 # of contracted shells                  ...   48
 # of contracted basis functions         ...   96
 Highest angular momentum                ...    2
 Maximum contraction depth               ...    6
 Integral package used                   ... LIBINT
 Integral threshhold            Thresh   ...  1.000e-10
 Primitive cut-off              TCut     ...  1.000e-11


------------------------------ INTEGRAL EVALUATION ----------------------------


 * One electron integrals 
 Pre-screening matrix                    ... done
 Shell pair data                         ... done (   0.000 sec)

-------------------------------------------------------------------------------
                                 ORCA SCF
-------------------------------------------------------------------------------

------------
SCF SETTINGS
------------
Hamiltonian:
 Density Functional     Method          .... DFT(GTOs)
 Exchange Functional    Exchange        .... WB97X
 Correlation Functional Correlation     .... WB97X
 Gradients option       PostSCFGGA      .... off
 Hybrid DFT is turned on
   Fraction HF Exchange ScalHFX         ....  0.157706
   Scaling of DF-GGA-X  ScalDFX         ....  0.000000
   Scaling of DF-GGA-C  ScalDFC         ....  1.000000
   Scaling of DF-LDA-C  ScalLDAC        ....  1.000000
   Perturbative correction              ....  0.000000
   Density functional embedding theory  .... OFF
 Long-range corrected/Screened/Range-Separated Hybrid DFT is turned on
   Amount of maximum screened exact exchange              ....  0.842294
   Range separation parameter mu (erf(mu*r12)/r12)        ....  0.300000


General Settings:
 Integral files         IntName         .... C6H6-H
 Hartree-Fock type      HFTyp           .... RHF
 Total Charge           Charge          ....    0
 Multiplicity           Mult            ....    1
 Number of Electrons    NEL             ....   42
 Basis Dimension        Dim             ....   96
 Nuclear Repulsion      ENuc            ....    227.1664571312 Eh

Convergence Acceleration:
 DIIS                   CNVDIIS         .... on
   Start iteration      DIISMaxIt       ....     0
   Startup error        DIISStart       ....  0.200000
   # of expansion vecs  DIISMaxEq       ....     5
   Bias factor          DIISBfac        ....   1.050
   Max. coefficient     DIISMaxC        ....  10.000
 Newton-Raphson         CNVNR           .... off
 SOSCF                  CNVSOSCF        .... off
 Level Shifting         CNVShift        .... off
 Zerner damping         CNVZerner       .... off
 Static damping         CNVDamp         .... off
 Fernandez-Rico         CNVRico         .... off

SCF Procedure:
 Maximum # iterations   MaxIter         ....   125
 SCF integral mode      SCFMode         .... Direct
   Integral package                     .... LIBINT
 Reset frequency        DirectResetFreq ....    20
 Integral Threshold     Thresh          ....  1.000e-10 Eh
 Primitive CutOff       TCut            ....  1.000e-11 Eh

Convergence Tolerance:
 Convergence Check Mode ConvCheckMode   .... All-Criteria
 Convergence forced     ConvForced      .... 0
 Energy Change          TolE            ....  1.000e-06 Eh
 Max Density Change     TolMaxP         ....  1.000e-05
 RMS Density Change     TolRMSP         ....  1.000e-06
 DIIS Error             TolErr          ....  1.000e-06


Diagonalization of the overlap matrix:
Smallest eigenvalue                        ... 3.745e-04
Time for diagonalization                   ...    0.002 sec
Threshold for overlap eigenvalues          ... 1.000e-08
Number of eigenvalues below threshold      ... 0
Time for construction of square roots      ...    0.000 sec
Total time needed                          ...    0.002 sec

-------------------
DFT GRID GENERATION
-------------------

General Integration Accuracy     IntAcc      ...  4.670
Radial Grid Type                 RadialGrid  ... Gauss-Chebyshev
Angular Grid (max. acc.)         AngularGrid ... Lebedev-302
Angular grid pruning method      GridPruning ... 3 (G Style)
Weight generation scheme         WeightScheme... Becke
Basis function cutoff            BFCut       ...    1.0000e-10
Integration weight cutoff        WCut        ...    1.0000e-14
Grids for H and He will be reduced by one unit

# of grid points (after initial pruning)     ...  57636 (   0.0 sec)
# of grid points (after weights+screening)   ...  52840 (   0.1 sec)
nearest neighbour list constructed           ...    0.0 sec
Grid point re-assignment to atoms done       ...    0.0 sec
Grid point division into batches done        ...    0.2 sec
Reduced shell lists constructed in    0.4 sec

Total number of grid points                  ...    52840
Total number of batches                      ...      832
Average number of points per batch           ...       63
Average number of grid points per atom       ...     4403
Average number of shells per batch           ...    35.79 (74.56%)
Average number of basis functions per batch  ...    73.90 (76.98%)
Average number of large shells per batch     ...    29.40 (82.16%)
Average number of large basis fcns per batch ...    59.78 (80.90%)
Maximum spatial batch extension              ...  15.22, 16.24, 23.20 au
Average spatial batch extension              ...   2.49,  2.58,  3.13 au

Time for grid setup =    0.518 sec

------------------------------
INITIAL GUESS: MODEL POTENTIAL
------------------------------
Loading Hartree-Fock densities                     ... done
Calculating cut-offs                               ... done
Setting up the integral package                    ... done
Initializing the effective Hamiltonian             ... done
Starting the Coulomb interaction                   ... done (   0.0 sec)
Reading the grid                                   ... done
Mapping shells                                     ... done
Starting the XC term evaluation                    ... done (   0.3 sec)
  promolecular density results
     # of electrons  =     41.997378169
     EX              =    -33.094723099
     EC              =     -1.413790441
     EX+EC           =    -34.508513540
Transforming the Hamiltonian                       ... done (   0.0 sec)
Diagonalizing the Hamiltonian                      ... done (   0.0 sec)
Back transforming the eigenvectors                 ... done (   0.0 sec)
Now organizing SCF variables                       ... done
                      ------------------
                      INITIAL GUESS DONE (   1.0 sec)
                      ------------------
--------------
SCF ITERATIONS
--------------
ITER       Energy         Delta-E        Max-DP      RMS-DP      [F,P]   Gradient Norm
               ***  Starting incremental Fock matrix formation  ***
                             ****Resetting KDIIS****
                             ****Turning on KDIIS(Cayley)****
  0   -228.6334023246   0.000000000000 0.08161702  0.00528057  0.1279824   0.095519143
  1   -228.6869351155  -0.053532790837 0.09621849  0.00613054  0.1137277   0.084553468
  2   -228.7538491851  -0.066914069656 0.13896135  0.00880367  0.0928546   0.068417553
  3   -228.8324543871  -0.078605201958 0.18522180  0.01175057  0.0569290   0.041666794
  4   -228.8775720816  -0.045117694550 0.00633976  0.00047696  0.0007772   0.000706665
  5   -228.8775849825  -0.000012900899 0.00292499  0.00012422  0.0002888   0.000165073
                          ***Energy convergence achieved***
  6   -228.8775857091  -0.000000726519 0.00083492  0.00006026  0.0000997   0.000079846
Warning: badly conditioned DIIS matrix, 1 vectors out of 5 destroyed

            ***Energy convergence in two consecutive cycles with***
                    ***'reasonable' density convergence***
                       *** signaling convergence ***

                    *** KDIIS BlockDiag (21.859 sec) ***

               *****************************************************
               *                     SUCCESS                       *
               *           SCF CONVERGED AFTER   7 CYCLES          *
               *****************************************************

Setting up the final grid:

General Integration Accuracy     IntAcc      ...  5.010
Radial Grid Type                 RadialGrid  ... Gauss-Chebyshev
Angular Grid (max. acc.)         AngularGrid ... Lebedev-434
Angular grid pruning method      GridPruning ... 3 (G Style)
Weight generation scheme         WeightScheme... Becke
Basis function cutoff            BFCut       ...    1.0000e-10
Integration weight cutoff        WCut        ...    1.0000e-14
Grids for H and He will be reduced by one unit

# of grid points (after initial pruning)     ... 104340 (   0.0 sec)
# of grid points (after weights+screening)   ...  95374 (   0.1 sec)
nearest neighbour list constructed           ...    0.0 sec
Grid point re-assignment to atoms done       ...    0.0 sec
Grid point division into batches done        ...    0.6 sec
Reduced shell lists constructed in    1.0 sec

Total number of grid points                  ...    95374
Total number of batches                      ...     1496
Average number of points per batch           ...       63
Average number of grid points per atom       ...     7948
Average number of shells per batch           ...    35.05 (73.02%)
Average number of basis functions per batch  ...    72.41 (75.43%)
Average number of large shells per batch     ...    28.49 (81.29%)
Average number of large basis fcns per batch ...    57.97 (80.06%)
Maximum spatial batch extension              ...  17.70, 17.92, 27.58 au
Average spatial batch extension              ...   2.09,  2.10,  2.37 au

Final grid set up in    1.2 sec
Final integration                            ... done (   1.1 sec)
Change in XC energy                          ...    -0.000296457
Integrated number of electrons               ...    42.000002251
Previous integrated no of electrons          ...    42.000234906

----------------
TOTAL SCF ENERGY
----------------

Total Energy       :         -228.87788233 Eh           -6228.08381 eV

Components:
Nuclear Repulsion  :          227.16645713 Eh            6181.51356 eV
Electronic Energy  :         -456.04433947 Eh          -12409.59737 eV
One Electron Energy:         -752.64751856 Eh          -20480.58019 eV
Two Electron Energy:          296.60317910 Eh            8070.98282 eV

Virial components:
Potential Energy   :         -468.60814469 Eh          -12751.47589 eV
Kinetic Energy     :          239.73026236 Eh            6523.39208 eV
Virial Ratio       :            1.95473087


DFT components:
N(Alpha)           :       21.000001125378 electrons
N(Beta)            :       21.000001125378 electrons
N(Total)           :       42.000002250757 electrons
E(XC)              :      -25.291001553295 Eh       
DFET-embed. en.    :        0.000000000000 Eh       

---------------
SCF CONVERGENCE
---------------

  Last Energy change         ...   -1.6749e-07  Tolerance :   1.0000e-06
  Last MAX-Density change    ...    5.9220e-05  Tolerance :   1.0000e-05
  Last RMS-Density change    ...    2.8486e-06  Tolerance :   1.0000e-06
  Last DIIS Error            ...    3.4417e-06  Tolerance :   1.0000e-06

             **** THE GBW FILE WAS UPDATED (C6H6-H.gbw) ****
             **** DENSITY FILE WAS UPDATED (C6H6-H.scfp) ****
             **** ENERGY FILE WAS UPDATED (C6H6-H.en.tmp) ****
             **** THE GBW FILE WAS UPDATED (C6H6-H.gbw) ****
             **** DENSITY FILE WAS UPDATED (C6H6-H.scfp) ****
----------------
ORBITAL ENERGIES
----------------

  NO   OCC          E(Eh)            E(eV) 
   0   2.0000     -10.248552      -278.8773 
   1   2.0000     -10.248345      -278.8717 
   2   2.0000     -10.248344      -278.8716 
   3   2.0000     -10.247844      -278.8580 
   4   2.0000     -10.247843      -278.8580 
   5   2.0000     -10.247623      -278.8520 
   6   2.0000      -1.008916       -27.4540 
   7   2.0000      -0.935454       -25.4550 
   8   2.0000      -0.935448       -25.4548 
   9   2.0000      -0.822087       -22.3701 
  10   2.0000      -0.822083       -22.3700 
  11   2.0000      -0.734857       -19.9965 
  12   2.0000      -0.732120       -19.9220 
  13   2.0000      -0.587620       -15.9900 
  14   2.0000      -0.587616       -15.9898 
  15   2.0000      -0.555394       -15.1130 
  16   2.0000      -0.485946       -13.2233 
  17   2.0000      -0.485940       -13.2231 
  18   2.0000      -0.479135       -13.0379 
  19   2.0000      -0.342844        -9.3293 
  20   2.0000      -0.342843        -9.3292 
  21   0.0000       0.083907         2.2832 
  22   0.0000       0.083912         2.2834 
  23   0.0000       0.267322         7.2742 
  24   0.0000       0.302663         8.2359 
  25   0.0000       0.309227         8.4145 
  26   0.0000       0.309234         8.4147 
  27   0.0000       0.340057         9.2534 
  28   0.0000       0.340081         9.2541 
  29   0.0000       0.388376        10.5682 
  30   0.0000       0.448018        12.1912 
  31   0.0000       0.448028        12.1915 
  32   0.0000       0.448380        12.2010 
  33   0.0000       0.448391        12.2013 
  34   0.0000       0.609821        16.5941 
  35   0.0000       0.627604        17.0780 
  36   0.0000       0.634331        17.2610 
  37   0.0000       0.692064        18.8320 
  38   0.0000       0.711026        19.3480 
  39   0.0000       0.711065        19.3491 
  40   0.0000       0.716017        19.4838 
  41   0.0000       0.735325        20.0092 
  42   0.0000       0.754536        20.5320 
  43   0.0000       0.754543        20.5322 
  44   0.0000       0.785824        21.3833 
  45   0.0000       0.785827        21.3834 
  46   0.0000       0.793117        21.5818 
  47   0.0000       0.793118        21.5818 
  48   0.0000       0.878048        23.8929 
  49   0.0000       1.033090        28.1118 
  50   0.0000       1.033142        28.1132 
  51   0.0000       1.060172        28.8487 
  52   0.0000       1.122433        30.5430 
  53   0.0000       1.130715        30.7683 
  54   0.0000       1.130736        30.7689 
  55   0.0000       1.167915        31.7806 
  56   0.0000       1.167940        31.7813 
  57   0.0000       1.248752        33.9803 
  58   0.0000       1.248755        33.9803 
  59   0.0000       1.369996        37.2795 
  60   0.0000       1.451132        39.4873 
  61   0.0000       1.537507        41.8377 
  62   0.0000       1.553746        42.2796 
  63   0.0000       1.562953        42.5301 
  64   0.0000       1.562968        42.5305 
  65   0.0000       1.574228        42.8369 
  66   0.0000       1.574234        42.8371 
  67   0.0000       1.584132        43.1064 
  68   0.0000       1.584145        43.1068 
  69   0.0000       1.867501        50.8173 
  70   0.0000       1.907528        51.9065 
  71   0.0000       2.048287        55.7367 
  72   0.0000       2.048291        55.7368 
  73   0.0000       2.233818        60.7853 
  74   0.0000       2.233834        60.7857 
  75   0.0000       2.268313        61.7239 
  76   0.0000       2.268323        61.7242 
  77   0.0000       2.351043        63.9751 
  78   0.0000       2.351083        63.9762 
  79   0.0000       2.396342        65.2078 
  80   0.0000       2.423775        65.9543 
  81   0.0000       2.423803        65.9550 
  82   0.0000       2.683232        73.0144 
  83   0.0000       2.731531        74.3287 
  84   0.0000       2.731548        74.3292 
  85   0.0000       2.779914        75.6453 
  86   0.0000       2.815651        76.6178 
  87   0.0000       2.815660        76.6180 
  88   0.0000       3.106940        84.5441 
  89   0.0000       3.144022        85.5532 
  90   0.0000       3.816256       103.8456 
  91   0.0000       3.986700       108.4836 
  92   0.0000       3.986705       108.4838 
  93   0.0000       4.528680       123.2316 
  94   0.0000       4.528682       123.2317 
  95   0.0000       5.418171       147.4359 

                    ********************************
                    * MULLIKEN POPULATION ANALYSIS *
                    ********************************

-----------------------
MULLIKEN ATOMIC CHARGES
-----------------------
   0 C :    0.404649
   1 C :    0.404650
   2 C :    0.404615
   3 C :    0.404650
   4 C :    0.404650
   5 C :    0.404615
   6 H :   -0.404604
   7 H :   -0.404604
   8 H :   -0.404706
   9 H :   -0.404604
  10 H :   -0.404605
  11 H :   -0.404706
Sum of atomic charges:   -0.0000000

--------------------------------
MULLIKEN REDUCED ORBITAL CHARGES
--------------------------------
  0 C s       :     2.824670  s :     2.824670
      pz      :     0.992907  p :     2.735240
      px      :     0.942902
      py      :     0.799430
      dz2     :     0.003340  d :     0.035441
      dxz     :     0.005145
      dyz     :     0.001932
      dx2y2   :     0.008381
      dxy     :     0.016643
  1 C s       :     2.824670  s :     2.824670
      pz      :     0.992907  p :     2.735239
      px      :     0.942902
      py      :     0.799430
      dz2     :     0.003340  d :     0.035441
      dxz     :     0.005145
      dyz     :     0.001932
      dx2y2   :     0.008381
      dxy     :     0.016643
  2 C s       :     2.824686  s :     2.824686
      pz      :     0.992951  p :     2.735256
      px      :     0.727674
      py      :     1.014631
      dz2     :     0.003340  d :     0.035443
      dxz     :     0.000327
      dyz     :     0.006752
      dx2y2   :     0.020775
      dxy     :     0.004249
  3 C s       :     2.824670  s :     2.824670
      pz      :     0.992907  p :     2.735239
      px      :     0.942902
      py      :     0.799430
      dz2     :     0.003340  d :     0.035441
      dxz     :     0.005145
      dyz     :     0.001932
      dx2y2   :     0.008381
      dxy     :     0.016643
  4 C s       :     2.824670  s :     2.824670
      pz      :     0.992907  p :     2.735239
      px      :     0.942902
      py      :     0.799430
      dz2     :     0.003340  d :     0.035441
      dxz     :     0.005145
      dyz     :     0.001932
      dx2y2   :     0.008381
      dxy     :     0.016643
  5 C s       :     2.824686  s :     2.824686
      pz      :     0.992951  p :     2.735255
      px      :     0.727673
      py      :     1.014631
      dz2     :     0.003340  d :     0.035443
      dxz     :     0.000327
      dyz     :     0.006752
      dx2y2   :     0.020775
      dxy     :     0.004249
  6 H s       :     1.404604  s :     1.404604
  7 H s       :     1.404604  s :     1.404604
  8 H s       :     1.404706  s :     1.404706
  9 H s       :     1.404604  s :     1.404604
 10 H s       :     1.404605  s :     1.404605
 11 H s       :     1.404706  s :     1.404706


                     *******************************
                     * LOEWDIN POPULATION ANALYSIS *
                     *******************************

----------------------
LOEWDIN ATOMIC CHARGES
----------------------
   0 C :   -0.083104
   1 C :   -0.083104
   2 C :   -0.083138
   3 C :   -0.083104
   4 C :   -0.083104
   5 C :   -0.083138
   6 H :    0.083118
   7 H :    0.083118
   8 H :    0.083111
   9 H :    0.083118
  10 H :    0.083118
  11 H :    0.083111

-------------------------------
LOEWDIN REDUCED ORBITAL CHARGES
-------------------------------
  0 C s       :     2.780696  s :     2.780696
      pz      :     0.983964  p :     3.215275
      px      :     1.090455
      py      :     1.140856
      dz2     :     0.006931  d :     0.087134
      dxz     :     0.011085
      dyz     :     0.004945
      dx2y2   :     0.027114
      dxy     :     0.037059
  1 C s       :     2.780696  s :     2.780696
      pz      :     0.983964  p :     3.215275
      px      :     1.090455
      py      :     1.140856
      dz2     :     0.006931  d :     0.087134
      dxz     :     0.011085
      dyz     :     0.004945
      dx2y2   :     0.027114
      dxy     :     0.037059
  2 C s       :     2.780697  s :     2.780697
      pz      :     0.983982  p :     3.215307
      px      :     1.166053
      py      :     1.065271
      dz2     :     0.006931  d :     0.087135
      dxz     :     0.001876
      dyz     :     0.014155
      dx2y2   :     0.042033
      dxy     :     0.022141
  3 C s       :     2.780696  s :     2.780696
      pz      :     0.983964  p :     3.215275
      px      :     1.090455
      py      :     1.140856
      dz2     :     0.006931  d :     0.087134
      dxz     :     0.011085
      dyz     :     0.004945
      dx2y2   :     0.027114
      dxy     :     0.037059
  4 C s       :     2.780696  s :     2.780696
      pz      :     0.983964  p :     3.215275
      px      :     1.090455
      py      :     1.140856
      dz2     :     0.006931  d :     0.087134
      dxz     :     0.011085
      dyz     :     0.004945
      dx2y2   :     0.027114
      dxy     :     0.037059
  5 C s       :     2.780697  s :     2.780697
      pz      :     0.983982  p :     3.215307
      px      :     1.166053
      py      :     1.065271
      dz2     :     0.006931  d :     0.087135
      dxz     :     0.001876
      dyz     :     0.014155
      dx2y2   :     0.042033
      dxy     :     0.022141
  6 H s       :     0.916882  s :     0.916882
  7 H s       :     0.916882  s :     0.916882
  8 H s       :     0.916889  s :     0.916889
  9 H s       :     0.916882  s :     0.916882
 10 H s       :     0.916882  s :     0.916882
 11 H s       :     0.916889  s :     0.916889


                      *****************************
                      * MAYER POPULATION ANALYSIS *
                      *****************************

  NA   - Mulliken gross atomic population
  ZA   - Total nuclear charge
  QA   - Mulliken gross atomic charge
  VA   - Mayer's total valence
  BVA  - Mayer's bonded valence
  FA   - Mayer's free valence

  ATOM       NA         ZA         QA         VA         BVA        FA
  0 C      5.5954     6.0000     0.4046     3.8790     3.8790    -0.0000
  1 C      5.5954     6.0000     0.4046     3.8790     3.8790    -0.0000
  2 C      5.5954     6.0000     0.4046     3.8789     3.8789    -0.0000
  3 C      5.5954     6.0000     0.4046     3.8790     3.8790    -0.0000
  4 C      5.5954     6.0000     0.4046     3.8790     3.8790    -0.0000
  5 C      5.5954     6.0000     0.4046     3.8789     3.8789    -0.0000
  6 H      1.4046     1.0000    -0.4046     0.6373     0.6373    -0.0000
  7 H      1.4046     1.0000    -0.4046     0.6373     0.6373    -0.0000
  8 H      1.4047     1.0000    -0.4047     0.6373     0.6373     0.0000
  9 H      1.4046     1.0000    -0.4046     0.6373     0.6373    -0.0000
 10 H      1.4046     1.0000    -0.4046     0.6373     0.6373     0.0000
 11 H      1.4047     1.0000    -0.4047     0.6373     0.6373    -0.0000

  Mayer bond orders larger than 0.100000
B(  0-C ,  1-C ) :   1.5434 B(  0-C ,  3-C ) :   0.1067 B(  0-C ,  5-C ) :   1.5434 
B(  0-C ,  6-H ) :   0.7776 B(  1-C ,  2-C ) :   1.5434 B(  1-C ,  4-C ) :   0.1067 
B(  1-C ,  7-H ) :   0.7776 B(  2-C ,  3-C ) :   1.5434 B(  2-C ,  5-C ) :   0.1067 
B(  2-C ,  8-H ) :   0.7775 B(  3-C ,  4-C ) :   1.5434 B(  3-C ,  9-H ) :   0.7776 
B(  4-C ,  5-C ) :   1.5434 B(  4-C , 10-H ) :   0.7776 B(  5-C , 11-H ) :   0.7775 


-------
TIMINGS
-------

Total SCF time: 0 days 0 hours 0 min 24 sec 

Total time                  ....      24.114 sec
Sum of individual times     ....      23.959 sec  ( 99.4%)

Fock matrix formation       ....      21.780 sec  ( 90.3%)
  XC integration            ....       5.698 sec  ( 26.2% of F)
    Basis function eval.    ....       1.767 sec  ( 31.0% of XC)
    Density eval.           ....       0.818 sec  ( 14.4% of XC)
    XC-Functional eval.     ....       1.990 sec  ( 34.9% of XC)
    XC-Potential eval.      ....       0.961 sec  ( 16.9% of XC)
Diagonalization             ....       0.007 sec  (  0.0%)
Density matrix formation    ....       0.001 sec  (  0.0%)
Population analysis         ....       0.002 sec  (  0.0%)
Initial guess               ....       0.469 sec  (  1.9%)
Orbital Transformation      ....       0.000 sec  (  0.0%)
Orbital Orthonormalization  ....       0.000 sec  (  0.0%)
DIIS solution               ....       0.000 sec  (  0.0%)
Grid generation             ....       1.700 sec  (  7.1%)

-------------------------   --------------------
FINAL SINGLE POINT ENERGY      -228.877882333797
-------------------------   --------------------

Storing actual gbw-file in C6H6-H.001.gbw ... done

                            ***************************************
                            *     ORCA property calculations      *
                            ***************************************

                                    ---------------------
                                    Active property flags
                                    ---------------------
   (+) Dipole Moment


------------------------------------------------------------------------------
                       ORCA ELECTRIC PROPERTIES CALCULATION
------------------------------------------------------------------------------

Dipole Moment Calculation                       ... on
Quadrupole Moment Calculation                   ... off
Polarizability Calculation                      ... off
GBWName                                         ... C6H6-H.gbw
Electron density file                           ... C6H6-H.scfp
The origin for moment calculation is the CENTER OF MASS  = ( 1.308257,  2.265968  0.000000)

-------------
DIPOLE MOMENT
-------------
                                X             Y             Z
Electronic contribution:      0.00000      -0.00000       0.00000
Nuclear contribution   :     -0.00000      -0.00000       0.00000
                        -----------------------------------------
Total Dipole Moment    :      0.00000      -0.00000       0.00000
                        -----------------------------------------
Magnitude (a.u.)       :      0.00000
Magnitude (Debye)      :      0.00000



--------------------
Rotational spectrum 
--------------------
 
Rotational constants in cm-1:     0.208745     0.208745     0.104373 
Rotational constants in MHz :  6258.025716  6258.025716  3129.012858 

 Dipole components along the rotational axes: 
x,y,z [a.u.] :    -0.000000     0.000000     0.000000 
x,y,z [Debye]:    -0.000000     0.000000     0.000000 

 

         *************************************************************
                                TRAJECTORY STEP   2
                 RH  :   0.68050000
         *************************************************************
---------------------------------
CARTESIAN COORDINATES (ANGSTROEM)
---------------------------------
  C      0.000000    0.000000    0.000000
  C      1.384600    0.000000    0.000000
  C      2.076900    1.199099    0.000000
  C      1.384600    2.398198    0.000000
  C     -0.000000    2.398198   -0.000000
  C     -0.692300    1.199099    0.000000
  H     -0.340250   -0.589330   -0.000000
  H      1.724850   -0.589330    0.000000
  H      2.757400    1.199099    0.000000
  H      1.724850    2.987528    0.000000
  H     -0.340250    2.987528   -0.000000
  H     -1.372800    1.199099    0.000000

----------------------------
CARTESIAN COORDINATES (A.U.)
----------------------------
  NO LB      ZA    FRAG     MASS         X           Y           Z
   0 C     6.0000    0    12.011    0.000000    0.000000    0.000000
   1 C     6.0000    0    12.011    2.616515    0.000000    0.000000
   2 C     6.0000    0    12.011    3.924772    2.265968    0.000000
   3 C     6.0000    0    12.011    2.616515    4.531937    0.000000
   4 C     6.0000    0    12.011   -0.000000    4.531937   -0.000000
   5 C     6.0000    0    12.011   -1.308257    2.265968    0.000000
   6 H     1.0000    0     1.008   -0.642979   -1.113673   -0.000000
   7 H     1.0000    0     1.008    3.259494   -1.113673    0.000000
   8 H     1.0000    0     1.008    5.210731    2.265968    0.000000
   9 H     1.0000    0     1.008    3.259494    5.645609    0.000000
  10 H     1.0000    0     1.008   -0.642979    5.645609   -0.000000
  11 H     1.0000    0     1.008   -2.594216    2.265968    0.000000

--------------------------------
INTERNAL COORDINATES (ANGSTROEM)
--------------------------------
 C      0   0   0     0.000000000000     0.00000000     0.00000000
 C      1   0   0     1.384600000000     0.00000000     0.00000000
 C      2   1   0     1.384600000000   120.00000000     0.00000000
 C      3   2   1     1.384600000000   120.00000000     0.00000000
 C      4   3   2     1.384600000000   120.00000000   360.00000000
 C      1   2   3     1.384600000000   120.00000000   360.00000000
 H      1   2   3     0.680500000000   120.00000000   180.00000000
 H      2   1   3     0.680500000000   120.00000000   180.00000000
 H      3   2   1     0.680500000000   120.00000000   180.00000000
 H      4   3   2     0.680500000000   120.00000000   180.00000000
 H      5   4   3     0.680500000000   120.00000000   180.00000000
 H      6   1   2     0.680500000000   120.00000000   180.00000000

---------------------------
INTERNAL COORDINATES (A.U.)
---------------------------
 C      0   0   0     0.000000000000     0.00000000     0.00000000
 C      1   0   0     2.616514805027     0.00000000     0.00000000
 C      2   1   0     2.616514805027   120.00000000     0.00000000
 C      3   2   1     2.616514805027   120.00000000     0.00000000
 C      4   3   2     2.616514805027   120.00000000   360.00000000
 C      1   2   3     2.616514805027   120.00000000   360.00000000
 H      1   2   3     1.285958634133   120.00000000   180.00000000
 H      2   1   3     1.285958634133   120.00000000   180.00000000
 H      3   2   1     1.285958634133   120.00000000   180.00000000
 H      4   3   2     1.285958634133   120.00000000   180.00000000
 H      5   4   3     1.285958634133   120.00000000   180.00000000
 H      6   1   2     1.285958634133   120.00000000   180.00000000


Diagonalization of the overlap matrix:
Smallest eigenvalue                        ... 4.095e-04
Time for diagonalization                   ...    0.002 sec
Threshold for overlap eigenvalues          ... 1.000e-08
Number of eigenvalues below threshold      ... 0
Time for construction of square roots      ...    0.000 sec
Total time needed                          ...    0.002 sec

-------------------
DFT GRID GENERATION
-------------------

General Integration Accuracy     IntAcc      ...  4.670
Radial Grid Type                 RadialGrid  ... Gauss-Chebyshev
Angular Grid (max. acc.)         AngularGrid ... Lebedev-302
Angular grid pruning method      GridPruning ... 3 (G Style)
Weight generation scheme         WeightScheme... Becke
Basis function cutoff            BFCut       ...    1.0000e-10
Integration weight cutoff        WCut        ...    1.0000e-14
Grids for H and He will be reduced by one unit

# of grid points (after initial pruning)     ...  57636 (   0.0 sec)
# of grid points (after weights+screening)   ...  53008 (   0.1 sec)
nearest neighbour list constructed           ...    0.0 sec
Grid point re-assignment to atoms done       ...    0.0 sec
Grid point division into batches done        ...    0.2 sec
Reduced shell lists constructed in    0.4 sec

Total number of grid points                  ...    53008
Total number of batches                      ...      836
Average number of points per batch           ...       63
Average number of grid points per atom       ...     4417
Average number of shells per batch           ...    35.42 (73.80%)
Average number of basis functions per batch  ...    73.23 (76.28%)
Average number of large shells per batch     ...    29.08 (82.10%)
Average number of large basis fcns per batch ...    59.34 (81.03%)
Maximum spatial batch extension              ...  15.30, 16.89, 23.20 au
Average spatial batch extension              ...   2.48,  2.58,  3.08 au

Time for grid setup =    0.517 sec

--------------
SCF ITERATIONS
--------------
ITER       Energy         Delta-E        Max-DP      RMS-DP      [F,P]   Gradient Norm
               ***  Starting incremental Fock matrix formation  ***
                             ****Resetting KDIIS****
                             ****Turning on KDIIS(Cayley)****
  0   -230.5402252368   0.000000000000 0.06218306  0.00293430  0.0352436   0.028459068
  1   -230.5436322184  -0.003406981625 0.14005415  0.00657016  0.0322489   0.025913924
  2   -230.5498398837  -0.006207665339 0.21185468  0.00999758  0.0259970   0.020877231
  3   -230.5571967325  -0.007356848824 0.26242057  0.01266053  0.0156126   0.012501229
  4   -230.5613042490  -0.004107516419 0.00127913  0.00007361  0.0001856   0.000112458
                          ***Energy convergence achieved***
  5   -230.5613045386  -0.000000289627 0.00055445  0.00003094  0.0000422   0.000026346

            ***Energy convergence in two consecutive cycles with***
                    ***'reasonable' density convergence***
                       *** signaling convergence ***

                    *** KDIIS BlockDiag (18.511 sec) ***

               *****************************************************
               *                     SUCCESS                       *
               *           SCF CONVERGED AFTER   6 CYCLES          *
               *****************************************************

Setting up the final grid:

General Integration Accuracy     IntAcc      ...  5.010
Radial Grid Type                 RadialGrid  ... Gauss-Chebyshev
Angular Grid (max. acc.)         AngularGrid ... Lebedev-434
Angular grid pruning method      GridPruning ... 3 (G Style)
Weight generation scheme         WeightScheme... Becke
Basis function cutoff            BFCut       ...    1.0000e-10
Integration weight cutoff        WCut        ...    1.0000e-14
Grids for H and He will be reduced by one unit

# of grid points (after initial pruning)     ... 104340 (   0.0 sec)
# of grid points (after weights+screening)   ...  95602 (   0.1 sec)
nearest neighbour list constructed           ...    0.0 sec
Grid point re-assignment to atoms done       ...    0.0 sec
Grid point division into batches done        ...    0.6 sec
Reduced shell lists constructed in    1.0 sec

Total number of grid points                  ...    95602
Total number of batches                      ...     1498
Average number of points per batch           ...       63
Average number of grid points per atom       ...     7967
Average number of shells per batch           ...    34.64 (72.16%)
Average number of basis functions per batch  ...    71.56 (74.54%)
Average number of large shells per batch     ...    28.19 (81.37%)
Average number of large basis fcns per batch ...    57.39 (80.20%)
Maximum spatial batch extension              ...  17.87, 17.20, 19.91 au
Average spatial batch extension              ...   2.10,  2.13,  2.40 au

Final grid set up in    1.2 sec
Final integration                            ... done (   1.1 sec)
Change in XC energy                          ...    -0.000329795
Integrated number of electrons               ...    41.999981296
Previous integrated no of electrons          ...    42.000015728
Total Energy       :         -230.56163435 Eh           -6273.90103 eV
  Last Energy change         ...   -1.4029e-08  Tolerance :   1.0000e-06
  Last MAX-Density change    ...    1.6773e-05  Tolerance :   1.0000e-05
             **** THE GBW FILE WAS UPDATED (C6H6-H.gbw) ****
             **** DENSITY FILE WAS UPDATED (C6H6-H.scfp) ****
             **** ENERGY FILE WAS UPDATED (C6H6-H.en.tmp) ****
             **** THE GBW FILE WAS UPDATED (C6H6-H.gbw) ****
             **** DENSITY FILE WAS UPDATED (C6H6-H.scfp) ****
Total SCF time: 0 days 0 hours 0 min 20 sec 

-------------------------   --------------------
FINAL SINGLE POINT ENERGY      -230.561634347506
-------------------------   --------------------

Storing actual gbw-file in C6H6-H.002.gbw ... done

                            ***************************************
                            *     ORCA property calculations      *
                            ***************************************

                                    ---------------------
                                    Active property flags
                                    ---------------------
   (+) Dipole Moment


------------------------------------------------------------------------------
                       ORCA ELECTRIC PROPERTIES CALCULATION
------------------------------------------------------------------------------

Dipole Moment Calculation                       ... on
Quadrupole Moment Calculation                   ... off
Polarizability Calculation                      ... off
GBWName                                         ... C6H6-H.gbw
Electron density file                           ... C6H6-H.scfp
The origin for moment calculation is the CENTER OF MASS  = ( 1.308257,  2.265968  0.000000)

-------------
DIPOLE MOMENT
-------------
                                X             Y             Z
Electronic contribution:      0.00000      -0.00000       0.00000
Nuclear contribution   :     -0.00000      -0.00000       0.00000
                        -----------------------------------------
Total Dipole Moment    :      0.00000      -0.00000       0.00000
                        -----------------------------------------
Magnitude (a.u.)       :      0.00000
Magnitude (Debye)      :      0.00000



--------------------
Rotational spectrum 
--------------------
 
Rotational constants in cm-1:     0.205642     0.205642     0.102821 
Rotational constants in MHz :  6164.987722  6164.987722  3082.493861 

 Dipole components along the rotational axes: 
x,y,z [a.u.] :    -0.000000    -0.000000     0.000000 
x,y,z [Debye]:    -0.000000    -0.000000     0.000000 

 

         *************************************************************
                                TRAJECTORY STEP   3
                 RH  :   0.78050000
         *************************************************************
---------------------------------
CARTESIAN COORDINATES (ANGSTROEM)
---------------------------------
  C      0.000000    0.000000    0.000000
  C      1.384600    0.000000    0.000000
  C      2.076900    1.199099    0.000000
  C      1.384600    2.398198    0.000000
  C     -0.000000    2.398198   -0.000000
  C     -0.692300    1.199099    0.000000
  H     -0.390250   -0.675933   -0.000000
  H      1.774850   -0.675933    0.000000
  H      2.857400    1.199099    0.000000
  H      1.774850    3.074130    0.000000
  H     -0.390250    3.074130   -0.000000
  H     -1.472800    1.199099    0.000000

----------------------------
CARTESIAN COORDINATES (A.U.)
----------------------------
  NO LB      ZA    FRAG     MASS         X           Y           Z
   0 C     6.0000    0    12.011    0.000000    0.000000    0.000000
   1 C     6.0000    0    12.011    2.616515    0.000000    0.000000
   2 C     6.0000    0    12.011    3.924772    2.265968    0.000000
   3 C     6.0000    0    12.011    2.616515    4.531937    0.000000
   4 C     6.0000    0    12.011   -0.000000    4.531937   -0.000000
   5 C     6.0000    0    12.011   -1.308257    2.265968    0.000000
   6 H     1.0000    0     1.008   -0.737466   -1.277328   -0.000000
   7 H     1.0000    0     1.008    3.353980   -1.277328    0.000000
   8 H     1.0000    0     1.008    5.399703    2.265968    0.000000
   9 H     1.0000    0     1.008    3.353980    5.809265    0.000000
  10 H     1.0000    0     1.008   -0.737466    5.809265   -0.000000
  11 H     1.0000    0     1.008   -2.783189    2.265968    0.000000

--------------------------------
INTERNAL COORDINATES (ANGSTROEM)
--------------------------------
 C      0   0   0     0.000000000000     0.00000000     0.00000000
 C      1   0   0     1.384600000000     0.00000000     0.00000000
 C      2   1   0     1.384600000000   120.00000000     0.00000000
 C      3   2   1     1.384600000000   120.00000000     0.00000000
 C      4   3   2     1.384600000000   120.00000000   360.00000000
 C      1   2   3     1.384600000000   120.00000000   360.00000000
 H      1   2   3     0.780500000000   120.00000000   180.00000000
 H      2   1   3     0.780500000000   120.00000000   180.00000000
 H      3   2   1     0.780500000000   120.00000000   180.00000000
 H      4   3   2     0.780500000000   120.00000000   180.00000000
 H      5   4   3     0.780500000000   120.00000000   180.00000000
 H      6   1   2     0.780500000000   120.00000000   180.00000000

---------------------------
INTERNAL COORDINATES (A.U.)
---------------------------
 C      0   0   0     0.000000000000     0.00000000     0.00000000
 C      1   0   0     2.616514805027     0.00000000     0.00000000
 C      2   1   0     2.616514805027   120.00000000     0.00000000
 C      3   2   1     2.616514805027   120.00000000     0.00000000
 C      4   3   2     2.616514805027   120.00000000   360.00000000
 C      1   2   3     2.616514805027   120.00000000   360.00000000
 H      1   2   3     1.474931247526   120.00000000   180.00000000
 H      2   1   3     1.474931247526   120.00000000   180.00000000
 H      3   2   1     1.474931247526   120.00000000   180.00000000
 H      4   3   2     1.474931247526   120.00000000   180.00000000
 H      5   4   3     1.474931247526   120.00000000   180.00000000
 H      6   1   2     1.474931247526   120.00000000   180.00000000


Diagonalization of the overlap matrix:
Smallest eigenvalue                        ... 4.276e-04
Time for diagonalization                   ...    0.002 sec
Threshold for overlap eigenvalues          ... 1.000e-08
Number of eigenvalues below threshold      ... 0
Time for construction of square roots      ...    0.000 sec
Total time needed                          ...    0.002 sec

-------------------
DFT GRID GENERATION
-------------------

General Integration Accuracy     IntAcc      ...  4.670
Radial Grid Type                 RadialGrid  ... Gauss-Chebyshev
Angular Grid (max. acc.)         AngularGrid ... Lebedev-302
Angular grid pruning method      GridPruning ... 3 (G Style)
Weight generation scheme         WeightScheme... Becke
Basis function cutoff            BFCut       ...    1.0000e-10
Integration weight cutoff        WCut        ...    1.0000e-14
Grids for H and He will be reduced by one unit

# of grid points (after initial pruning)     ...  57636 (   0.0 sec)
# of grid points (after weights+screening)   ...  53128 (   0.1 sec)
nearest neighbour list constructed           ...    0.0 sec
Grid point re-assignment to atoms done       ...    0.0 sec
Grid point division into batches done        ...    0.2 sec
Reduced shell lists constructed in    0.4 sec

Total number of grid points                  ...    53128
Total number of batches                      ...      836
Average number of points per batch           ...       63
Average number of grid points per atom       ...     4427
Average number of shells per batch           ...    35.15 (73.22%)
Average number of basis functions per batch  ...    72.59 (75.61%)
Average number of large shells per batch     ...    28.81 (81.97%)
Average number of large basis fcns per batch ...    58.94 (81.19%)
Maximum spatial batch extension              ...  15.22, 16.73, 23.20 au
Average spatial batch extension              ...   2.53,  2.61,  3.11 au

Time for grid setup =    0.518 sec

--------------
SCF ITERATIONS
--------------
ITER       Energy         Delta-E        Max-DP      RMS-DP      [F,P]   Gradient Norm
               ***  Starting incremental Fock matrix formation  ***
                             ****Resetting KDIIS****
                             ****Turning on KDIIS(Cayley)****
  0   -231.4447749597   0.000000000000 0.01897141  0.00113628  0.0285523   0.024937603
  1   -231.4474978006  -0.002722840860 0.03995412  0.00233838  0.0257764   0.022501902
  2   -231.4518500368  -0.004352236240 0.06265396  0.00372149  0.0208610   0.018153281
  3   -231.4570601250  -0.005210088192 0.08126598  0.00501907  0.0125078   0.010889159
  4   -231.4599785505  -0.002918425515 0.00026484  0.00001603  0.0000511   0.000053187
                          ***Energy convergence achieved***
  5   -231.4599786140  -0.000000063422 0.00019959  0.00001235  0.0000194   0.000017616
                           ***RMSP convergence achieved***

            ***Energy convergence in two consecutive cycles with***
                    ***'reasonable' density convergence***
                       *** signaling convergence ***

                    *** KDIIS BlockDiag (18.181 sec) ***

               *****************************************************
               *                     SUCCESS                       *
               *           SCF CONVERGED AFTER   6 CYCLES          *
               *****************************************************

Setting up the final grid:

General Integration Accuracy     IntAcc      ...  5.010
Radial Grid Type                 RadialGrid  ... Gauss-Chebyshev
Angular Grid (max. acc.)         AngularGrid ... Lebedev-434
Angular grid pruning method      GridPruning ... 3 (G Style)
Weight generation scheme         WeightScheme... Becke
Basis function cutoff            BFCut       ...    1.0000e-10
Integration weight cutoff        WCut        ...    1.0000e-14
Grids for H and He will be reduced by one unit

# of grid points (after initial pruning)     ... 104340 (   0.0 sec)
# of grid points (after weights+screening)   ...  95826 (   0.1 sec)
nearest neighbour list constructed           ...    0.0 sec
Grid point re-assignment to atoms done       ...    0.0 sec
Grid point division into batches done        ...    0.7 sec
Reduced shell lists constructed in    1.0 sec

Total number of grid points                  ...    95826
Total number of batches                      ...     1504
Average number of points per batch           ...       63
Average number of grid points per atom       ...     7986
Average number of shells per batch           ...    34.31 (71.49%)
Average number of basis functions per batch  ...    70.89 (73.84%)
Average number of large shells per batch     ...    27.85 (81.17%)
Average number of large basis fcns per batch ...    56.87 (80.22%)
Maximum spatial batch extension              ...  19.83, 16.52, 21.34 au
Average spatial batch extension              ...   2.09,  2.14,  2.40 au

Final grid set up in    1.2 sec
Final integration                            ... done (   1.1 sec)
Change in XC energy                          ...    -0.000307787
Integrated number of electrons               ...    41.999979578
Previous integrated no of electrons          ...    41.999865172
Total Energy       :         -231.46028642 Eh           -6298.35460 eV
  Last Energy change         ...   -2.0494e-08  Tolerance :   1.0000e-06
  Last MAX-Density change    ...    1.0272e-05  Tolerance :   1.0000e-05
             **** THE GBW FILE WAS UPDATED (C6H6-H.gbw) ****
             **** DENSITY FILE WAS UPDATED (C6H6-H.scfp) ****
             **** ENERGY FILE WAS UPDATED (C6H6-H.en.tmp) ****
             **** THE GBW FILE WAS UPDATED (C6H6-H.gbw) ****
             **** DENSITY FILE WAS UPDATED (C6H6-H.scfp) ****
Total SCF time: 0 days 0 hours 0 min 20 sec 

-------------------------   --------------------
FINAL SINGLE POINT ENERGY      -231.460286421460
-------------------------   --------------------

Storing actual gbw-file in C6H6-H.003.gbw ... done

                            ***************************************
                            *     ORCA property calculations      *
                            ***************************************

                                    ---------------------
                                    Active property flags
                                    ---------------------
   (+) Dipole Moment


------------------------------------------------------------------------------
                       ORCA ELECTRIC PROPERTIES CALCULATION
------------------------------------------------------------------------------

Dipole Moment Calculation                       ... on
Quadrupole Moment Calculation                   ... off
Polarizability Calculation                      ... off
GBWName                                         ... C6H6-H.gbw
Electron density file                           ... C6H6-H.scfp
The origin for moment calculation is the CENTER OF MASS  = ( 1.308257,  2.265968  0.000000)

-------------
DIPOLE MOMENT
-------------
                                X             Y             Z
Electronic contribution:     -0.00000       0.00000      -0.00000
Nuclear contribution   :     -0.00000      -0.00000       0.00000
                        -----------------------------------------
Total Dipole Moment    :     -0.00000       0.00000      -0.00000
                        -----------------------------------------
Magnitude (a.u.)       :      0.00000
Magnitude (Debye)      :      0.00000



--------------------
Rotational spectrum 
--------------------
 
Rotational constants in cm-1:     0.202482     0.202482     0.101241 
Rotational constants in MHz :  6070.262684  6070.262684  3035.131342 

 Dipole components along the rotational axes: 
x,y,z [a.u.] :    -0.000000     0.000000    -0.000000 
x,y,z [Debye]:    -0.000000     0.000000    -0.000000 

 

         *************************************************************
                                TRAJECTORY STEP   4
                 RH  :   0.88050000
         *************************************************************
---------------------------------
CARTESIAN COORDINATES (ANGSTROEM)
---------------------------------
  C      0.000000    0.000000    0.000000
  C      1.384600    0.000000    0.000000
  C      2.076900    1.199099    0.000000
  C      1.384600    2.398198    0.000000
  C     -0.000000    2.398198   -0.000000
  C     -0.692300    1.199099    0.000000
  H     -0.440250   -0.762535   -0.000000
  H      1.824850   -0.762535    0.000000
  H      2.957400    1.199099    0.000000
  H      1.824850    3.160733    0.000000
  H     -0.440250    3.160733   -0.000000
  H     -1.572800    1.199099    0.000000

----------------------------
CARTESIAN COORDINATES (A.U.)
----------------------------
  NO LB      ZA    FRAG     MASS         X           Y           Z
   0 C     6.0000    0    12.011    0.000000    0.000000    0.000000
   1 C     6.0000    0    12.011    2.616515    0.000000    0.000000
   2 C     6.0000    0    12.011    3.924772    2.265968    0.000000
   3 C     6.0000    0    12.011    2.616515    4.531937    0.000000
   4 C     6.0000    0    12.011   -0.000000    4.531937   -0.000000
   5 C     6.0000    0    12.011   -1.308257    2.265968    0.000000
   6 H     1.0000    0     1.008   -0.831952   -1.440983   -0.000000
   7 H     1.0000    0     1.008    3.448467   -1.440983    0.000000
   8 H     1.0000    0     1.008    5.588676    2.265968    0.000000
   9 H     1.0000    0     1.008    3.448467    5.972920    0.000000
  10 H     1.0000    0     1.008   -0.831952    5.972920   -0.000000
  11 H     1.0000    0     1.008   -2.972161    2.265968    0.000000

--------------------------------
INTERNAL COORDINATES (ANGSTROEM)
--------------------------------
 C      0   0   0     0.000000000000     0.00000000     0.00000000
 C      1   0   0     1.384600000000     0.00000000     0.00000000
 C      2   1   0     1.384600000000   120.00000000     0.00000000
 C      3   2   1     1.384600000000   120.00000000     0.00000000
 C      4   3   2     1.384600000000   120.00000000   360.00000000
 C      1   2   3     1.384600000000   120.00000000   360.00000000
 H      1   2   3     0.880500000000   120.00000000   180.00000000
 H      2   1   3     0.880500000000   120.00000000   180.00000000
 H      3   2   1     0.880500000000   120.00000000   180.00000000
 H      4   3   2     0.880500000000   120.00000000   180.00000000
 H      5   4   3     0.880500000000   120.00000000   180.00000000
 H      6   1   2     0.880500000000   120.00000000   180.00000000

---------------------------
INTERNAL COORDINATES (A.U.)
---------------------------
 C      0   0   0     0.000000000000     0.00000000     0.00000000
 C      1   0   0     2.616514805027     0.00000000     0.00000000
 C      2   1   0     2.616514805027   120.00000000     0.00000000
 C      3   2   1     2.616514805027   120.00000000     0.00000000
 C      4   3   2     2.616514805027   120.00000000   360.00000000
 C      1   2   3     2.616514805027   120.00000000   360.00000000
 H      1   2   3     1.663903860918   120.00000000   180.00000000
 H      2   1   3     1.663903860918   120.00000000   180.00000000
 H      3   2   1     1.663903860918   120.00000000   180.00000000
 H      4   3   2     1.663903860918   120.00000000   180.00000000
 H      5   4   3     1.663903860918   120.00000000   180.00000000
 H      6   1   2     1.663903860918   120.00000000   180.00000000


Diagonalization of the overlap matrix:
Smallest eigenvalue                        ... 4.447e-04
Time for diagonalization                   ...    0.002 sec
Threshold for overlap eigenvalues          ... 1.000e-08
Number of eigenvalues below threshold      ... 0
Time for construction of square roots      ...    0.000 sec
Total time needed                          ...    0.002 sec

-------------------
DFT GRID GENERATION
-------------------

General Integration Accuracy     IntAcc      ...  4.670
Radial Grid Type                 RadialGrid  ... Gauss-Chebyshev
Angular Grid (max. acc.)         AngularGrid ... Lebedev-302
Angular grid pruning method      GridPruning ... 3 (G Style)
Weight generation scheme         WeightScheme... Becke
Basis function cutoff            BFCut       ...    1.0000e-10
Integration weight cutoff        WCut        ...    1.0000e-14
Grids for H and He will be reduced by one unit

# of grid points (after initial pruning)     ...  57636 (   0.0 sec)
# of grid points (after weights+screening)   ...  53200 (   0.1 sec)
nearest neighbour list constructed           ...    0.0 sec
Grid point re-assignment to atoms done       ...    0.0 sec
Grid point division into batches done        ...    0.2 sec
Reduced shell lists constructed in    0.4 sec

Total number of grid points                  ...    53200
Total number of batches                      ...      836
Average number of points per batch           ...       63
Average number of grid points per atom       ...     4433
Average number of shells per batch           ...    34.85 (72.61%)
Average number of basis functions per batch  ...    72.01 (75.01%)
Average number of large shells per batch     ...    28.50 (81.76%)
Average number of large basis fcns per batch ...    58.50 (81.24%)
Maximum spatial batch extension              ...  15.22, 16.56, 23.25 au
Average spatial batch extension              ...   2.54,  2.64,  3.12 au

Time for grid setup =    0.517 sec

--------------
SCF ITERATIONS
--------------
ITER       Energy         Delta-E        Max-DP      RMS-DP      [F,P]   Gradient Norm
               ***  Starting incremental Fock matrix formation  ***
                             ****Resetting KDIIS****
                             ****Turning on KDIIS(Cayley)****
  0   -231.9032810086   0.000000000000 0.00679923  0.00054882  0.0298290   0.022808137
  1   -231.9056987349  -0.002417726367 0.01288566  0.00107438  0.0268529   0.020514468
  2   -231.9094161736  -0.003717438606 0.02104769  0.00173321  0.0217292   0.016537890
  3   -231.9138548823  -0.004438708750 0.03030386  0.00245910  0.0130170   0.009934966
  4   -231.9163525740  -0.002497691719 0.00012390  0.00001186  0.0000740   0.000068067
                          ***Energy convergence achieved***
  5   -231.9163526808  -0.000000106791 0.00002760  0.00000195  0.0000071   0.000005336
Warning: badly conditioned DIIS matrix, 1 vectors out of 5 destroyed
                           ***RMSP convergence achieved***
                           ***MAXP convergence achieved***
                    *** KDIIS BlockDiag (17.882 sec) ***

               *****************************************************
               *                     SUCCESS                       *
               *           SCF CONVERGED AFTER   6 CYCLES          *
               *****************************************************

Setting up the final grid:

General Integration Accuracy     IntAcc      ...  5.010
Radial Grid Type                 RadialGrid  ... Gauss-Chebyshev
Angular Grid (max. acc.)         AngularGrid ... Lebedev-434
Angular grid pruning method      GridPruning ... 3 (G Style)
Weight generation scheme         WeightScheme... Becke
Basis function cutoff            BFCut       ...    1.0000e-10
Integration weight cutoff        WCut        ...    1.0000e-14
Grids for H and He will be reduced by one unit

# of grid points (after initial pruning)     ... 104340 (   0.0 sec)
# of grid points (after weights+screening)   ...  96038 (   0.1 sec)
nearest neighbour list constructed           ...    0.0 sec
Grid point re-assignment to atoms done       ...    0.0 sec
Grid point division into batches done        ...    0.7 sec
Reduced shell lists constructed in    1.0 sec

Total number of grid points                  ...    96038
Total number of batches                      ...     1504
Average number of points per batch           ...       63
Average number of grid points per atom       ...     8003
Average number of shells per batch           ...    33.90 (70.62%)
Average number of basis functions per batch  ...    70.01 (72.92%)
Average number of large shells per batch     ...    27.49 (81.10%)
Average number of large basis fcns per batch ...    56.36 (80.50%)
Maximum spatial batch extension              ...  19.83, 20.80, 21.20 au
Average spatial batch extension              ...   2.11,  2.15,  2.42 au

Final grid set up in    1.2 sec
Final integration                            ... done (   1.1 sec)
Change in XC energy                          ...    -0.000221938
Integrated number of electrons               ...    41.999988782
Previous integrated no of electrons          ...    41.999838480
Total Energy       :         -231.91657461 Eh           -6310.77083 eV
  Last Energy change         ...    3.5478e-09  Tolerance :   1.0000e-06
  Last MAX-Density change    ...    7.8525e-06  Tolerance :   1.0000e-05
             **** THE GBW FILE WAS UPDATED (C6H6-H.gbw) ****
             **** DENSITY FILE WAS UPDATED (C6H6-H.scfp) ****
             **** ENERGY FILE WAS UPDATED (C6H6-H.en.tmp) ****
             **** THE GBW FILE WAS UPDATED (C6H6-H.gbw) ****
             **** DENSITY FILE WAS UPDATED (C6H6-H.scfp) ****
Total SCF time: 0 days 0 hours 0 min 20 sec 

-------------------------   --------------------
FINAL SINGLE POINT ENERGY      -231.916574614852
-------------------------   --------------------

Storing actual gbw-file in C6H6-H.004.gbw ... done

                            ***************************************
                            *     ORCA property calculations      *
                            ***************************************

                                    ---------------------
                                    Active property flags
                                    ---------------------
   (+) Dipole Moment


------------------------------------------------------------------------------
                       ORCA ELECTRIC PROPERTIES CALCULATION
------------------------------------------------------------------------------

Dipole Moment Calculation                       ... on
Quadrupole Moment Calculation                   ... off
Polarizability Calculation                      ... off
GBWName                                         ... C6H6-H.gbw
Electron density file                           ... C6H6-H.scfp
The origin for moment calculation is the CENTER OF MASS  = ( 1.308257,  2.265968  0.000000)

-------------
DIPOLE MOMENT
-------------
                                X             Y             Z
Electronic contribution:      0.00000       0.00000       0.00000
Nuclear contribution   :     -0.00000      -0.00000       0.00000
                        -----------------------------------------
Total Dipole Moment    :      0.00000       0.00000       0.00000
                        -----------------------------------------
Magnitude (a.u.)       :      0.00000
Magnitude (Debye)      :      0.00000



--------------------
Rotational spectrum 
--------------------
 
Rotational constants in cm-1:     0.199276     0.199276     0.099638 
Rotational constants in MHz :  5974.130305  5974.130305  2987.065152 

 Dipole components along the rotational axes: 
x,y,z [a.u.] :     0.000000    -0.000000     0.000000 
x,y,z [Debye]:     0.000000    -0.000000     0.000000 

 

         *************************************************************
                                TRAJECTORY STEP   5
                 RH  :   0.98050000
         *************************************************************
---------------------------------
CARTESIAN COORDINATES (ANGSTROEM)
---------------------------------
  C      0.000000    0.000000    0.000000
  C      1.384600    0.000000    0.000000
  C      2.076900    1.199099    0.000000
  C      1.384600    2.398198    0.000000
  C     -0.000000    2.398198   -0.000000
  C     -0.692300    1.199099    0.000000
  H     -0.490250   -0.849138   -0.000000
  H      1.874850   -0.849138    0.000000
  H      3.057400    1.199099    0.000000
  H      1.874850    3.247335    0.000000
  H     -0.490250    3.247335   -0.000000
  H     -1.672800    1.199099    0.000000

----------------------------
CARTESIAN COORDINATES (A.U.)
----------------------------
  NO LB      ZA    FRAG     MASS         X           Y           Z
   0 C     6.0000    0    12.011    0.000000    0.000000    0.000000
   1 C     6.0000    0    12.011    2.616515    0.000000    0.000000
   2 C     6.0000    0    12.011    3.924772    2.265968    0.000000
   3 C     6.0000    0    12.011    2.616515    4.531937    0.000000
   4 C     6.0000    0    12.011   -0.000000    4.531937   -0.000000
   5 C     6.0000    0    12.011   -1.308257    2.265968    0.000000
   6 H     1.0000    0     1.008   -0.926438   -1.604638   -0.000000
   7 H     1.0000    0     1.008    3.542953   -1.604638    0.000000
   8 H     1.0000    0     1.008    5.777649    2.265968    0.000000
   9 H     1.0000    0     1.008    3.542953    6.136575    0.000000
  10 H     1.0000    0     1.008   -0.926438    6.136575   -0.000000
  11 H     1.0000    0     1.008   -3.161134    2.265968    0.000000

--------------------------------
INTERNAL COORDINATES (ANGSTROEM)
--------------------------------
 C      0   0   0     0.000000000000     0.00000000     0.00000000
 C      1   0   0     1.384600000000     0.00000000     0.00000000
 C      2   1   0     1.384600000000   120.00000000     0.00000000
 C      3   2   1     1.384600000000   120.00000000     0.00000000
 C      4   3   2     1.384600000000   120.00000000   360.00000000
 C      1   2   3     1.384600000000   120.00000000   360.00000000
 H      1   2   3     0.980500000000   120.00000000   180.00000000
 H      2   1   3     0.980500000000   120.00000000   180.00000000
 H      3   2   1     0.980500000000   120.00000000   180.00000000
 H      4   3   2     0.980500000000   120.00000000   180.00000000
 H      5   4   3     0.980500000000   120.00000000   180.00000000
 H      6   1   2     0.980500000000   120.00000000   180.00000000

---------------------------
INTERNAL COORDINATES (A.U.)
---------------------------
 C      0   0   0     0.000000000000     0.00000000     0.00000000
 C      1   0   0     2.616514805027     0.00000000     0.00000000
 C      2   1   0     2.616514805027   120.00000000     0.00000000
 C      3   2   1     2.616514805027   120.00000000     0.00000000
 C      4   3   2     2.616514805027   120.00000000   360.00000000
 C      1   2   3     2.616514805027   120.00000000   360.00000000
 H      1   2   3     1.852876474310   120.00000000   180.00000000
 H      2   1   3     1.852876474310   120.00000000   180.00000000
 H      3   2   1     1.852876474310   120.00000000   180.00000000
 H      4   3   2     1.852876474310   120.00000000   180.00000000
 H      5   4   3     1.852876474310   120.00000000   180.00000000
 H      6   1   2     1.852876474310   120.00000000   180.00000000


Diagonalization of the overlap matrix:
Smallest eigenvalue                        ... 4.655e-04
Time for diagonalization                   ...    0.002 sec
Threshold for overlap eigenvalues          ... 1.000e-08
Number of eigenvalues below threshold      ... 0
Time for construction of square roots      ...    0.000 sec
Total time needed                          ...    0.002 sec

-------------------
DFT GRID GENERATION
-------------------

General Integration Accuracy     IntAcc      ...  4.670
Radial Grid Type                 RadialGrid  ... Gauss-Chebyshev
Angular Grid (max. acc.)         AngularGrid ... Lebedev-302
Angular grid pruning method      GridPruning ... 3 (G Style)
Weight generation scheme         WeightScheme... Becke
Basis function cutoff            BFCut       ...    1.0000e-10
Integration weight cutoff        WCut        ...    1.0000e-14
Grids for H and He will be reduced by one unit

# of grid points (after initial pruning)     ...  57636 (   0.0 sec)
# of grid points (after weights+screening)   ...  53280 (   0.1 sec)
nearest neighbour list constructed           ...    0.0 sec
Grid point re-assignment to atoms done       ...    0.0 sec
Grid point division into batches done        ...    0.2 sec
Reduced shell lists constructed in    0.4 sec

Total number of grid points                  ...    53280
Total number of batches                      ...      838
Average number of points per batch           ...       63
Average number of grid points per atom       ...     4440
Average number of shells per batch           ...    34.56 (71.99%)
Average number of basis functions per batch  ...    71.34 (74.32%)
Average number of large shells per batch     ...    28.10 (81.31%)
Average number of large basis fcns per batch ...    57.92 (81.18%)
Maximum spatial batch extension              ...  15.22, 16.48, 23.20 au
Average spatial batch extension              ...   2.54,  2.64,  3.14 au

Time for grid setup =    0.517 sec

--------------
SCF ITERATIONS
--------------
ITER       Energy         Delta-E        Max-DP      RMS-DP      [F,P]   Gradient Norm
               ***  Starting incremental Fock matrix formation  ***
                             ****Resetting KDIIS****
                             ****Turning on KDIIS(Cayley)****
  0   -232.1072954472   0.000000000000 0.00439446  0.00034128  0.0267808   0.020451285
  1   -232.1093860380  -0.002090590716 0.00801300  0.00063712  0.0240670   0.018390893
  2   -232.1125921925  -0.003206154540 0.01282548  0.00103046  0.0195106   0.014827787
  3   -232.1164304215  -0.003838228985 0.01841295  0.00149594  0.0116783   0.008919772
  4   -232.1186005822  -0.002170160731 0.00012882  0.00001261  0.0000553   0.000063334
                          ***Energy convergence achieved***
  5   -232.1186006979  -0.000000115687 0.00001176  0.00000100  0.0000059   0.000005478
[...]
  3   -230.5260917525  -0.000003172632 0.00191650  0.00010681  0.0002549   0.000120657
  4   -230.5260938482  -0.000002095722 0.00005746  0.00000316  0.0000142   0.000007876
                          ***Energy convergence achieved***
                           ***RMSP convergence achieved***
  5   -230.5260938591  -0.000000010832 0.00001647  0.00000080  0.0000079   0.000006692
                           ***MAXP convergence achieved***
                    *** KDIIS BlockDiag (11.216 sec) ***

               *****************************************************
               *                     SUCCESS                       *
               *           SCF CONVERGED AFTER   6 CYCLES          *
               *****************************************************

Setting up the final grid:

General Integration Accuracy     IntAcc      ...  5.010
Radial Grid Type                 RadialGrid  ... Gauss-Chebyshev
Angular Grid (max. acc.)         AngularGrid ... Lebedev-434
Angular grid pruning method      GridPruning ... 3 (G Style)
Weight generation scheme         WeightScheme... Becke
Basis function cutoff            BFCut       ...    1.0000e-10
Integration weight cutoff        WCut        ...    1.0000e-14
Grids for H and He will be reduced by one unit

# of grid points (after initial pruning)     ... 104340 (   0.0 sec)
# of grid points (after weights+screening)   ... 100358 (   0.1 sec)
nearest neighbour list constructed           ...    0.0 sec
Grid point re-assignment to atoms done       ...    0.0 sec
Grid point division into batches done        ...    0.7 sec
Reduced shell lists constructed in    1.0 sec

Total number of grid points                  ...   100358
Total number of batches                      ...     1574
Average number of points per batch           ...       63
Average number of grid points per atom       ...     8363
Average number of shells per batch           ...    20.74 (43.21%)
Average number of basis functions per batch  ...    45.83 (47.74%)
Average number of large shells per batch     ...    14.56 (70.22%)
Average number of large basis fcns per batch ...    33.57 (73.25%)
Maximum spatial batch extension              ...  16.38, 15.87, 16.37 au
Average spatial batch extension              ...   2.50,  2.53,  2.67 au

Final grid set up in    1.1 sec
Final integration                            ... done (   0.8 sec)
Change in XC energy                          ...    -0.000905022
Integrated number of electrons               ...    41.999998313
Previous integrated no of electrons          ...    41.999950707
Total Energy       :         -230.52699888 Eh           -6272.95855 eV
  Last Energy change         ...   -1.4538e-09  Tolerance :   1.0000e-06
  Last MAX-Density change    ...    8.3673e-06  Tolerance :   1.0000e-05
             **** THE GBW FILE WAS UPDATED (C6H6-H.gbw) ****
             **** DENSITY FILE WAS UPDATED (C6H6-H.scfp) ****
             **** ENERGY FILE WAS UPDATED (C6H6-H.en.tmp) ****
             **** THE GBW FILE WAS UPDATED (C6H6-H.gbw) ****
             **** DENSITY FILE WAS UPDATED (C6H6-H.scfp) ****
Total SCF time: 0 days 0 hours 0 min 13 sec 

-------------------------   --------------------
FINAL SINGLE POINT ENERGY      -230.526998882455
-------------------------   --------------------

Storing actual gbw-file in C6H6-H.045.gbw ... done

                            ***************************************
                            *     ORCA property calculations      *
                            ***************************************

                                    ---------------------
                                    Active property flags
                                    ---------------------
   (+) Dipole Moment


------------------------------------------------------------------------------
                       ORCA ELECTRIC PROPERTIES CALCULATION
------------------------------------------------------------------------------

Dipole Moment Calculation                       ... on
Quadrupole Moment Calculation                   ... off
Polarizability Calculation                      ... off
GBWName                                         ... C6H6-H.gbw
Electron density file                           ... C6H6-H.scfp
The origin for moment calculation is the CENTER OF MASS  = ( 1.308257,  2.265968  0.000000)

-------------
DIPOLE MOMENT
-------------
                                X             Y             Z
Electronic contribution:      0.00023      -0.00022      -0.00000
Nuclear contribution   :     -0.00000      -0.00000       0.00000
                        -----------------------------------------
Total Dipole Moment    :      0.00023      -0.00022      -0.00000
                        -----------------------------------------
Magnitude (a.u.)       :      0.00031
Magnitude (Debye)      :      0.00080



--------------------
Rotational spectrum 
--------------------
 
Rotational constants in cm-1:     0.087986     0.087986     0.043993 
Rotational constants in MHz :  2637.744322  2637.744322  1318.872161 

 Dipole components along the rotational axes: 
x,y,z [a.u.] :    -0.000315    -0.000008    -0.000000 
x,y,z [Debye]:    -0.000800    -0.000019    -0.000000 

 

         *************************************************************
                                TRAJECTORY STEP  46
                 RH  :   5.08050000
         *************************************************************
---------------------------------
CARTESIAN COORDINATES (ANGSTROEM)
---------------------------------
  C      0.000000    0.000000    0.000000
  C      1.384600    0.000000    0.000000
  C      2.076900    1.199099    0.000000
  C      1.384600    2.398198    0.000000
  C     -0.000000    2.398198   -0.000000
  C     -0.692300    1.199099    0.000000
  H     -2.540250   -4.399842   -0.000000
  H      3.924850   -4.399842    0.000000
  H      7.157400    1.199099    0.000000
  H      3.924850    6.798040    0.000000
  H     -2.540250    6.798040    0.000000
  H     -5.772800    1.199099   -0.000000

----------------------------
CARTESIAN COORDINATES (A.U.)
----------------------------
  NO LB      ZA    FRAG     MASS         X           Y           Z
   0 C     6.0000    0    12.011    0.000000    0.000000    0.000000
   1 C     6.0000    0    12.011    2.616515    0.000000    0.000000
   2 C     6.0000    0    12.011    3.924772    2.265968    0.000000
   3 C     6.0000    0    12.011    2.616515    4.531937    0.000000
   4 C     6.0000    0    12.011   -0.000000    4.531937   -0.000000
   5 C     6.0000    0    12.011   -1.308257    2.265968    0.000000
   6 H     1.0000    0     1.008   -4.800377   -8.314497   -0.000000
   7 H     1.0000    0     1.008    7.416892   -8.314497    0.000000
   8 H     1.0000    0     1.008   13.525526    2.265968    0.000000
   9 H     1.0000    0     1.008    7.416892   12.846433    0.000000
  10 H     1.0000    0     1.008   -4.800377   12.846433    0.000000
  11 H     1.0000    0     1.008  -10.909011    2.265968   -0.000000

--------------------------------
INTERNAL COORDINATES (ANGSTROEM)
--------------------------------
 C      0   0   0     0.000000000000     0.00000000     0.00000000
 C      1   0   0     1.384600000000     0.00000000     0.00000000
 C      2   1   0     1.384600000000   120.00000000     0.00000000
 C      3   2   1     1.384600000000   120.00000000     0.00000000
 C      4   3   2     1.384600000000   120.00000000   360.00000000
 C      1   2   3     1.384600000000   120.00000000   360.00000000
 H      1   2   3     5.080500000000   120.00000000   180.00000000
 H      2   1   3     5.080500000000   120.00000000   180.00000000
 H      3   2   1     5.080500000000   120.00000000   180.00000000
 H      4   3   2     5.080500000000   120.00000000   180.00000000
 H      5   4   3     5.080500000000   120.00000000   180.00000000
 H      6   1   2     5.080500000000   120.00000000   180.00000000

---------------------------
INTERNAL COORDINATES (A.U.)
---------------------------
 C      0   0   0     0.000000000000     0.00000000     0.00000000
 C      1   0   0     2.616514805027     0.00000000     0.00000000
 C      2   1   0     2.616514805027   120.00000000     0.00000000
 C      3   2   1     2.616514805027   120.00000000     0.00000000
 C      4   3   2     2.616514805027   120.00000000   360.00000000
 C      1   2   3     2.616514805027   120.00000000   360.00000000
 H      1   2   3     9.600753623387   120.00000000   180.00000000
 H      2   1   3     9.600753623387   120.00000000   180.00000000
 H      3   2   1     9.600753623387   120.00000000   180.00000000
 H      4   3   2     9.600753623387   120.00000000   180.00000000
 H      5   4   3     9.600753623387   120.00000000   180.00000000
 H      6   1   2     9.600753623387   120.00000000   180.00000000


Diagonalization of the overlap matrix:
Smallest eigenvalue                        ... 1.653e-03
Time for diagonalization                   ...    0.002 sec
Threshold for overlap eigenvalues          ... 1.000e-08
Number of eigenvalues below threshold      ... 0
Time for construction of square roots      ...    0.000 sec
Total time needed                          ...    0.002 sec

-------------------
DFT GRID GENERATION
-------------------

General Integration Accuracy     IntAcc      ...  4.670
Radial Grid Type                 RadialGrid  ... Gauss-Chebyshev
Angular Grid (max. acc.)         AngularGrid ... Lebedev-302
Angular grid pruning method      GridPruning ... 3 (G Style)
Weight generation scheme         WeightScheme... Becke
Basis function cutoff            BFCut       ...    1.0000e-10
Integration weight cutoff        WCut        ...    1.0000e-14
Grids for H and He will be reduced by one unit

# of grid points (after initial pruning)     ...  57636 (   0.0 sec)
# of grid points (after weights+screening)   ...  55444 (   0.1 sec)
nearest neighbour list constructed           ...    0.0 sec
Grid point re-assignment to atoms done       ...    0.0 sec
Grid point division into batches done        ...    0.2 sec
Reduced shell lists constructed in    0.4 sec

Total number of grid points                  ...    55444
Total number of batches                      ...      872
Average number of points per batch           ...       63
Average number of grid points per atom       ...     4620
Average number of shells per batch           ...    21.89 (45.61%)
Average number of basis functions per batch  ...    48.63 (50.66%)
Average number of large shells per batch     ...    15.77 (72.00%)
Average number of large basis fcns per batch ...    36.39 (74.82%)
Maximum spatial batch extension              ...  18.94, 15.91, 20.49 au
Average spatial batch extension              ...   3.05,  3.06,  3.34 au

Time for grid setup =    0.493 sec

--------------
SCF ITERATIONS
--------------
ITER       Energy         Delta-E        Max-DP      RMS-DP      [F,P]   Gradient Norm
               ***  Starting incremental Fock matrix formation  ***
                             ****Resetting KDIIS****
                             ****Turning on KDIIS(Cayley)****
  0   -230.5242340131   0.000000000000 0.00030440  0.00001824  0.0005136   0.000228682
                          ***Energy convergence achieved***
  1   -230.5242346158  -0.000000602676 0.00062044  0.00003935  0.0004699   0.000210078
  2   -230.5242360958  -0.000001479995 0.00101047  0.00006268  0.0003723   0.000169036
  3   -230.5242381555  -0.000002059648 0.00163193  0.00009269  0.0002193   0.000104052
  4   -230.5242396670  -0.000001511537 0.00004791  0.00000260  0.0000123   0.000005775
                          ***Energy convergence achieved***
                           ***RMSP convergence achieved***
  5   -230.5242396743  -0.000000007275 0.00002106  0.00000069  0.0000073   0.000007135
                           ***MAXP convergence achieved***
                    *** KDIIS BlockDiag (11.117 sec) ***

               *****************************************************
               *                     SUCCESS                       *
               *           SCF CONVERGED AFTER   6 CYCLES          *
               *****************************************************

Setting up the final grid:

General Integration Accuracy     IntAcc      ...  5.010
Radial Grid Type                 RadialGrid  ... Gauss-Chebyshev
Angular Grid (max. acc.)         AngularGrid ... Lebedev-434
Angular grid pruning method      GridPruning ... 3 (G Style)
Weight generation scheme         WeightScheme... Becke
Basis function cutoff            BFCut       ...    1.0000e-10
Integration weight cutoff        WCut        ...    1.0000e-14
Grids for H and He will be reduced by one unit

# of grid points (after initial pruning)     ... 104340 (   0.0 sec)
# of grid points (after weights+screening)   ... 100402 (   0.1 sec)
nearest neighbour list constructed           ...    0.0 sec
Grid point re-assignment to atoms done       ...    0.0 sec
Grid point division into batches done        ...    0.7 sec
Reduced shell lists constructed in    1.0 sec

Total number of grid points                  ...   100402
Total number of batches                      ...     1574
Average number of points per batch           ...       63
Average number of grid points per atom       ...     8367
Average number of shells per batch           ...    20.51 (42.73%)
Average number of basis functions per batch  ...    45.46 (47.35%)
Average number of large shells per batch     ...    14.48 (70.58%)
Average number of large basis fcns per batch ...    33.35 (73.36%)
Maximum spatial batch extension              ...  16.29, 16.03, 18.31 au
Average spatial batch extension              ...   2.52,  2.54,  2.71 au

Final grid set up in    1.2 sec
Final integration                            ... done (   0.8 sec)
Change in XC energy                          ...    -0.000898145
Integrated number of electrons               ...    41.999991385
Previous integrated no of electrons          ...    41.999939413
Total Energy       :         -230.52513782 Eh           -6272.90791 eV
  Last Energy change         ...   -1.1792e-09  Tolerance :   1.0000e-06
  Last MAX-Density change    ...    8.0056e-06  Tolerance :   1.0000e-05
             **** THE GBW FILE WAS UPDATED (C6H6-H.gbw) ****
             **** DENSITY FILE WAS UPDATED (C6H6-H.scfp) ****
             **** ENERGY FILE WAS UPDATED (C6H6-H.en.tmp) ****
             **** THE GBW FILE WAS UPDATED (C6H6-H.gbw) ****
             **** DENSITY FILE WAS UPDATED (C6H6-H.scfp) ****
Total SCF time: 0 days 0 hours 0 min 13 sec 

-------------------------   --------------------
FINAL SINGLE POINT ENERGY      -230.525137820373
-------------------------   --------------------

Storing actual gbw-file in C6H6-H.046.gbw ... done

                            ***************************************
                            *     ORCA property calculations      *
                            ***************************************

                                    ---------------------
                                    Active property flags
                                    ---------------------
   (+) Dipole Moment


------------------------------------------------------------------------------
                       ORCA ELECTRIC PROPERTIES CALCULATION
------------------------------------------------------------------------------

Dipole Moment Calculation                       ... on
Quadrupole Moment Calculation                   ... off
Polarizability Calculation                      ... off
GBWName                                         ... C6H6-H.gbw
Electron density file                           ... C6H6-H.scfp
The origin for moment calculation is the CENTER OF MASS  = ( 1.308257,  2.265968  0.000000)

-------------
DIPOLE MOMENT
-------------
                                X             Y             Z
Electronic contribution:      0.00001      -0.00001       0.00000
Nuclear contribution   :     -0.00000      -0.00000       0.00000
                        -----------------------------------------
Total Dipole Moment    :      0.00001      -0.00001       0.00000
                        -----------------------------------------
Magnitude (a.u.)       :      0.00001
Magnitude (Debye)      :      0.00004



--------------------
Rotational spectrum 
--------------------
 
Rotational constants in cm-1:     0.086239     0.086239     0.043120 
Rotational constants in MHz :  2585.389548  2585.389548  1292.694774 

 Dipole components along the rotational axes: 
x,y,z [a.u.] :    -0.000014     0.000001     0.000000 
x,y,z [Debye]:    -0.000037     0.000002     0.000000 

 
                              **** TRAJECTORY DONE ***

                         SUMMARY OF THE CALCULATED SURFACE

------------------
TRAJECTORY RESULTS
------------------

Column   1: RH

The Calculated Surface using the 'Actual Energy'
   0.58050000 -228.87788233
   0.68050000 -230.56163435
   0.78050000 -231.46028642
   0.88050000 -231.91657461
   0.98050000 -232.11902706
   1.08050000 -232.17474153
   1.18050000 -232.14618035
   1.28050000 -232.07034406
   1.38050000 -231.96933668
   1.48050000 -231.85665078
   1.58050000 -231.74044066
   1.68050000 -231.62574115
   1.78050000 -231.51539135
   1.88050000 -231.41100019
   1.98050000 -231.31346805
   2.08050000 -231.22302378
   2.18050000 -231.13982295
   2.28050000 -231.06375311
   2.38050000 -230.99455515
   2.48050000 -230.93193163
   2.58050000 -230.87555365
   2.68050000 -230.82500809
   2.78050000 -230.77995567
   2.88050000 -230.74006353
   2.98050000 -230.70510035
   3.08050000 -230.67479092
   3.18050000 -230.64889912
   3.28050000 -230.62710769
   3.38050000 -230.60911052
   3.48050000 -230.59450121
   3.58050000 -230.58275180
   3.68050000 -230.57333938
   3.78050000 -230.56576645
   3.88050000 -230.55961138
   3.98050000 -230.55453208
   4.08050000 -230.55025344
   4.18050000 -230.54657442
   4.28050000 -230.54333507
   4.38050000 -230.54042340
   4.48050000 -230.53777619
   4.58050000 -230.53535055
   4.68050000 -230.53309557
   4.78050000 -230.53096962
   4.88050000 -230.52894573
   4.98050000 -230.52699888
   5.08050000 -230.52513782

The Calculated Surface using the SCF energy
   0.58050000 -228.87788233
   0.68050000 -230.56163435
   0.78050000 -231.46028642
   0.88050000 -231.91657461
   0.98050000 -232.11902706
   1.08050000 -232.17474153
   1.18050000 -232.14618035
   1.28050000 -232.07034406
   1.38050000 -231.96933668
   1.48050000 -231.85665078
   1.58050000 -231.74044066
   1.68050000 -231.62574115
   1.78050000 -231.51539135
   1.88050000 -231.41100019
   1.98050000 -231.31346805
   2.08050000 -231.22302378
   2.18050000 -231.13982295
   2.28050000 -231.06375311
   2.38050000 -230.99455515
   2.48050000 -230.93193163
   2.58050000 -230.87555365
   2.68050000 -230.82500809
   2.78050000 -230.77995567
   2.88050000 -230.74006353
   2.98050000 -230.70510035
   3.08050000 -230.67479092
   3.18050000 -230.64889912
   3.28050000 -230.62710769
   3.38050000 -230.60911052
   3.48050000 -230.59450121
   3.58050000 -230.58275180
   3.68050000 -230.57333938
   3.78050000 -230.56576645
   3.88050000 -230.55961138
   3.98050000 -230.55453208
   4.08050000 -230.55025344
   4.18050000 -230.54657442
   4.28050000 -230.54333507
   4.38050000 -230.54042340
   4.48050000 -230.53777619
   4.58050000 -230.53535055
   4.68050000 -230.53309557
   4.78050000 -230.53096962
   4.88050000 -230.52894573
   4.98050000 -230.52699888
   5.08050000 -230.52513782


Timings for individual modules:

Sum of individual times         ...      785.837 sec (=  13.097 min)
GTO integral calculation        ...       11.529 sec (=   0.192 min)   1.5 %
SCF iterations                  ...      774.308 sec (=  12.905 min)  98.5 %
                             ****ORCA TERMINATED NORMALLY****
TOTAL RUN TIME: 0 days 0 hours 13 minutes 10 seconds 182 msec
