
                                 *****************
                                 * O   R   C   A *
                                 *****************

           --- An Ab Initio, DFT and Semiempirical electronic structure package ---

                  #######################################################
                  #                        -***-                        #
                  #          Department of theory and spectroscopy      #
                  #               Directorship: Frank Neese             #
                  #        Max Planck Institute fuer Kohlenforschung    #
                  #                Kaiser Wilhelm Platz 1               #
                  #                 D-45470 Muelheim/Ruhr               #
                  #                      Germany                        #
                  #                                                     #
                  #                  All rights reserved                #
                  #                        -***-                        #
                  #######################################################


                         Program Version 4.2.0 -  RELEASE  -


 With contributions from (in alphabetic order):
   Daniel Aravena         : Magnetic Suceptibility
   Michael Atanasov       : Ab Initio Ligand Field Theory (pilot matlab implementation)
   Alexander A. Auer      : GIAO ZORA, VPT2
   Ute Becker             : Parallelization
   Giovanni Bistoni       : ED, misc. LED, open-shell LED, HFLED
   Martin Brehm           : Molecular dynamics
   Dmytro Bykov           : SCF Hessian
   Vijay G. Chilkuri      : MRCI spin determinant printing, contributions to CSF-ICE
   Dipayan Datta          : RHF DLPNO-CCSD density
   Achintya Kumar Dutta   : EOM-CC, STEOM-CC
   Dmitry Ganyushin       : Spin-Orbit,Spin-Spin,Magnetic field MRCI
   Miquel Garcia          : C-PCM Hessian, Gaussian charge scheme
   Yang Guo               : DLPNO-NEVPT2, CIM, IAO-localization
   Andreas Hansen         : Spin unrestricted coupled pair/coupled cluster methods
   Benjamin Helmich-Paris : CASSCF linear response (MC-RPA)
   Lee Huntington         : MR-EOM, pCC
   Robert Izsak           : Overlap fitted RIJCOSX, COSX-SCS-MP3, EOM
   Christian Kollmar      : KDIIS, OOCD, Brueckner-CCSD(T), CCSD density
   Simone Kossmann        : Meta GGA functionals, TD-DFT gradient, OOMP2, MP2 Hessian
   Martin Krupicka        : AUTO-CI
   Lucas Lang             : DCDCAS
   Dagmar Lenk            : GEPOL surface, SMD
   Dimitrios Liakos       : Extrapolation schemes; Compound Job, initial MDCI parallelization
   Dimitrios Manganas     : Further ROCIS development; embedding schemes
   Dimitrios Pantazis     : SARC Basis sets
   Taras Petrenko         : DFT Hessian,TD-DFT gradient, ASA, ECA, R-Raman, ABS, FL, XAS/XES, NRVS
   Peter Pinski           : DLPNO-MP2, DLPNO-MP2 Gradient
   Christoph Reimann      : Effective Core Potentials
   Marius Retegan         : Local ZFS, SOC
   Christoph Riplinger    : Optimizer, TS searches, QM/MM, DLPNO-CCSD(T), (RO)-DLPNO pert. Triples
   Tobias Risthaus        : Range-separated hybrids, TD-DFT gradient, RPA, STAB
   Michael Roemelt        : Original ROCIS implementation
   Masaaki Saitow         : Open-shell DLPNO-CCSD energy and density
   Barbara Sandhoefer     : DKH picture change effects
   Avijit Sen             : IP-ROCIS
   Kantharuban Sivalingam : CASSCF convergence, NEVPT2, FIC-MRCI
   Bernardo de Souza      : ESD, SOC TD-DFT
   Georgi Stoychev        : AutoAux, RI-MP2 NMR
   Willem Van den Heuvel  : Paramagnetic NMR
   Boris Wezisla          : Elementary symmetry handling
   Frank Wennmohs         : Technical directorship


 We gratefully acknowledge several colleagues who have allowed us to
 interface, adapt or use parts of their codes:
   Stefan Grimme, W. Hujo, H. Kruse,             : VdW corrections, initial TS optimization,
                  C. Bannwarth                     DFT functionals, gCP, sTDA/sTD-DF
   Ed Valeev, F. Pavosevic, A. Kumar             : LibInt (2-el integral package), F12 methods
   Garnet Chan, S. Sharma, J. Yang, R. Olivares  : DMRG
   Ulf Ekstrom                                   : XCFun DFT Library
   Mihaly Kallay                                 : mrcc  (arbitrary order and MRCC methods)
   Andreas Klamt, Michael Diedenhofen            : otool_cosmo (COSMO solvation model)
   Jiri Pittner, Ondrej Demel                    : Mk-CCSD
   Frank Weinhold                                : gennbo (NPA and NBO analysis)
   Christopher J. Cramer and Donald G. Truhlar   : smd solvation model
   Lars Goerigk                                  : TD-DFT with DH, B97 family of functionals
   V. Asgeirsson, H. Jonsson                     : NEB implementation
   FAccTs GmbH                                   : IRC, NEB, NEB-TS, Multilevel, MM, QM/MM, CI optimization
   S Lehtola, MJT Oliveira, MAL Marques          : LibXC Library


 Your calculation uses the libint2 library for the computation of 2-el integrals
 For citations please refer to: http://libint.valeyev.net

 Your ORCA version has been built with support for libXC version: 4.2.3
 For citations please refer to: https://tddft.org/programs/libxc/

 This ORCA versions uses:
   CBLAS   interface :  Fast vector & matrix operations
   LAPACKE interface :  Fast linear algebra routines
   SCALAPACK package :  Parallel linear algebra routines


XCFun DFT library Copyright 2009-2010 Ulf Ekstrom and contributors.
See http://admol.org/xcfun for more information. This is free soft-
ware; see the source code for copying conditions. There is ABSOLUTELY
NO WARRANTY; not even for MERCHANTABILITY or FITNESS FOR A PARTICULAR
PURPOSE. For details see the documentation. Scientific users of this 
library should cite U. Ekstrom, L. Visscher, R. Bast, A. J. Thorvald-
sen and K. Ruud; J.Chem.Theor.Comp. 2010, DOI: 10.1021/ct100117s
XCFun Version 0.99 
----- Orbital basis set information -----
Your calculation utilizes the basis: 6-31G(d)
   H-He, Li-Ne : W. J. Hehre, R. Ditchfield and J.A. Pople, J. Chem. Phys. 56, 2257 (1972).
                 Note: He and Ne are unpublished basis sets taken from the Gaussian program.
                 Note: Li and B from J. D. Dill and J. A. Pople, J. Chem. Phys. 62, 2921 (1975).
   Na - Ar     : M. M. Francl, W. J. Pietro, W. J. Hehre, J. S. Binkley, M. S. Gordon, 
                 D. J. DeFrees and J. A. Pople, J. Chem. Phys. 77, 3654 (1982).
   K - Zn      : V. A. Rassolov, J. A. Pople, M. A. Ratner, and T. L. Windus, J. Chem. Phys. 109, 1223 (1998).

================================================================================
                                        WARNINGS
                       Please study these warnings very carefully!
================================================================================


INFO   : the flag for use of LIBINT has been found!

================================================================================
                                       INPUT FILE
================================================================================
NAME = C6H6-C.inp
|  1> ! wB97X 6-31G(d)  KDIIS NOSOSCF VerySlowConv Grid4
|  2> %paras
|  3> RH= 1.0805
|  4> RC= 0.8846,5.3846,46
|  5> A=120.0
|  6> end
|  7> * int 0  1
|  8> C 0 0 0 0 0 0
|  9> C 1 0 0 {RC}  0    0
| 10> C 2 1 0 {RC} {A}   0.0
| 11> C 3 2 1 {RC} {A}   0.0
| 12> C 4 3 2 {RC} {A} 360.0
| 13> C 1 2 3 {RC} {A} 360.0
| 14> H 1 2 3 {RH} {A} 180.0
| 15> H 2 1 3 {RH} {A} 180.0
| 16> H 3 2 1 {RH} {A} 180.0
| 17> H 4 3 2 {RH} {A} 180.0
| 18> H 5 4 3 {RH} {A} 180.0
| 19> H 6 1 2 {RH} {A} 180.0
| 20> *
| 21> 
| 22>                          ****END OF INPUT****
================================================================================

                       ******************************
                       * Parameter Scan Calculation *
                       ******************************

Trajectory settings:
    -> SCF surface will be mapped

There are 1 parameter(s) to be scanned
            RC: range=   0.88460000 ..   5.38460000  steps=   46
There will be   46 energy evaluations


         *************************************************************
                                TRAJECTORY STEP   1
                 RC  :   0.88460000
         *************************************************************
---------------------------------
CARTESIAN COORDINATES (ANGSTROEM)
---------------------------------
  C      0.000000    0.000000    0.000000
  C      0.884600    0.000000    0.000000
  C      1.326900    0.766086    0.000000
  C      0.884600    1.532172    0.000000
  C     -0.000000    1.532172   -0.000000
  C     -0.442300    0.766086    0.000000
  H     -0.540250   -0.935740   -0.000000
  H      1.424850   -0.935740    0.000000
  H      2.407400    0.766086    0.000000
  H      1.424850    2.467913    0.000000
  H     -0.540250    2.467913   -0.000000
  H     -1.522800    0.766086    0.000000

----------------------------
CARTESIAN COORDINATES (A.U.)
----------------------------
  NO LB      ZA    FRAG     MASS         X           Y           Z
   0 C     6.0000    0    12.011    0.000000    0.000000    0.000000
   1 C     6.0000    0    12.011    1.671652    0.000000    0.000000
   2 C     6.0000    0    12.011    2.507478    1.447693    0.000000
   3 C     6.0000    0    12.011    1.671652    2.895386    0.000000
   4 C     6.0000    0    12.011   -0.000000    2.895386   -0.000000
   5 C     6.0000    0    12.011   -0.835826    1.447693    0.000000
   6 H     1.0000    0     1.008   -1.020925   -1.768293   -0.000000
   7 H     1.0000    0     1.008    2.692576   -1.768293    0.000000
   8 H     1.0000    0     1.008    4.549327    1.447693    0.000000
   9 H     1.0000    0     1.008    2.692576    4.663679    0.000000
  10 H     1.0000    0     1.008   -1.020925    4.663679   -0.000000
  11 H     1.0000    0     1.008   -2.877675    1.447693    0.000000

--------------------------------
INTERNAL COORDINATES (ANGSTROEM)
--------------------------------
 C      0   0   0     0.000000000000     0.00000000     0.00000000
 C      1   0   0     0.884600000000     0.00000000     0.00000000
 C      2   1   0     0.884600000000   120.00000000     0.00000000
 C      3   2   1     0.884600000000   120.00000000     0.00000000
 C      4   3   2     0.884600000000   120.00000000   360.00000000
 C      1   2   3     0.884600000000   120.00000000   360.00000000
 H      1   2   3     1.080500000000   120.00000000   180.00000000
 H      2   1   3     1.080500000000   120.00000000   180.00000000
 H      3   2   1     1.080500000000   120.00000000   180.00000000
 H      4   3   2     1.080500000000   120.00000000   180.00000000
 H      5   4   3     1.080500000000   120.00000000   180.00000000
 H      6   1   2     1.080500000000   120.00000000   180.00000000

---------------------------
INTERNAL COORDINATES (A.U.)
---------------------------
 C      0   0   0     0.000000000000     0.00000000     0.00000000
 C      1   0   0     1.671651738067     0.00000000     0.00000000
 C      2   1   0     1.671651738067   120.00000000     0.00000000
 C      3   2   1     1.671651738067   120.00000000     0.00000000
 C      4   3   2     1.671651738067   120.00000000   360.00000000
 C      1   2   3     1.671651738067   120.00000000   360.00000000
 H      1   2   3     2.041849087702   120.00000000   180.00000000
 H      2   1   3     2.041849087702   120.00000000   180.00000000
 H      3   2   1     2.041849087702   120.00000000   180.00000000
 H      4   3   2     2.041849087702   120.00000000   180.00000000
 H      5   4   3     2.041849087702   120.00000000   180.00000000
 H      6   1   2     2.041849087702   120.00000000   180.00000000

---------------------
BASIS SET INFORMATION
---------------------
There are 2 groups of distinct atoms

 Group   1 Type C   : 10s4p1d contracted to 3s2p1d pattern {631/31/1}
 Group   2 Type H   : 4s contracted to 2s pattern {31}

Atom   0C    basis set group =>   1
Atom   1C    basis set group =>   1
Atom   2C    basis set group =>   1
Atom   3C    basis set group =>   1
Atom   4C    basis set group =>   1
Atom   5C    basis set group =>   1
Atom   6H    basis set group =>   2
Atom   7H    basis set group =>   2
Atom   8H    basis set group =>   2
Atom   9H    basis set group =>   2
Atom  10H    basis set group =>   2
Atom  11H    basis set group =>   2
------------------------------------------------------------------------------
                           ORCA GTO INTEGRAL CALCULATION
------------------------------------------------------------------------------

                         BASIS SET STATISTICS AND STARTUP INFO

 # of primitive gaussian shells          ...  114
 # of primitive gaussian functions       ...  186
 # of contracted shells                  ...   48
 # of contracted basis functions         ...   96
 Highest angular momentum                ...    2
 Maximum contraction depth               ...    6
 Integral package used                   ... LIBINT
 Integral threshhold            Thresh   ...  1.000e-10
 Primitive cut-off              TCut     ...  1.000e-11


------------------------------ INTEGRAL EVALUATION ----------------------------


 * One electron integrals 
 Pre-screening matrix                    ... done
 Shell pair data                         ... done (   0.001 sec)

-------------------------------------------------------------------------------
                                 ORCA SCF
-------------------------------------------------------------------------------

------------
SCF SETTINGS
------------
Hamiltonian:
 Density Functional     Method          .... DFT(GTOs)
 Exchange Functional    Exchange        .... WB97X
 Correlation Functional Correlation     .... WB97X
 Gradients option       PostSCFGGA      .... off
 Hybrid DFT is turned on
   Fraction HF Exchange ScalHFX         ....  0.157706
   Scaling of DF-GGA-X  ScalDFX         ....  0.000000
   Scaling of DF-GGA-C  ScalDFC         ....  1.000000
   Scaling of DF-LDA-C  ScalLDAC        ....  1.000000
   Perturbative correction              ....  0.000000
   Density functional embedding theory  .... OFF
 Long-range corrected/Screened/Range-Separated Hybrid DFT is turned on
   Amount of maximum screened exact exchange              ....  0.842294
   Range separation parameter mu (erf(mu*r12)/r12)        ....  0.300000


General Settings:
 Integral files         IntName         .... C6H6-C
 Hartree-Fock type      HFTyp           .... RHF
 Total Charge           Charge          ....    0
 Multiplicity           Mult            ....    1
 Number of Electrons    NEL             ....   42
 Basis Dimension        Dim             ....   96
 Nuclear Repulsion      ENuc            ....    300.8194682669 Eh

Convergence Acceleration:
 DIIS                   CNVDIIS         .... on
   Start iteration      DIISMaxIt       ....     0
   Startup error        DIISStart       ....  0.200000
   # of expansion vecs  DIISMaxEq       ....     5
   Bias factor          DIISBfac        ....   1.050
   Max. coefficient     DIISMaxC        ....  10.000
 Newton-Raphson         CNVNR           .... off
 SOSCF                  CNVSOSCF        .... off
 Level Shifting         CNVShift        .... off
 Zerner damping         CNVZerner       .... off
 Static damping         CNVDamp         .... off
 Fernandez-Rico         CNVRico         .... off

SCF Procedure:
 Maximum # iterations   MaxIter         ....   125
 SCF integral mode      SCFMode         .... Direct
   Integral package                     .... LIBINT
 Reset frequency        DirectResetFreq ....    20
 Integral Threshold     Thresh          ....  1.000e-10 Eh
 Primitive CutOff       TCut            ....  1.000e-11 Eh

Convergence Tolerance:
 Convergence Check Mode ConvCheckMode   .... All-Criteria
 Convergence forced     ConvForced      .... 0
 Energy Change          TolE            ....  1.000e-06 Eh
 Max Density Change     TolMaxP         ....  1.000e-05
 RMS Density Change     TolRMSP         ....  1.000e-06
 DIIS Error             TolErr          ....  1.000e-06


Diagonalization of the overlap matrix:
Smallest eigenvalue                        ... 6.802e-06
Time for diagonalization                   ...    0.016 sec
Threshold for overlap eigenvalues          ... 1.000e-08
Number of eigenvalues below threshold      ... 0
Time for construction of square roots      ...    0.000 sec
Total time needed                          ...    0.017 sec

-------------------
DFT GRID GENERATION
-------------------

General Integration Accuracy     IntAcc      ...  4.670
Radial Grid Type                 RadialGrid  ... Gauss-Chebyshev
Angular Grid (max. acc.)         AngularGrid ... Lebedev-302
Angular grid pruning method      GridPruning ... 3 (G Style)
Weight generation scheme         WeightScheme... Becke
Basis function cutoff            BFCut       ...    1.0000e-10
Integration weight cutoff        WCut        ...    1.0000e-14
Grids for H and He will be reduced by one unit

# of grid points (after initial pruning)     ...  57636 (   0.0 sec)
# of grid points (after weights+screening)   ...  51896 (   0.1 sec)
nearest neighbour list constructed           ...    0.0 sec
Grid point re-assignment to atoms done       ...    0.0 sec
Grid point division into batches done        ...    0.2 sec
Reduced shell lists constructed in    0.4 sec

Total number of grid points                  ...    51896
Total number of batches                      ...      818
Average number of points per batch           ...       63
Average number of grid points per atom       ...     4325
Average number of shells per batch           ...    37.80 (78.75%)
Average number of basis functions per batch  ...    78.37 (81.64%)
Average number of large shells per batch     ...    32.83 (86.85%)
Average number of large basis fcns per batch ...    68.42 (87.30%)
Maximum spatial batch extension              ...  17.71, 19.65, 23.20 au
Average spatial batch extension              ...   2.42,  2.53,  2.95 au

Time for grid setup =    0.506 sec

------------------------------
INITIAL GUESS: MODEL POTENTIAL
------------------------------
Loading Hartree-Fock densities                     ... done
Calculating cut-offs                               ... done
Setting up the integral package                    ... done
Initializing the effective Hamiltonian             ... done
Starting the Coulomb interaction                   ... done (   0.0 sec)
Reading the grid                                   ... done
Mapping shells                                     ... done
Starting the XC term evaluation                    ... done (   0.4 sec)
  promolecular density results
     # of electrons  =     41.997321427
     EX              =    -34.127371649
     EC              =     -1.520975292
     EX+EC           =    -35.648346941
Transforming the Hamiltonian                       ... done (   0.0 sec)
Diagonalizing the Hamiltonian                      ... done (   0.0 sec)
Back transforming the eigenvectors                 ... done (   0.0 sec)
Now organizing SCF variables                       ... done
                      ------------------
                      INITIAL GUESS DONE (   1.0 sec)
                      ------------------
--------------
SCF ITERATIONS
--------------
ITER       Energy         Delta-E        Max-DP      RMS-DP      [F,P]   Gradient Norm
               ***  Starting incremental Fock matrix formation  ***
                             ****Resetting KDIIS****
                             ****Turning on KDIIS(Cayley)****
  0   -226.1618393294   0.000000000000 0.33263134  0.01741258  0.3643577   0.310507941
  1   -226.6507606601  -0.488921330696 0.57178798  0.03626529  0.3238708   0.260060393
  2   -227.3223813059  -0.671620645814 3.62292545  0.15586453  0.2440883   0.181728102
  3   -227.8754677479  -0.553086441991 0.82433932  0.03171629  0.0850093   0.060322659
  4   -227.9303531400  -0.054885392114 0.92246862  0.04073531  0.0352868   0.023870701
  5   -227.9410191548  -0.010666014731 1.91232697  0.09478157  0.0237607   0.012599940
  6   -227.9410575805  -0.000038425700 0.91911306  0.03682200  0.0186568   0.011252710
  7   -227.9467576036  -0.005700023144 0.30220050  0.01422391  0.0019542   0.001561957
  8   -227.9468648998  -0.000107296207 0.10797845  0.00493895  0.0004177   0.000300424
  9   -227.9468694601  -0.000004560273 0.02051908  0.00099341  0.0001237   0.000073263
                          ***Energy convergence achieved***
 10   -227.9468696412  -0.000000181094 0.00103950  0.00003817  0.0000537   0.000037593
 11   -227.9468696685  -0.000000027348 0.00175380  0.00006474  0.0000090   0.000008448
 12   -227.9468696671   0.000000001468 0.00058489  0.00002200  0.0000028   0.000002308
 13   -227.9468696672  -0.000000000120 0.00108632  0.00003124  0.0000031   0.000001471
 14   -227.9468696672  -0.000000000013 0.00073896  0.00002077  0.0000011   0.000000647
 15   -227.9468696686  -0.000000001417 0.00035862  0.00000933  0.0000003   0.000000259

            ***Energy convergence in two consecutive cycles with***
                    ***'reasonable' density convergence***
                       *** signaling convergence ***

                    *** KDIIS BlockDiag (54.163 sec) ***

               *****************************************************
               *                     SUCCESS                       *
               *           SCF CONVERGED AFTER  16 CYCLES          *
               *****************************************************

Setting up the final grid:

General Integration Accuracy     IntAcc      ...  5.010
Radial Grid Type                 RadialGrid  ... Gauss-Chebyshev
Angular Grid (max. acc.)         AngularGrid ... Lebedev-434
Angular grid pruning method      GridPruning ... 3 (G Style)
Weight generation scheme         WeightScheme... Becke
Basis function cutoff            BFCut       ...    1.0000e-10
Integration weight cutoff        WCut        ...    1.0000e-14
Grids for H and He will be reduced by one unit

# of grid points (after initial pruning)     ... 104340 (   0.0 sec)
# of grid points (after weights+screening)   ...  93822 (   0.1 sec)
nearest neighbour list constructed           ...    0.0 sec
Grid point re-assignment to atoms done       ...    0.0 sec
Grid point division into batches done        ...    0.6 sec
Reduced shell lists constructed in    1.0 sec

Total number of grid points                  ...    93822
Total number of batches                      ...     1468
Average number of points per batch           ...       63
Average number of grid points per atom       ...     7818
Average number of shells per batch           ...    36.85 (76.77%)
Average number of basis functions per batch  ...    76.43 (79.62%)
Average number of large shells per batch     ...    31.75 (86.17%)
Average number of large basis fcns per batch ...    66.19 (86.60%)
Maximum spatial batch extension              ...  17.37, 15.35, 24.11 au
Average spatial batch extension              ...   2.03,  2.07,  2.35 au

Final grid set up in    1.2 sec
Final integration                            ... done (   1.1 sec)
Change in XC energy                          ...    -0.000435404
Integrated number of electrons               ...    41.999931983
Previous integrated no of electrons          ...    41.999974129

----------------
TOTAL SCF ENERGY
----------------

Total Energy       :         -227.94730507 Eh           -6202.76151 eV

Components:
Nuclear Repulsion  :          300.81946827 Eh            8185.71389 eV
Electronic Energy  :         -528.76677334 Eh          -14388.47540 eV
One Electron Energy:         -897.27610261 Eh          -24416.12404 eV
Two Electron Energy:          368.50932926 Eh           10027.64865 eV

Virial components:
Potential Energy   :         -478.66934830 Eh          -13025.25516 eV
Kinetic Energy     :          250.72204322 Eh            6822.49364 eV
Virial Ratio       :            1.90916340


DFT components:
N(Alpha)           :       20.999965991458 electrons
N(Beta)            :       20.999965991458 electrons
N(Total)           :       41.999931982915 electrons
E(XC)              :      -26.426179543263 Eh       
DFET-embed. en.    :        0.000000000000 Eh       

---------------
SCF CONVERGENCE
---------------

  Last Energy change         ...   -1.8484e-09  Tolerance :   1.0000e-06
  Last MAX-Density change    ...    8.7222e-05  Tolerance :   1.0000e-05
  Last RMS-Density change    ...    2.4907e-06  Tolerance :   1.0000e-06
  Last DIIS Error            ...    1.7856e-07  Tolerance :   1.0000e-06

             **** THE GBW FILE WAS UPDATED (C6H6-C.gbw) ****
             **** DENSITY FILE WAS UPDATED (C6H6-C.scfp) ****
             **** ENERGY FILE WAS UPDATED (C6H6-C.en.tmp) ****
             **** THE GBW FILE WAS UPDATED (C6H6-C.gbw) ****
             **** DENSITY FILE WAS UPDATED (C6H6-C.scfp) ****
----------------
ORBITAL ENERGIES
----------------

  NO   OCC          E(Eh)            E(eV) 
   0   2.0000     -10.222436      -278.1666 
   1   2.0000     -10.204214      -277.6708 
   2   2.0000     -10.204200      -277.6704 
   3   2.0000     -10.166702      -276.6500 
   4   2.0000     -10.166689      -276.6497 
   5   2.0000     -10.147808      -276.1359 
   6   2.0000      -1.390914       -37.8487 
   7   2.0000      -0.936604       -25.4863 
   8   2.0000      -0.936601       -25.4862 
   9   2.0000      -0.829211       -22.5640 
  10   2.0000      -0.818621       -22.2758 
  11   2.0000      -0.776118       -21.1192 
  12   2.0000      -0.776116       -21.1192 
  13   2.0000      -0.713468       -19.4144 
  14   2.0000      -0.538054       -14.6412 
  15   2.0000      -0.538051       -14.6411 
  16   2.0000      -0.471869       -12.8402 
  17   2.0000      -0.471864       -12.8401 
  18   2.0000      -0.403425       -10.9778 
  19   2.0000      -0.342654        -9.3241 
  20   2.0000      -0.342640        -9.3237 
  21   0.0000       0.118293         3.2189 
  22   0.0000       0.213080         5.7982 
  23   0.0000       0.213091         5.7985 
  24   0.0000       0.261387         7.1127 
  25   0.0000       0.261394         7.1129 
  26   0.0000       0.358630         9.7588 
  27   0.0000       0.358649         9.7593 
  28   0.0000       0.377330        10.2677 
  29   0.0000       0.455285        12.3889 
  30   0.0000       0.483433        13.1549 
  31   0.0000       0.513417        13.9708 
  32   0.0000       0.525653        14.3037 
  33   0.0000       0.525668        14.3042 
  34   0.0000       0.558301        15.1921 
  35   0.0000       0.558320        15.1927 
  36   0.0000       0.585405        15.9297 
  37   0.0000       0.661728        18.0065 
  38   0.0000       0.661766        18.0076 
  39   0.0000       0.785110        21.3639 
  40   0.0000       0.785125        21.3643 
  41   0.0000       0.801109        21.7993 
  42   0.0000       0.828434        22.5428 
  43   0.0000       0.828450        22.5433 
  44   0.0000       0.835800        22.7433 
  45   0.0000       0.835855        22.7448 
  46   0.0000       0.880382        23.9564 
  47   0.0000       0.920870        25.0582 
  48   0.0000       0.920879        25.0584 
  49   0.0000       0.986774        26.8515 
  50   0.0000       1.067123        29.0379 
  51   0.0000       1.152846        31.3705 
  52   0.0000       1.152871        31.3712 
  53   0.0000       1.184180        32.2232 
  54   0.0000       1.225118        33.3372 
  55   0.0000       1.389319        37.8053 
  56   0.0000       1.430911        38.9371 
  57   0.0000       1.430971        38.9387 
  58   0.0000       1.648156        44.8486 
  59   0.0000       1.648170        44.8490 
  60   0.0000       1.660248        45.1777 
  61   0.0000       1.824446        49.6457 
  62   0.0000       1.824457        49.6460 
  63   0.0000       1.870466        50.8980 
  64   0.0000       1.870741        50.9054 
  65   0.0000       1.870765        50.9061 
  66   0.0000       1.915182        52.1148 
  67   0.0000       1.930088        52.5204 
  68   0.0000       1.930103        52.5208 
  69   0.0000       2.196739        59.7763 
  70   0.0000       2.283608        62.1401 
  71   0.0000       2.298154        62.5360 
  72   0.0000       2.298184        62.5368 
  73   0.0000       2.474154        67.3252 
  74   0.0000       2.480609        67.5008 
  75   0.0000       2.480616        67.5010 
  76   0.0000       2.634835        71.6975 
  77   0.0000       2.865820        77.9829 
  78   0.0000       2.865824        77.9830 
  79   0.0000       2.973133        80.9030 
  80   0.0000       2.973183        80.9044 
  81   0.0000       3.345333        91.0311 
  82   0.0000       3.381823        92.0241 
  83   0.0000       3.381830        92.0243 
  84   0.0000       3.501356        95.2767 
  85   0.0000       3.501401        95.2780 
  86   0.0000       3.965869       107.9168 
  87   0.0000       3.965895       107.9175 
  88   0.0000       4.127210       112.3071 
  89   0.0000       4.134130       112.4954 
  90   0.0000       4.724769       128.5675 
  91   0.0000       4.869588       132.5082 
  92   0.0000       4.869613       132.5089 
  93   0.0000       7.243269       197.0994 
  94   0.0000       7.243286       197.0998 
  95   0.0000      19.354224       526.6552 

                    ********************************
                    * MULLIKEN POPULATION ANALYSIS *
                    ********************************

-----------------------
MULLIKEN ATOMIC CHARGES
-----------------------
   0 C :   -0.027577
   1 C :   -0.027804
   2 C :   -0.026833
   3 C :   -0.027710
   4 C :   -0.027558
   5 C :   -0.026993
   6 H :    0.027432
   7 H :    0.027439
   8 H :    0.027378
   9 H :    0.027422
  10 H :    0.027430
  11 H :    0.027374
Sum of atomic charges:    0.0000000

--------------------------------
MULLIKEN REDUCED ORBITAL CHARGES
--------------------------------
  0 C s       :     2.760118  s :     2.760118
      pz      :     0.963723  p :     3.177660
      px      :     1.163121
      py      :     1.050816
      dz2     :     0.002034  d :     0.089799
      dxz     :     0.020725
      dyz     :     0.015555
      dx2y2   :     0.019289
      dxy     :     0.032196
  1 C s       :     2.760267  s :     2.760267
      pz      :     0.963723  p :     3.177738
      px      :     1.163151
      py      :     1.050864
      dz2     :     0.002034  d :     0.089799
      dxz     :     0.020725
      dyz     :     0.015555
      dx2y2   :     0.019290
      dxy     :     0.032196
  2 C s       :     2.759872  s :     2.759872
      pz      :     0.963712  p :     3.177171
      px      :     0.994802
      py      :     1.218657
      dz2     :     0.002033  d :     0.089790
      dxz     :     0.012970
      dyz     :     0.023312
      dx2y2   :     0.038630
      dxy     :     0.012844
  3 C s       :     2.760224  s :     2.760224
      pz      :     0.963723  p :     3.177689
      px      :     1.163148
      py      :     1.050818
      dz2     :     0.002034  d :     0.089798
      dxz     :     0.020725
      dyz     :     0.015555
      dx2y2   :     0.019289
      dxy     :     0.032195
  4 C s       :     2.760062  s :     2.760062
      pz      :     0.963723  p :     3.177698
      px      :     1.163146
      py      :     1.050829
      dz2     :     0.002034  d :     0.089798
      dxz     :     0.020725
      dyz     :     0.015555
      dx2y2   :     0.019289
      dxy     :     0.032195
  5 C s       :     2.760002  s :     2.760002
      pz      :     0.963712  p :     3.177202
      px      :     0.994834
      py      :     1.218655
      dz2     :     0.002033  d :     0.089789
      dxz     :     0.012970
      dyz     :     0.023312
      dx2y2   :     0.038630
      dxy     :     0.012844
  6 H s       :     0.972568  s :     0.972568
  7 H s       :     0.972561  s :     0.972561
  8 H s       :     0.972622  s :     0.972622
  9 H s       :     0.972578  s :     0.972578
 10 H s       :     0.972570  s :     0.972570
 11 H s       :     0.972626  s :     0.972626


                     *******************************
                     * LOEWDIN POPULATION ANALYSIS *
                     *******************************

----------------------
LOEWDIN ATOMIC CHARGES
----------------------
   0 C :   -0.117217
   1 C :   -0.117218
   2 C :   -0.117208
   3 C :   -0.117217
   4 C :   -0.117217
   5 C :   -0.117208
   6 H :    0.117219
   7 H :    0.117219
   8 H :    0.117203
   9 H :    0.117219
  10 H :    0.117219
  11 H :    0.117203

-------------------------------
LOEWDIN REDUCED ORBITAL CHARGES
-------------------------------
  0 C s       :     2.599549  s :     2.599549
      pz      :     0.879855  p :     3.080194
      px      :     1.181690
      py      :     1.018650
      dz2     :     0.029745  d :     0.437474
      dxz     :     0.080193
      dyz     :     0.039951
      dx2y2   :     0.129876
      dxy     :     0.157708
  1 C s       :     2.599549  s :     2.599549
      pz      :     0.879855  p :     3.080194
      px      :     1.181690
      py      :     1.018650
      dz2     :     0.029745  d :     0.437474
      dxz     :     0.080193
      dyz     :     0.039951
      dx2y2   :     0.129876
      dxy     :     0.157708
  2 C s       :     2.599545  s :     2.599545
      pz      :     0.879857  p :     3.080189
      px      :     0.937139
      py      :     1.263194
      dz2     :     0.029746  d :     0.437473
      dxz     :     0.019829
      dyz     :     0.100316
      dx2y2   :     0.171617
      dxy     :     0.115966
  3 C s       :     2.599549  s :     2.599549
      pz      :     0.879855  p :     3.080194
      px      :     1.181690
      py      :     1.018650
      dz2     :     0.029745  d :     0.437474
      dxz     :     0.080193
      dyz     :     0.039951
      dx2y2   :     0.129876
      dxy     :     0.157708
  4 C s       :     2.599549  s :     2.599549
      pz      :     0.879855  p :     3.080194
      px      :     1.181690
      py      :     1.018650
      dz2     :     0.029745  d :     0.437474
      dxz     :     0.080193
      dyz     :     0.039951
      dx2y2   :     0.129876
      dxy     :     0.157708
  5 C s       :     2.599546  s :     2.599546
      pz      :     0.879857  p :     3.080189
      px      :     0.937139
      py      :     1.263194
      dz2     :     0.029746  d :     0.437473
      dxz     :     0.019829
      dyz     :     0.100316
      dx2y2   :     0.171617
      dxy     :     0.115966
  6 H s       :     0.882781  s :     0.882781
  7 H s       :     0.882781  s :     0.882781
  8 H s       :     0.882797  s :     0.882797
  9 H s       :     0.882781  s :     0.882781
 10 H s       :     0.882781  s :     0.882781
 11 H s       :     0.882797  s :     0.882797


                      *****************************
                      * MAYER POPULATION ANALYSIS *
                      *****************************

  NA   - Mulliken gross atomic population
  ZA   - Total nuclear charge
  QA   - Mulliken gross atomic charge
  VA   - Mayer's total valence
  BVA  - Mayer's bonded valence
  FA   - Mayer's free valence

  ATOM       NA         ZA         QA         VA         BVA        FA
  0 C      6.0276     6.0000    -0.0276     4.4126     4.4126    -0.0000
  1 C      6.0278     6.0000    -0.0278     4.4127     4.4127     0.0000
  2 C      6.0268     6.0000    -0.0268     4.4116     4.4116    -0.0000
  3 C      6.0277     6.0000    -0.0277     4.4130     4.4130     0.0000
  4 C      6.0276     6.0000    -0.0276     4.4127     4.4127    -0.0000
  5 C      6.0270     6.0000    -0.0270     4.4118     4.4118     0.0000
  6 H      0.9726     1.0000     0.0274     0.8899     0.8899    -0.0000
  7 H      0.9726     1.0000     0.0274     0.8899     0.8899     0.0000
  8 H      0.9726     1.0000     0.0274     0.8899     0.8899     0.0000
  9 H      0.9726     1.0000     0.0274     0.8899     0.8899    -0.0000
 10 H      0.9726     1.0000     0.0274     0.8899     0.8899     0.0000
 11 H      0.9726     1.0000     0.0274     0.8899     0.8899     0.0000

  Mayer bond orders larger than 0.100000
B(  0-C ,  1-C ) :   1.5280 B(  0-C ,  2-C ) :   0.3766 B(  0-C ,  3-C ) :  -0.2387 
B(  0-C ,  4-C ) :   0.3768 B(  0-C ,  5-C ) :   1.5274 B(  0-C ,  6-H ) :   0.8749 
B(  1-C ,  2-C ) :   1.5273 B(  1-C ,  3-C ) :   0.3769 B(  1-C ,  4-C ) :  -0.2388 
B(  1-C ,  5-C ) :   0.3768 B(  1-C ,  7-H ) :   0.8749 B(  2-C ,  3-C ) :   1.5275 
B(  2-C ,  4-C ) :   0.3767 B(  2-C ,  5-C ) :  -0.2387 B(  2-C ,  8-H ) :   0.8751 
B(  3-C ,  4-C ) :   1.5281 B(  3-C ,  5-C ) :   0.3768 B(  3-C ,  9-H ) :   0.8750 
B(  4-C ,  5-C ) :   1.5274 B(  4-C , 10-H ) :   0.8750 B(  5-C , 11-H ) :   0.8751 


-------
TIMINGS
-------

Total SCF time: 0 days 0 hours 0 min 56 sec 

Total time                  ....      56.477 sec
Sum of individual times     ....      56.299 sec  ( 99.7%)

Fock matrix formation       ....      54.110 sec  ( 95.8%)
  XC integration            ....      11.157 sec  ( 20.6% of F)
    Basis function eval.    ....       3.535 sec  ( 31.7% of XC)
    Density eval.           ....       1.623 sec  ( 14.5% of XC)
    XC-Functional eval.     ....       3.771 sec  ( 33.8% of XC)
    XC-Potential eval.      ....       1.915 sec  ( 17.2% of XC)
Diagonalization             ....       0.016 sec  (  0.0%)
Density matrix formation    ....       0.002 sec  (  0.0%)
Population analysis         ....       0.002 sec  (  0.0%)
Initial guess               ....       0.499 sec  (  0.9%)
Orbital Transformation      ....       0.000 sec  (  0.0%)
Orbital Orthonormalization  ....       0.000 sec  (  0.0%)
DIIS solution               ....       0.000 sec  (  0.0%)
Grid generation             ....       1.671 sec  (  3.0%)

-------------------------   --------------------
FINAL SINGLE POINT ENERGY      -227.947305074332
-------------------------   --------------------

Storing actual gbw-file in C6H6-C.001.gbw ... done

                            ***************************************
                            *     ORCA property calculations      *
                            ***************************************

                                    ---------------------
                                    Active property flags
                                    ---------------------
   (+) Dipole Moment


------------------------------------------------------------------------------
                       ORCA ELECTRIC PROPERTIES CALCULATION
------------------------------------------------------------------------------

Dipole Moment Calculation                       ... on
Quadrupole Moment Calculation                   ... off
Polarizability Calculation                      ... off
GBWName                                         ... C6H6-C.gbw
Electron density file                           ... C6H6-C.scfp
The origin for moment calculation is the CENTER OF MASS  = ( 0.835826,  1.447693  0.000000)

-------------
DIPOLE MOMENT
-------------
                                X             Y             Z
Electronic contribution:      0.00000      -0.00000       0.00000
Nuclear contribution   :     -0.00000      -0.00000       0.00000
                        -----------------------------------------
Total Dipole Moment    :      0.00000      -0.00000       0.00000
                        -----------------------------------------
Magnitude (a.u.)       :      0.00000
Magnitude (Debye)      :      0.00001



--------------------
Rotational spectrum 
--------------------
 
Rotational constants in cm-1:     0.422773     0.422773     0.211387 
Rotational constants in MHz : 12674.419751 12674.419751  6337.209876 

 Dipole components along the rotational axes: 
x,y,z [a.u.] :     0.000002     0.000004     0.000000 
x,y,z [Debye]:     0.000004     0.000010     0.000000 

 

         *************************************************************
                                TRAJECTORY STEP   2
                 RC  :   0.98460000
         *************************************************************
---------------------------------
CARTESIAN COORDINATES (ANGSTROEM)
---------------------------------
  C      0.000000    0.000000    0.000000
  C      0.984600    0.000000    0.000000
  C      1.476900    0.852689    0.000000
  C      0.984600    1.705377    0.000000
  C     -0.000000    1.705377   -0.000000
  C     -0.492300    0.852689    0.000000
  H     -0.540250   -0.935740   -0.000000
  H      1.524850   -0.935740    0.000000
  H      2.557400    0.852689    0.000000
  H      1.524850    2.641118    0.000000
  H     -0.540250    2.641118   -0.000000
  H     -1.572800    0.852689    0.000000

----------------------------
CARTESIAN COORDINATES (A.U.)
----------------------------
  NO LB      ZA    FRAG     MASS         X           Y           Z
   0 C     6.0000    0    12.011    0.000000    0.000000    0.000000
   1 C     6.0000    0    12.011    1.860624    0.000000    0.000000
   2 C     6.0000    0    12.011    2.790937    1.611348    0.000000
   3 C     6.0000    0    12.011    1.860624    3.222696    0.000000
   4 C     6.0000    0    12.011   -0.000000    3.222696   -0.000000
   5 C     6.0000    0    12.011   -0.930312    1.611348    0.000000
   6 H     1.0000    0     1.008   -1.020925   -1.768293   -0.000000
   7 H     1.0000    0     1.008    2.881549   -1.768293    0.000000
   8 H     1.0000    0     1.008    4.832786    1.611348    0.000000
   9 H     1.0000    0     1.008    2.881549    4.990989    0.000000
  10 H     1.0000    0     1.008   -1.020925    4.990989   -0.000000
  11 H     1.0000    0     1.008   -2.972161    1.611348    0.000000

--------------------------------
INTERNAL COORDINATES (ANGSTROEM)
--------------------------------
 C      0   0   0     0.000000000000     0.00000000     0.00000000
 C      1   0   0     0.984600000000     0.00000000     0.00000000
 C      2   1   0     0.984600000000   120.00000000     0.00000000
 C      3   2   1     0.984600000000   120.00000000     0.00000000
 C      4   3   2     0.984600000000   120.00000000   360.00000000
 C      1   2   3     0.984600000000   120.00000000   360.00000000
 H      1   2   3     1.080500000000   120.00000000   180.00000000
 H      2   1   3     1.080500000000   120.00000000   180.00000000
 H      3   2   1     1.080500000000   120.00000000   180.00000000
 H      4   3   2     1.080500000000   120.00000000   180.00000000
 H      5   4   3     1.080500000000   120.00000000   180.00000000
 H      6   1   2     1.080500000000   120.00000000   180.00000000

---------------------------
INTERNAL COORDINATES (A.U.)
---------------------------
 C      0   0   0     0.000000000000     0.00000000     0.00000000
 C      1   0   0     1.860624351459     0.00000000     0.00000000
 C      2   1   0     1.860624351459   120.00000000     0.00000000
 C      3   2   1     1.860624351459   120.00000000     0.00000000
 C      4   3   2     1.860624351459   120.00000000   360.00000000
 C      1   2   3     1.860624351459   120.00000000   360.00000000
 H      1   2   3     2.041849087702   120.00000000   180.00000000
 H      2   1   3     2.041849087702   120.00000000   180.00000000
 H      3   2   1     2.041849087702   120.00000000   180.00000000
 H      4   3   2     2.041849087702   120.00000000   180.00000000
 H      5   4   3     2.041849087702   120.00000000   180.00000000
 H      6   1   2     2.041849087702   120.00000000   180.00000000


Diagonalization of the overlap matrix:
Smallest eigenvalue                        ... 1.899e-05
Time for diagonalization                   ...    0.002 sec
Threshold for overlap eigenvalues          ... 1.000e-08
Number of eigenvalues below threshold      ... 0
Time for construction of square roots      ...    0.000 sec
Total time needed                          ...    0.002 sec

-------------------
DFT GRID GENERATION
-------------------

General Integration Accuracy     IntAcc      ...  4.670
Radial Grid Type                 RadialGrid  ... Gauss-Chebyshev
Angular Grid (max. acc.)         AngularGrid ... Lebedev-302
Angular grid pruning method      GridPruning ... 3 (G Style)
Weight generation scheme         WeightScheme... Becke
Basis function cutoff            BFCut       ...    1.0000e-10
Integration weight cutoff        WCut        ...    1.0000e-14
Grids for H and He will be reduced by one unit

# of grid points (after initial pruning)     ...  57636 (   0.0 sec)
# of grid points (after weights+screening)   ...  52272 (   0.1 sec)
nearest neighbour list constructed           ...    0.0 sec
Grid point re-assignment to atoms done       ...    0.0 sec
Grid point division into batches done        ...    0.2 sec
Reduced shell lists constructed in    0.4 sec

Total number of grid points                  ...    52272
Total number of batches                      ...      820
Average number of points per batch           ...       63
Average number of grid points per atom       ...     4356
Average number of shells per batch           ...    37.22 (77.54%)
Average number of basis functions per batch  ...    77.27 (80.49%)
Average number of large shells per batch     ...    31.70 (85.19%)
Average number of large basis fcns per batch ...    66.13 (85.58%)
Maximum spatial batch extension              ...  17.53, 16.19, 23.20 au
Average spatial batch extension              ...   2.50,  2.57,  2.96 au

Time for grid setup =    0.509 sec

--------------
SCF ITERATIONS
--------------
ITER       Energy         Delta-E        Max-DP      RMS-DP      [F,P]   Gradient Norm
               ***  Starting incremental Fock matrix formation  ***
                             ****Resetting KDIIS****
                             ****Turning on KDIIS(Cayley)****
  0   -229.9105406186   0.000000000000 0.62795150  0.02179951  0.0899105   0.075278195
  1   -229.9336369379  -0.023096319263 0.87148015  0.03003120  0.0810720   0.066471020
  2   -229.9615937780  -0.027956840116 1.05696569  0.03676647  0.0663771   0.054362315
  3   -229.9977033089  -0.036109530925 1.12054377  0.04067603  0.0405734   0.032876010
  4   -230.0185451263  -0.020841817385 0.00758680  0.00031822  0.0010630   0.000516210
  5   -230.0185547091  -0.000009582817 0.00204345  0.00011600  0.0002067   0.000128207
                          ***Energy convergence achieved***
  6   -230.0185553481  -0.000000638974 0.00169540  0.00009124  0.0000893   0.000039531
  7   -230.0185554181  -0.000000070015 0.00074147  0.00003872  0.0000185   0.000010749
  8   -230.0185554201  -0.000000002035 0.00021317  0.00001048  0.0000049   0.000003953

            ***Energy convergence in two consecutive cycles with***
                    ***'reasonable' density convergence***
                       *** signaling convergence ***

                    *** KDIIS BlockDiag (30.690 sec) ***

               *****************************************************
               *                     SUCCESS                       *
               *           SCF CONVERGED AFTER   9 CYCLES          *
               *****************************************************

Setting up the final grid:

General Integration Accuracy     IntAcc      ...  5.010
Radial Grid Type                 RadialGrid  ... Gauss-Chebyshev
Angular Grid (max. acc.)         AngularGrid ... Lebedev-434
Angular grid pruning method      GridPruning ... 3 (G Style)
Weight generation scheme         WeightScheme... Becke
Basis function cutoff            BFCut       ...    1.0000e-10
Integration weight cutoff        WCut        ...    1.0000e-14
Grids for H and He will be reduced by one unit

# of grid points (after initial pruning)     ... 104340 (   0.0 sec)
# of grid points (after weights+screening)   ...  94468 (   0.1 sec)
nearest neighbour list constructed           ...    0.0 sec
Grid point re-assignment to atoms done       ...    0.0 sec
Grid point division into batches done        ...    0.6 sec
Reduced shell lists constructed in    1.0 sec

Total number of grid points                  ...    94468
Total number of batches                      ...     1480
Average number of points per batch           ...       63
Average number of grid points per atom       ...     7872
Average number of shells per batch           ...    36.26 (75.54%)
Average number of basis functions per batch  ...    75.38 (78.52%)
Average number of large shells per batch     ...    30.74 (84.78%)
Average number of large basis fcns per batch ...    64.10 (85.03%)
Maximum spatial batch extension              ...  17.56, 21.08, 24.10 au
Average spatial batch extension              ...   2.07,  2.11,  2.42 au

Final grid set up in    1.2 sec
Final integration                            ... done (   1.1 sec)
Change in XC energy                          ...    -0.000226097
Integrated number of electrons               ...    41.999985208
Previous integrated no of electrons          ...    41.999930071
Total Energy       :         -230.01878152 Eh           -6259.12925 eV
  Last Energy change         ...   -7.0992e-09  Tolerance :   1.0000e-06
  Last MAX-Density change    ...    9.7234e-05  Tolerance :   1.0000e-05
             **** THE GBW FILE WAS UPDATED (C6H6-C.gbw) ****
             **** DENSITY FILE WAS UPDATED (C6H6-C.scfp) ****
             **** ENERGY FILE WAS UPDATED (C6H6-C.en.tmp) ****
             **** THE GBW FILE WAS UPDATED (C6H6-C.gbw) ****
             **** DENSITY FILE WAS UPDATED (C6H6-C.scfp) ****
Total SCF time: 0 days 0 hours 0 min 32 sec 

-------------------------   --------------------
FINAL SINGLE POINT ENERGY      -230.018781524684
-------------------------   --------------------

Storing actual gbw-file in C6H6-C.002.gbw ... done

                            ***************************************
                            *     ORCA property calculations      *
                            ***************************************

                                    ---------------------
                                    Active property flags
                                    ---------------------
   (+) Dipole Moment


------------------------------------------------------------------------------
                       ORCA ELECTRIC PROPERTIES CALCULATION
------------------------------------------------------------------------------

Dipole Moment Calculation                       ... on
Quadrupole Moment Calculation                   ... off
Polarizability Calculation                      ... off
GBWName                                         ... C6H6-C.gbw
Electron density file                           ... C6H6-C.scfp
The origin for moment calculation is the CENTER OF MASS  = ( 0.930312,  1.611348  0.000000)

-------------
DIPOLE MOMENT
-------------
                                X             Y             Z
Electronic contribution:     -0.00000       0.00000       0.00000
Nuclear contribution   :     -0.00000      -0.00000       0.00000
                        -----------------------------------------
Total Dipole Moment    :     -0.00000       0.00000       0.00000
                        -----------------------------------------
Magnitude (a.u.)       :      0.00000
Magnitude (Debye)      :      0.00000



--------------------
Rotational spectrum 
--------------------
 
Rotational constants in cm-1:     0.352464     0.352464     0.176232 
Rotational constants in MHz : 10566.604029 10566.604029  5283.302015 

 Dipole components along the rotational axes: 
x,y,z [a.u.] :    -0.000000    -0.000000     0.000000 
x,y,z [Debye]:    -0.000001    -0.000000     0.000000 

 

         *************************************************************
                                TRAJECTORY STEP   3
                 RC  :   1.08460000
         *************************************************************
---------------------------------
CARTESIAN COORDINATES (ANGSTROEM)
---------------------------------
  C      0.000000    0.000000    0.000000
  C      1.084600    0.000000    0.000000
  C      1.626900    0.939291    0.000000
  C      1.084600    1.878582    0.000000
  C     -0.000000    1.878582   -0.000000
  C     -0.542300    0.939291    0.000000
  H     -0.540250   -0.935740   -0.000000
  H      1.624850   -0.935740    0.000000
  H      2.707400    0.939291    0.000000
  H      1.624850    2.814323    0.000000
  H     -0.540250    2.814323   -0.000000
  H     -1.622800    0.939291    0.000000

----------------------------
CARTESIAN COORDINATES (A.U.)
----------------------------
  NO LB      ZA    FRAG     MASS         X           Y           Z
   0 C     6.0000    0    12.011    0.000000    0.000000    0.000000
   1 C     6.0000    0    12.011    2.049597    0.000000    0.000000
   2 C     6.0000    0    12.011    3.074395    1.775003    0.000000
   3 C     6.0000    0    12.011    2.049597    3.550006    0.000000
   4 C     6.0000    0    12.011   -0.000000    3.550006   -0.000000
   5 C     6.0000    0    12.011   -1.024798    1.775003    0.000000
   6 H     1.0000    0     1.008   -1.020925   -1.768293   -0.000000
   7 H     1.0000    0     1.008    3.070522   -1.768293    0.000000
   8 H     1.0000    0     1.008    5.116245    1.775003    0.000000
   9 H     1.0000    0     1.008    3.070522    5.318299    0.000000
  10 H     1.0000    0     1.008   -1.020925    5.318299   -0.000000
  11 H     1.0000    0     1.008   -3.066648    1.775003    0.000000

--------------------------------
INTERNAL COORDINATES (ANGSTROEM)
--------------------------------
 C      0   0   0     0.000000000000     0.00000000     0.00000000
 C      1   0   0     1.084600000000     0.00000000     0.00000000
 C      2   1   0     1.084600000000   120.00000000     0.00000000
 C      3   2   1     1.084600000000   120.00000000     0.00000000
 C      4   3   2     1.084600000000   120.00000000   360.00000000
 C      1   2   3     1.084600000000   120.00000000   360.00000000
 H      1   2   3     1.080500000000   120.00000000   180.00000000
 H      2   1   3     1.080500000000   120.00000000   180.00000000
 H      3   2   1     1.080500000000   120.00000000   180.00000000
 H      4   3   2     1.080500000000   120.00000000   180.00000000
 H      5   4   3     1.080500000000   120.00000000   180.00000000
 H      6   1   2     1.080500000000   120.00000000   180.00000000

---------------------------
INTERNAL COORDINATES (A.U.)
---------------------------
 C      0   0   0     0.000000000000     0.00000000     0.00000000
 C      1   0   0     2.049596964851     0.00000000     0.00000000
 C      2   1   0     2.049596964851   120.00000000     0.00000000
 C      3   2   1     2.049596964851   120.00000000     0.00000000
 C      4   3   2     2.049596964851   120.00000000   360.00000000
 C      1   2   3     2.049596964851   120.00000000   360.00000000
 H      1   2   3     2.041849087702   120.00000000   180.00000000
 H      2   1   3     2.041849087702   120.00000000   180.00000000
 H      3   2   1     2.041849087702   120.00000000   180.00000000
 H      4   3   2     2.041849087702   120.00000000   180.00000000
 H      5   4   3     2.041849087702   120.00000000   180.00000000
 H      6   1   2     2.041849087702   120.00000000   180.00000000


Diagonalization of the overlap matrix:
Smallest eigenvalue                        ... 4.801e-05
Time for diagonalization                   ...    0.002 sec
Threshold for overlap eigenvalues          ... 1.000e-08
Number of eigenvalues below threshold      ... 0
Time for construction of square roots      ...    0.000 sec
Total time needed                          ...    0.002 sec

-------------------
DFT GRID GENERATION
-------------------

General Integration Accuracy     IntAcc      ...  4.670
Radial Grid Type                 RadialGrid  ... Gauss-Chebyshev
Angular Grid (max. acc.)         AngularGrid ... Lebedev-302
Angular grid pruning method      GridPruning ... 3 (G Style)
Weight generation scheme         WeightScheme... Becke
Basis function cutoff            BFCut       ...    1.0000e-10
Integration weight cutoff        WCut        ...    1.0000e-14
Grids for H and He will be reduced by one unit

# of grid points (after initial pruning)     ...  57636 (   0.0 sec)
# of grid points (after weights+screening)   ...  52606 (   0.1 sec)
nearest neighbour list constructed           ...    0.0 sec
Grid point re-assignment to atoms done       ...    0.0 sec
Grid point division into batches done        ...    0.2 sec
Reduced shell lists constructed in    0.4 sec

Total number of grid points                  ...    52606
Total number of batches                      ...      830
Average number of points per batch           ...       63
Average number of grid points per atom       ...     4384
Average number of shells per batch           ...    36.48 (76.01%)
Average number of basis functions per batch  ...    75.84 (78.99%)
Average number of large shells per batch     ...    30.78 (84.36%)
Average number of large basis fcns per batch ...    64.13 (84.56%)
Maximum spatial batch extension              ...  16.81, 16.35, 23.20 au
Average spatial batch extension              ...   2.49,  2.61,  3.03 au

Time for grid setup =    0.511 sec

--------------
SCF ITERATIONS
--------------
ITER       Energy         Delta-E        Max-DP      RMS-DP      [F,P]   Gradient Norm
               ***  Starting incremental Fock matrix formation  ***
                             ****Resetting KDIIS****
                             ****Turning on KDIIS(Cayley)****
  0   -231.1270265200   0.000000000000 0.08775597  0.00392743  0.0675866   0.053817651
  1   -231.1391280321  -0.012101512092 0.13336793  0.00598305  0.0598150   0.047837894
  2   -231.1548543830  -0.015726350841 0.16466272  0.00775660  0.0495659   0.039182479
  3   -231.1753791605  -0.020524777525 0.18243773  0.00956341  0.0300125   0.023641281
  4   -231.1871655451  -0.011786384616 0.00103128  0.00008601  0.0004331   0.000251505
  5   -231.1871677511  -0.000002205974 0.00036302  0.00002260  0.0000635   0.000046704
                          ***Energy convergence achieved***
  6   -231.1871678246  -0.000000073494 0.00025837  0.00001692  0.0000215   0.000013542

            ***Energy convergence in two consecutive cycles with***
                    ***'reasonable' density convergence***
                       *** signaling convergence ***

                    *** KDIIS BlockDiag (23.598 sec) ***

               *****************************************************
               *                     SUCCESS                       *
               *           SCF CONVERGED AFTER   7 CYCLES          *
               *****************************************************

Setting up the final grid:

General Integration Accuracy     IntAcc      ...  5.010
Radial Grid Type                 RadialGrid  ... Gauss-Chebyshev
Angular Grid (max. acc.)         AngularGrid ... Lebedev-434
Angular grid pruning method      GridPruning ... 3 (G Style)
Weight generation scheme         WeightScheme... Becke
Basis function cutoff            BFCut       ...    1.0000e-10
Integration weight cutoff        WCut        ...    1.0000e-14
Grids for H and He will be reduced by one unit

# of grid points (after initial pruning)     ... 104340 (   0.0 sec)
# of grid points (after weights+screening)   ...  95006 (   0.1 sec)
nearest neighbour list constructed           ...    0.0 sec
Grid point re-assignment to atoms done       ...    0.0 sec
Grid point division into batches done        ...    0.6 sec
Reduced shell lists constructed in    1.0 sec

Total number of grid points                  ...    95006
Total number of batches                      ...     1492
Average number of points per batch           ...       63
Average number of grid points per atom       ...     7917
Average number of shells per batch           ...    35.58 (74.12%)
Average number of basis functions per batch  ...    73.95 (77.03%)
Average number of large shells per batch     ...    29.78 (83.69%)
Average number of large basis fcns per batch ...    61.91 (83.72%)
Maximum spatial batch extension              ...  16.73, 20.29, 24.11 au
Average spatial batch extension              ...   2.08,  2.13,  2.39 au

Final grid set up in    1.2 sec
Final integration                            ... done (   1.1 sec)
Change in XC energy                          ...     0.000114082
Integrated number of electrons               ...    41.999994034
Previous integrated no of electrons          ...    41.999947592
Total Energy       :         -231.18705375 Eh           -6290.91956 eV
  Last Energy change         ...   -7.1539e-09  Tolerance :   1.0000e-06
  Last MAX-Density change    ...    3.2220e-05  Tolerance :   1.0000e-05
             **** THE GBW FILE WAS UPDATED (C6H6-C.gbw) ****
             **** DENSITY FILE WAS UPDATED (C6H6-C.scfp) ****
             **** ENERGY FILE WAS UPDATED (C6H6-C.en.tmp) ****
             **** THE GBW FILE WAS UPDATED (C6H6-C.gbw) ****
             **** DENSITY FILE WAS UPDATED (C6H6-C.scfp) ****
Total SCF time: 0 days 0 hours 0 min 25 sec 

-------------------------   --------------------
FINAL SINGLE POINT ENERGY      -231.187053749840
-------------------------   --------------------

Storing actual gbw-file in C6H6-C.003.gbw ... done

                            ***************************************
                            *     ORCA property calculations      *
                            ***************************************

                                    ---------------------
                                    Active property flags
                                    ---------------------
   (+) Dipole Moment


------------------------------------------------------------------------------
                       ORCA ELECTRIC PROPERTIES CALCULATION
------------------------------------------------------------------------------

Dipole Moment Calculation                       ... on
Quadrupole Moment Calculation                   ... off
Polarizability Calculation                      ... off
GBWName                                         ... C6H6-C.gbw
Electron density file                           ... C6H6-C.scfp
The origin for moment calculation is the CENTER OF MASS  = ( 1.024798,  1.775003  0.000000)

-------------
DIPOLE MOMENT
-------------
                                X             Y             Z
Electronic contribution:      0.00000      -0.00000      -0.00000
Nuclear contribution   :     -0.00000      -0.00000       0.00000
                        -----------------------------------------
Total Dipole Moment    :      0.00000      -0.00000      -0.00000
                        -----------------------------------------
Magnitude (a.u.)       :      0.00000
Magnitude (Debye)      :      0.00000



--------------------
Rotational spectrum 
--------------------
 
Rotational constants in cm-1:     0.298032     0.298032     0.149016 
Rotational constants in MHz :  8934.782305  8934.782305  4467.391152 

 Dipole components along the rotational axes: 
x,y,z [a.u.] :    -0.000000    -0.000000    -0.000000 
x,y,z [Debye]:    -0.000000    -0.000000    -0.000000 

 

         *************************************************************
                                TRAJECTORY STEP   4
                 RC  :   1.18460000
         *************************************************************
---------------------------------
CARTESIAN COORDINATES (ANGSTROEM)
---------------------------------
  C      0.000000    0.000000    0.000000
  C      1.184600    0.000000    0.000000
  C      1.776900    1.025894    0.000000
  C      1.184600    2.051787    0.000000
  C     -0.000000    2.051787   -0.000000
  C     -0.592300    1.025894    0.000000
  H     -0.540250   -0.935740   -0.000000
  H      1.724850   -0.935740    0.000000
  H      2.857400    1.025894    0.000000
  H      1.724850    2.987528    0.000000
  H     -0.540250    2.987528   -0.000000
  H     -1.672800    1.025894    0.000000

----------------------------
CARTESIAN COORDINATES (A.U.)
----------------------------
  NO LB      ZA    FRAG     MASS         X           Y           Z
   0 C     6.0000    0    12.011    0.000000    0.000000    0.000000
   1 C     6.0000    0    12.011    2.238570    0.000000    0.000000
   2 C     6.0000    0    12.011    3.357854    1.938658    0.000000
   3 C     6.0000    0    12.011    2.238570    3.877316    0.000000
   4 C     6.0000    0    12.011   -0.000000    3.877316   -0.000000
   5 C     6.0000    0    12.011   -1.119285    1.938658    0.000000
   6 H     1.0000    0     1.008   -1.020925   -1.768293   -0.000000
   7 H     1.0000    0     1.008    3.259494   -1.768293    0.000000
   8 H     1.0000    0     1.008    5.399703    1.938658    0.000000
   9 H     1.0000    0     1.008    3.259494    5.645609    0.000000
  10 H     1.0000    0     1.008   -1.020925    5.645609   -0.000000
  11 H     1.0000    0     1.008   -3.161134    1.938658    0.000000

--------------------------------
INTERNAL COORDINATES (ANGSTROEM)
--------------------------------
 C      0   0   0     0.000000000000     0.00000000     0.00000000
 C      1   0   0     1.184600000000     0.00000000     0.00000000
 C      2   1   0     1.184600000000   120.00000000     0.00000000
 C      3   2   1     1.184600000000   120.00000000     0.00000000
 C      4   3   2     1.184600000000   120.00000000   360.00000000
 C      1   2   3     1.184600000000   120.00000000   360.00000000
 H      1   2   3     1.080500000000   120.00000000   180.00000000
 H      2   1   3     1.080500000000   120.00000000   180.00000000
 H      3   2   1     1.080500000000   120.00000000   180.00000000
 H      4   3   2     1.080500000000   120.00000000   180.00000000
 H      5   4   3     1.080500000000   120.00000000   180.00000000
 H      6   1   2     1.080500000000   120.00000000   180.00000000

---------------------------
INTERNAL COORDINATES (A.U.)
---------------------------
 C      0   0   0     0.000000000000     0.00000000     0.00000000
 C      1   0   0     2.238569578243     0.00000000     0.00000000
 C      2   1   0     2.238569578243   120.00000000     0.00000000
 C      3   2   1     2.238569578243   120.00000000     0.00000000
 C      4   3   2     2.238569578243   120.00000000   360.00000000
 C      1   2   3     2.238569578243   120.00000000   360.00000000
 H      1   2   3     2.041849087702   120.00000000   180.00000000
 H      2   1   3     2.041849087702   120.00000000   180.00000000
 H      3   2   1     2.041849087702   120.00000000   180.00000000
 H      4   3   2     2.041849087702   120.00000000   180.00000000
 H      5   4   3     2.041849087702   120.00000000   180.00000000
 H      6   1   2     2.041849087702   120.00000000   180.00000000


Diagonalization of the overlap matrix:
Smallest eigenvalue                        ... 1.115e-04
Time for diagonalization                   ...    0.002 sec
Threshold for overlap eigenvalues          ... 1.000e-08
Number of eigenvalues below threshold      ... 0
Time for construction of square roots      ...    0.000 sec
Total time needed                          ...    0.002 sec

-------------------
DFT GRID GENERATION
-------------------

General Integration Accuracy     IntAcc      ...  4.670
Radial Grid Type                 RadialGrid  ... Gauss-Chebyshev
Angular Grid (max. acc.)         AngularGrid ... Lebedev-302
Angular grid pruning method      GridPruning ... 3 (G Style)
Weight generation scheme         WeightScheme... Becke
Basis function cutoff            BFCut       ...    1.0000e-10
Integration weight cutoff        WCut        ...    1.0000e-14
Grids for H and He will be reduced by one unit

# of grid points (after initial pruning)     ...  57636 (   0.0 sec)
# of grid points (after weights+screening)   ...  52880 (   0.1 sec)
nearest neighbour list constructed           ...    0.0 sec
Grid point re-assignment to atoms done       ...    0.0 sec
Grid point division into batches done        ...    0.2 sec
Reduced shell lists constructed in    0.4 sec

Total number of grid points                  ...    52880
Total number of batches                      ...      830
Average number of points per batch           ...       63
Average number of grid points per atom       ...     4407
Average number of shells per batch           ...    35.79 (74.56%)
Average number of basis functions per batch  ...    74.33 (77.42%)
Average number of large shells per batch     ...    29.83 (83.36%)
Average number of large basis fcns per batch ...    62.04 (83.47%)
Maximum spatial batch extension              ...  16.86, 16.93, 23.20 au
Average spatial batch extension              ...   2.50,  2.62,  3.12 au

Time for grid setup =    0.511 sec

--------------
SCF ITERATIONS
--------------
ITER       Energy         Delta-E        Max-DP      RMS-DP      [F,P]   Gradient Norm
               ***  Starting incremental Fock matrix formation  ***
                             ****Resetting KDIIS****
                             ****Turning on KDIIS(Cayley)****
  0   -231.7704368081   0.000000000000 0.01650424  0.00122967  0.0530787   0.040736978
  1   -231.7776267948  -0.007189986780 0.02664094  0.00202866  0.0471219   0.036349611
  2   -231.7873933850  -0.009766590139 0.03461818  0.00289976  0.0388913   0.029782391
  3   -231.8001880639  -0.012794678902 0.04837348  0.00389059  0.0234659   0.017937439
  4   -231.8075052971  -0.007317233263 0.00040898  0.00003601  0.0001953   0.000151859
                          ***Energy convergence achieved***
  5   -231.8075059935  -0.000000696401 0.00007149  0.00000550  0.0000243   0.000021203

            ***Energy convergence in two consecutive cycles with***
                    ***'reasonable' density convergence***
                       *** signaling convergence ***

                    *** KDIIS BlockDiag (19.776 sec) ***

               *****************************************************
               *                     SUCCESS                       *
               *           SCF CONVERGED AFTER   6 CYCLES          *
               *****************************************************

Setting up the final grid:

General Integration Accuracy     IntAcc      ...  5.010
Radial Grid Type                 RadialGrid  ... Gauss-Chebyshev
Angular Grid (max. acc.)         AngularGrid ... Lebedev-434
Angular grid pruning method      GridPruning ... 3 (G Style)
Weight generation scheme         WeightScheme... Becke
Basis function cutoff            BFCut       ...    1.0000e-10
Integration weight cutoff        WCut        ...    1.0000e-14
Grids for H and He will be reduced by one unit

# of grid points (after initial pruning)     ... 104340 (   0.0 sec)
# of grid points (after weights+screening)   ...  95622 (   0.1 sec)
nearest neighbour list constructed           ...    0.0 sec
Grid point re-assignment to atoms done       ...    0.0 sec
Grid point division into batches done        ...    0.6 sec
Reduced shell lists constructed in    1.0 sec

Total number of grid points                  ...    95622
Total number of batches                      ...     1504
Average number of points per batch           ...       63
Average number of grid points per atom       ...     7968
Average number of shells per batch           ...    34.89 (72.69%)
Average number of basis functions per batch  ...    72.39 (75.41%)
Average number of large shells per batch     ...    28.78 (82.48%)
Average number of large basis fcns per batch ...    59.93 (82.79%)
Maximum spatial batch extension              ...  17.48, 19.94, 24.04 au
Average spatial batch extension              ...   2.08,  2.15,  2.42 au

Final grid set up in    1.2 sec
Final integration                            ... done (   1.1 sec)
Change in XC energy                          ...     0.000358074
Integrated number of electrons               ...    41.999989271
Previous integrated no of electrons          ...    41.999873477
Total Energy       :         -231.80714793 Eh           -6307.79318 eV
  Last Energy change         ...   -1.3583e-08  Tolerance :   1.0000e-06
  Last MAX-Density change    ...    2.7319e-05  Tolerance :   1.0000e-05
             **** THE GBW FILE WAS UPDATED (C6H6-C.gbw) ****
             **** DENSITY FILE WAS UPDATED (C6H6-C.scfp) ****
             **** ENERGY FILE WAS UPDATED (C6H6-C.en.tmp) ****
             **** THE GBW FILE WAS UPDATED (C6H6-C.gbw) ****
             **** DENSITY FILE WAS UPDATED (C6H6-C.scfp) ****
Total SCF time: 0 days 0 hours 0 min 22 sec 

-------------------------   --------------------
FINAL SINGLE POINT ENERGY      -231.807147933259
-------------------------   --------------------

Storing actual gbw-file in C6H6-C.004.gbw ... done

                            ***************************************
                            *     ORCA property calculations      *
                            ***************************************

                                    ---------------------
                                    Active property flags
                                    ---------------------
   (+) Dipole Moment


------------------------------------------------------------------------------
                       ORCA ELECTRIC PROPERTIES CALCULATION
------------------------------------------------------------------------------

Dipole Moment Calculation                       ... on
Quadrupole Moment Calculation                   ... off
Polarizability Calculation                      ... off
GBWName                                         ... C6H6-C.gbw
Electron density file                           ... C6H6-C.scfp
The origin for moment calculation is the CENTER OF MASS  = ( 1.119285,  1.938658  0.000000)

-------------
DIPOLE MOMENT
-------------
                                X             Y             Z
Electronic contribution:      0.00000      -0.00000       0.00000
Nuclear contribution   :     -0.00000      -0.00000       0.00000
                        -----------------------------------------
Total Dipole Moment    :      0.00000      -0.00000       0.00000
                        -----------------------------------------
Magnitude (a.u.)       :      0.00000
Magnitude (Debye)      :      0.00000



--------------------
Rotational spectrum 
--------------------
 
Rotational constants in cm-1:     0.255112     0.255112     0.127556 
Rotational constants in MHz :  7648.057485  7648.057485  3824.028743 

 Dipole components along the rotational axes: 
x,y,z [a.u.] :     0.000000     0.000000     0.000000 
x,y,z [Debye]:     0.000000     0.000000     0.000000 

 

         *************************************************************
                                TRAJECTORY STEP   5
                 RC  :   1.28460000
         *************************************************************
---------------------------------
CARTESIAN COORDINATES (ANGSTROEM)
---------------------------------
  C      0.000000    0.000000    0.000000
  C      1.284600    0.000000    0.000000
  C      1.926900    1.112496    0.000000
  C      1.284600    2.224992    0.000000
  C     -0.000000    2.224992   -0.000000
  C     -0.642300    1.112496    0.000000
  H     -0.540250   -0.935740   -0.000000
  H      1.824850   -0.935740    0.000000
  H      3.007400    1.112496    0.000000
  H      1.824850    3.160733    0.000000
  H     -0.540250    3.160733   -0.000000
  H     -1.722800    1.112496    0.000000

----------------------------
CARTESIAN COORDINATES (A.U.)
----------------------------
  NO LB      ZA    FRAG     MASS         X           Y           Z
   0 C     6.0000    0    12.011    0.000000    0.000000    0.000000
   1 C     6.0000    0    12.011    2.427542    0.000000    0.000000
   2 C     6.0000    0    12.011    3.641313    2.102313    0.000000
   3 C     6.0000    0    12.011    2.427542    4.204626    0.000000
   4 C     6.0000    0    12.011   -0.000000    4.204626   -0.000000
   5 C     6.0000    0    12.011   -1.213771    2.102313    0.000000
   6 H     1.0000    0     1.008   -1.020925   -1.768293   -0.000000
   7 H     1.0000    0     1.008    3.448467   -1.768293    0.000000
   8 H     1.0000    0     1.008    5.683162    2.102313    0.000000
   9 H     1.0000    0     1.008    3.448467    5.972920    0.000000
  10 H     1.0000    0     1.008   -1.020925    5.972920   -0.000000
  11 H     1.0000    0     1.008   -3.255620    2.102313    0.000000

--------------------------------
INTERNAL COORDINATES (ANGSTROEM)
--------------------------------
 C      0   0   0     0.000000000000     0.00000000     0.00000000
 C      1   0   0     1.284600000000     0.00000000     0.00000000
 C      2   1   0     1.284600000000   120.00000000     0.00000000
 C      3   2   1     1.284600000000   120.00000000     0.00000000
 C      4   3   2     1.284600000000   120.00000000   360.00000000
 C      1   2   3     1.284600000000   120.00000000   360.00000000
 H      1   2   3     1.080500000000   120.00000000   180.00000000
 H      2   1   3     1.080500000000   120.00000000   180.00000000
 H      3   2   1     1.080500000000   120.00000000   180.00000000
 H      4   3   2     1.080500000000   120.00000000   180.00000000
 H      5   4   3     1.080500000000   120.00000000   180.00000000
 H      6   1   2     1.080500000000   120.00000000   180.00000000

---------------------------
INTERNAL COORDINATES (A.U.)
---------------------------
 C      0   0   0     0.000000000000     0.00000000     0.00000000
 C      1   0   0     2.427542191635     0.00000000     0.00000000
 C      2   1   0     2.427542191635   120.00000000     0.00000000
 C      3   2   1     2.427542191635   120.00000000     0.00000000
 C      4   3   2     2.427542191635   120.00000000   360.00000000
 C      1   2   3     2.427542191635   120.00000000   360.00000000
 H      1   2   3     2.041849087702   120.00000000   180.00000000
 H      2   1   3     2.041849087702   120.00000000   180.00000000
 H      3   2   1     2.041849087702   120.00000000   180.00000000
 H      4   3   2     2.041849087702   120.00000000   180.00000000
 H      5   4   3     2.041849087702   120.00000000   180.00000000
 H      6   1   2     2.041849087702   120.00000000   180.00000000


Diagonalization of the overlap matrix:
Smallest eigenvalue                        ... 2.408e-04
Time for diagonalization                   ...    0.002 sec
Threshold for overlap eigenvalues          ... 1.000e-08
Number of eigenvalues below threshold      ... 0
Time for construction of square roots      ...    0.000 sec
Total time needed                          ...    0.002 sec

-------------------
DFT GRID GENERATION
-------------------

General Integration Accuracy     IntAcc      ...  4.670
Radial Grid Type                 RadialGrid  ... Gauss-Chebyshev
Angular Grid (max. acc.)         AngularGrid ... Lebedev-302
Angular grid pruning method      GridPruning ... 3 (G Style)
Weight generation scheme         WeightScheme... Becke
Basis function cutoff            BFCut       ...    1.0000e-10
Integration weight cutoff        WCut        ...    1.0000e-14
Grids for H and He will be reduced by one unit

# of grid points (after initial pruning)     ...  57636 (   0.0 sec)
# of grid points (after weights+screening)   ...  53148 (   0.1 sec)
nearest neighbour list constructed           ...    0.0 sec
Grid point re-assignment to atoms done       ...    0.0 sec
Grid point division into batches done        ...    0.2 sec
Reduced shell lists constructed in    0.4 sec

Total number of grid points                  ...    53148
Total number of batches                      ...      836
Average number of points per batch           ...       63
Average number of grid points per atom       ...     4429
Average number of shells per batch           ...    34.96 (72.83%)
Average number of basis functions per batch  ...    72.45 (75.47%)
[...]
Reduced shell lists constructed in    0.9 sec

Total number of grid points                  ...   102900
Total number of batches                      ...     1614
Average number of points per batch           ...       63
Average number of grid points per atom       ...     8575
Average number of shells per batch           ...    11.37 (23.70%)
Average number of basis functions per batch  ...    21.98 (22.90%)
Average number of large shells per batch     ...     7.29 (64.09%)
Average number of large basis fcns per batch ...    14.75 (67.11%)
Maximum spatial batch extension              ...  20.05, 20.62, 22.90 au
Average spatial batch extension              ...   2.76,  2.79,  3.01 au

Final grid set up in    1.1 sec
Final integration                            ... done (   0.6 sec)
Change in XC energy                          ...    -0.001020005
Integrated number of electrons               ...    42.000000508
Previous integrated no of electrons          ...    42.000005676
Total Energy       :         -229.74771569 Eh           -6251.75318 eV
  Last Energy change         ...   -3.0216e-07  Tolerance :   1.0000e-06
  Last MAX-Density change    ...    8.2847e-05  Tolerance :   1.0000e-05
             **** THE GBW FILE WAS UPDATED (C6H6-C.gbw) ****
             **** DENSITY FILE WAS UPDATED (C6H6-C.scfp) ****
             **** ENERGY FILE WAS UPDATED (C6H6-C.en.tmp) ****
             **** THE GBW FILE WAS UPDATED (C6H6-C.gbw) ****
             **** DENSITY FILE WAS UPDATED (C6H6-C.scfp) ****
Total SCF time: 0 days 0 hours 0 min 8 sec 

-------------------------   --------------------
FINAL SINGLE POINT ENERGY      -229.747715686178
-------------------------   --------------------

Storing actual gbw-file in C6H6-C.045.gbw ... done

                            ***************************************
                            *     ORCA property calculations      *
                            ***************************************

                                    ---------------------
                                    Active property flags
                                    ---------------------
   (+) Dipole Moment


------------------------------------------------------------------------------
                       ORCA ELECTRIC PROPERTIES CALCULATION
------------------------------------------------------------------------------

Dipole Moment Calculation                       ... on
Quadrupole Moment Calculation                   ... off
Polarizability Calculation                      ... off
GBWName                                         ... C6H6-C.gbw
Electron density file                           ... C6H6-C.scfp
The origin for moment calculation is the CENTER OF MASS  = ( 4.993223,  8.648517  0.000000)

-------------
DIPOLE MOMENT
-------------
                                X             Y             Z
Electronic contribution:      0.00672       0.00543       0.00000
Nuclear contribution   :     -0.00000      -0.00000       0.00000
                        -----------------------------------------
Total Dipole Moment    :      0.00672       0.00543       0.00000
                        -----------------------------------------
Magnitude (a.u.)       :      0.00864
Magnitude (Debye)      :      0.02196



--------------------
Rotational spectrum 
--------------------
 
Rotational constants in cm-1:     0.014934     0.014934     0.007467 
Rotational constants in MHz :   447.710225   447.710225   223.855113 

 Dipole components along the rotational axes: 
x,y,z [a.u.] :    -0.005810    -0.006395     0.000001 
x,y,z [Debye]:    -0.014769    -0.016255     0.000003 

 

         *************************************************************
                                TRAJECTORY STEP  46
                 RC  :   5.38460000
         *************************************************************
---------------------------------
CARTESIAN COORDINATES (ANGSTROEM)
---------------------------------
  C      0.000000    0.000000    0.000000
  C      5.384600    0.000000    0.000000
  C      8.076900    4.663200    0.000000
  C      5.384600    9.326401    0.000000
  C     -0.000000    9.326401   -0.000000
  C     -2.692300    4.663200    0.000000
  H     -0.540250   -0.935740   -0.000000
  H      5.924850   -0.935740    0.000000
  H      9.157400    4.663200    0.000000
  H      5.924850   10.262141    0.000000
  H     -0.540250   10.262141   -0.000000
  H     -3.772800    4.663200    0.000000

----------------------------
CARTESIAN COORDINATES (A.U.)
----------------------------
  NO LB      ZA    FRAG     MASS         X           Y           Z
   0 C     6.0000    0    12.011    0.000000    0.000000    0.000000
   1 C     6.0000    0    12.011   10.175419    0.000000    0.000000
   2 C     6.0000    0    12.011   15.263129    8.812172    0.000000
   3 C     6.0000    0    12.011   10.175419   17.624343    0.000000
   4 C     6.0000    0    12.011   -0.000000   17.624343   -0.000000
   5 C     6.0000    0    12.011   -5.087710    8.812172    0.000000
   6 H     1.0000    0     1.008   -1.020925   -1.768293   -0.000000
   7 H     1.0000    0     1.008   11.196344   -1.768293    0.000000
   8 H     1.0000    0     1.008   17.304978    8.812172    0.000000
   9 H     1.0000    0     1.008   11.196344   19.392636    0.000000
  10 H     1.0000    0     1.008   -1.020925   19.392636   -0.000000
  11 H     1.0000    0     1.008   -7.129559    8.812172    0.000000

--------------------------------
INTERNAL COORDINATES (ANGSTROEM)
--------------------------------
 C      0   0   0     0.000000000000     0.00000000     0.00000000
 C      1   0   0     5.384600000000     0.00000000     0.00000000
 C      2   1   0     5.384600000000   120.00000000     0.00000000
 C      3   2   1     5.384600000000   120.00000000     0.00000000
 C      4   3   2     5.384600000000   120.00000000   360.00000000
 C      1   2   3     5.384600000000   120.00000000   360.00000000
 H      1   2   3     1.080500000000   120.00000000   180.00000000
 H      2   1   3     1.080500000000   120.00000000   180.00000000
 H      3   2   1     1.080500000000   120.00000000   180.00000000
 H      4   3   2     1.080500000000   120.00000000   180.00000000
 H      5   4   3     1.080500000000   120.00000000   180.00000000
 H      6   1   2     1.080500000000   120.00000000   180.00000000

---------------------------
INTERNAL COORDINATES (A.U.)
---------------------------
 C      0   0   0     0.000000000000     0.00000000     0.00000000
 C      1   0   0    10.175419340712     0.00000000     0.00000000
 C      2   1   0    10.175419340712   120.00000000     0.00000000
 C      3   2   1    10.175419340712   120.00000000     0.00000000
 C      4   3   2    10.175419340712   120.00000000   360.00000000
 C      1   2   3    10.175419340712   120.00000000   360.00000000
 H      1   2   3     2.041849087702   120.00000000   180.00000000
 H      2   1   3     2.041849087702   120.00000000   180.00000000
 H      3   2   1     2.041849087702   120.00000000   180.00000000
 H      4   3   2     2.041849087702   120.00000000   180.00000000
 H      5   4   3     2.041849087702   120.00000000   180.00000000
 H      6   1   2     2.041849087702   120.00000000   180.00000000


Diagonalization of the overlap matrix:
Smallest eigenvalue                        ... 4.492e-02
Time for diagonalization                   ...    0.002 sec
Threshold for overlap eigenvalues          ... 1.000e-08
Number of eigenvalues below threshold      ... 0
Time for construction of square roots      ...    0.000 sec
Total time needed                          ...    0.002 sec

-------------------
DFT GRID GENERATION
-------------------

General Integration Accuracy     IntAcc      ...  4.670
Radial Grid Type                 RadialGrid  ... Gauss-Chebyshev
Angular Grid (max. acc.)         AngularGrid ... Lebedev-302
Angular grid pruning method      GridPruning ... 3 (G Style)
Weight generation scheme         WeightScheme... Becke
Basis function cutoff            BFCut       ...    1.0000e-10
Integration weight cutoff        WCut        ...    1.0000e-14
Grids for H and He will be reduced by one unit

# of grid points (after initial pruning)     ...  57636 (   0.0 sec)
# of grid points (after weights+screening)   ...  56928 (   0.1 sec)
nearest neighbour list constructed           ...    0.0 sec
Grid point re-assignment to atoms done       ...    0.0 sec
Grid point division into batches done        ...    0.2 sec
Reduced shell lists constructed in    0.3 sec

Total number of grid points                  ...    56928
Total number of batches                      ...      894
Average number of points per batch           ...       63
Average number of grid points per atom       ...     4744
Average number of shells per batch           ...    11.63 (24.23%)
Average number of basis functions per batch  ...    22.55 (23.49%)
Average number of large shells per batch     ...     7.60 (65.39%)
Average number of large basis fcns per batch ...    15.26 (67.69%)
Maximum spatial batch extension              ...  20.12, 20.10, 26.79 au
Average spatial batch extension              ...   3.46,  3.39,  3.91 au

Time for grid setup =    0.442 sec

--------------
SCF ITERATIONS
--------------
ITER       Energy         Delta-E        Max-DP      RMS-DP      [F,P]   Gradient Norm
               ***  Starting incremental Fock matrix formation  ***
                             ****Resetting KDIIS****
                             ****Turning on KDIIS(Cayley)****
  0   -229.7409702099   0.000000000000 0.00005244  0.00000431  0.0005192   0.000236422
                          ***Energy convergence achieved***
  1   -229.7409710528  -0.000000842839 0.00011301  0.00000914  0.0004715   0.000216519
  2   -229.7409726403  -0.000001587479 0.00021170  0.00001786  0.0003851   0.000188946
  3   -229.7409754937  -0.000002853458 0.00040636  0.00002885  0.0003099   0.000154256
                          ***Energy convergence achieved***
  4   -229.7409758940  -0.000000400302 0.00019961  0.00000819  0.0002696   0.000143125
  5   -229.7409766274  -0.000000733333 0.00031751  0.00001954  0.0002759   0.000085087
  6   -229.7409785121  -0.000001884696 0.00056470  0.00003183  0.0003218   0.000102804
  7   -229.7409753507   0.000003161342 0.00046867  0.00002665  0.0002315   0.000130779
                          ***Energy convergence achieved***
  8   -229.7409745711   0.000000779638 0.00020659  0.00001402  0.0001965   0.000072259
  9   -229.7409756326  -0.000001061502 0.00013337  0.00001297  0.0002075   0.000092638
                          ***Energy convergence achieved***
 10   -229.7409750609   0.000000571719 0.00020339  0.00000886  0.0001780   0.000108942
 11   -229.7409758068  -0.000000745949 0.00034093  0.00001582  0.0001884   0.000090243
 12   -229.7409749554   0.000000851357 0.00044542  0.00002635  0.0001893   0.000113246
 13   -229.7409743243   0.000000631164 0.00097291  0.00005109  0.0002557   0.000113062
 14   -229.7409775657  -0.000003241397 0.00010381  0.00001018  0.0003398   0.000137168
                          ***Energy convergence achieved***
 15   -229.7409776423  -0.000000076577 0.00011340  0.00000787  0.0003453   0.000155247
 16   -229.7409776122   0.000000030033 0.00089662  0.00005551  0.0003730   0.000152949
 17   -229.7409734351   0.000004177079 0.00011725  0.00000592  0.0001306   0.000074607
                          ***Energy convergence achieved***
 18   -229.7409734609  -0.000000025727 0.00015957  0.00001034  0.0001420   0.000050073
 19   -229.7409738254  -0.000000364556 0.00011133  0.00000787  0.0001959   0.000079346
               *** Restarting incremental Fock matrix formation ***
                             ****Resetting KDIIS****

            ***Energy convergence in two consecutive cycles with***
                    ***'reasonable' density convergence***
                       *** signaling convergence ***

                    *** KDIIS BlockDiag (12.143 sec) ***

               *****************************************************
               *                     SUCCESS                       *
               *           SCF CONVERGED AFTER  20 CYCLES          *
               *****************************************************

Setting up the final grid:

General Integration Accuracy     IntAcc      ...  5.010
Radial Grid Type                 RadialGrid  ... Gauss-Chebyshev
Angular Grid (max. acc.)         AngularGrid ... Lebedev-434
Angular grid pruning method      GridPruning ... 3 (G Style)
Weight generation scheme         WeightScheme... Becke
Basis function cutoff            BFCut       ...    1.0000e-10
Integration weight cutoff        WCut        ...    1.0000e-14
Grids for H and He will be reduced by one unit

# of grid points (after initial pruning)     ... 104340 (   0.0 sec)
# of grid points (after weights+screening)   ... 102964 (   0.1 sec)
nearest neighbour list constructed           ...    0.0 sec
Grid point re-assignment to atoms done       ...    0.0 sec
Grid point division into batches done        ...    0.7 sec
Reduced shell lists constructed in    0.9 sec

Total number of grid points                  ...   102964
Total number of batches                      ...     1614
Average number of points per batch           ...       63
Average number of grid points per atom       ...     8580
Average number of shells per batch           ...    11.12 (23.17%)
Average number of basis functions per batch  ...    21.58 (22.48%)
Average number of large shells per batch     ...     7.24 (65.09%)
Average number of large basis fcns per batch ...    14.65 (67.88%)
Maximum spatial batch extension              ...  20.98, 20.78, 22.90 au
Average spatial batch extension              ...   2.78,  2.82,  3.02 au

Final grid set up in    1.1 sec
Final integration                            ... done (   0.6 sec)
Change in XC energy                          ...    -0.001013609
Integrated number of electrons               ...    41.999999293
Previous integrated no of electrons          ...    42.000000400
Total Energy       :         -229.74198778 Eh           -6251.59731 eV
  Last Energy change         ...   -3.4111e-07  Tolerance :   1.0000e-06
  Last MAX-Density change    ...    2.7132e-05  Tolerance :   1.0000e-05
             **** THE GBW FILE WAS UPDATED (C6H6-C.gbw) ****
             **** DENSITY FILE WAS UPDATED (C6H6-C.scfp) ****
             **** ENERGY FILE WAS UPDATED (C6H6-C.en.tmp) ****
             **** THE GBW FILE WAS UPDATED (C6H6-C.gbw) ****
             **** DENSITY FILE WAS UPDATED (C6H6-C.scfp) ****
Total SCF time: 0 days 0 hours 0 min 13 sec 

-------------------------   --------------------
FINAL SINGLE POINT ENERGY      -229.741987775377
-------------------------   --------------------

Storing actual gbw-file in C6H6-C.046.gbw ... done

                            ***************************************
                            *     ORCA property calculations      *
                            ***************************************

                                    ---------------------
                                    Active property flags
                                    ---------------------
   (+) Dipole Moment


------------------------------------------------------------------------------
                       ORCA ELECTRIC PROPERTIES CALCULATION
------------------------------------------------------------------------------

Dipole Moment Calculation                       ... on
Quadrupole Moment Calculation                   ... off
Polarizability Calculation                      ... off
GBWName                                         ... C6H6-C.gbw
Electron density file                           ... C6H6-C.scfp
The origin for moment calculation is the CENTER OF MASS  = ( 5.087710,  8.812172  0.000000)

-------------
DIPOLE MOMENT
-------------
                                X             Y             Z
Electronic contribution:     -0.00514      -0.00123       0.00000
Nuclear contribution   :     -0.00000      -0.00000       0.00000
                        -----------------------------------------
Total Dipole Moment    :     -0.00514      -0.00123       0.00000
                        -----------------------------------------
Magnitude (a.u.)       :      0.00529
Magnitude (Debye)      :      0.01344



--------------------
Rotational spectrum 
--------------------
 
Rotational constants in cm-1:     0.014394     0.014394     0.007197 
Rotational constants in MHz :   431.530201   431.530201   215.765101 

 Dipole components along the rotational axes: 
x,y,z [a.u.] :     0.004457     0.002848     0.000003 
x,y,z [Debye]:     0.011328     0.007240     0.000009 

 
                              **** TRAJECTORY DONE ***

                         SUMMARY OF THE CALCULATED SURFACE

------------------
TRAJECTORY RESULTS
------------------

Column   1: RC

The Calculated Surface using the 'Actual Energy'
   0.88460000 -227.94730507
   0.98460000 -230.01878152
   1.08460000 -231.18705375
   1.18460000 -231.80714793
   1.28460000 -232.09292380
   1.38460000 -232.17474152
   1.48460000 -232.13359738
   1.58460000 -232.02041280
   1.68460000 -231.86745570
   1.78460000 -231.69533662
   1.88460000 -231.51716042
   1.98460000 -231.34130959
   2.08460000 -231.17339850
   2.18460000 -231.01651950
   2.28460000 -230.87234782
   2.38460000 -230.74181050
   2.48460000 -230.62501083
   2.58460000 -230.52165117
   2.68460000 -230.43085390
   2.78460000 -230.35161753
   2.88460000 -230.28265185
   2.98460000 -230.22251968
   3.08460000 -230.16978596
   3.18460000 -230.12320588
   3.28460000 -230.08173673
   3.38460000 -230.04472642
   3.48460000 -230.01162269
   3.58460000 -229.98176494
   3.68460000 -229.95472803
   3.78460000 -229.93028593
   3.88460000 -229.90821082
   3.98460000 -229.88825722
   4.08460000 -229.87021924
   4.18460000 -229.85391083
   4.28460000 -229.83917483
   4.38460000 -229.82582451
   4.48460000 -229.81372179
   4.58460000 -229.80273718
   4.68460000 -229.79272625
   4.78460000 -229.78358467
   4.88460000 -229.77521551
   4.98460000 -229.76753594
   5.08460000 -229.76044129
   5.18460000 -229.75385354
   5.28460000 -229.74771569
   5.38460000 -229.74198778

The Calculated Surface using the SCF energy
   0.88460000 -227.94730507
   0.98460000 -230.01878152
   1.08460000 -231.18705375
   1.18460000 -231.80714793
   1.28460000 -232.09292380
   1.38460000 -232.17474152
   1.48460000 -232.13359738
   1.58460000 -232.02041280
   1.68460000 -231.86745570
   1.78460000 -231.69533662
   1.88460000 -231.51716042
   1.98460000 -231.34130959
   2.08460000 -231.17339850
   2.18460000 -231.01651950
   2.28460000 -230.87234782
   2.38460000 -230.74181050
   2.48460000 -230.62501083
   2.58460000 -230.52165117
   2.68460000 -230.43085390
   2.78460000 -230.35161753
   2.88460000 -230.28265185
   2.98460000 -230.22251968
   3.08460000 -230.16978596
   3.18460000 -230.12320588
   3.28460000 -230.08173673
   3.38460000 -230.04472642
   3.48460000 -230.01162269
   3.58460000 -229.98176494
   3.68460000 -229.95472803
   3.78460000 -229.93028593
   3.88460000 -229.90821082
   3.98460000 -229.88825722
   4.08460000 -229.87021924
   4.18460000 -229.85391083
   4.28460000 -229.83917483
   4.38460000 -229.82582451
   4.48460000 -229.81372179
   4.58460000 -229.80273718
   4.68460000 -229.79272625
   4.78460000 -229.78358467
   4.88460000 -229.77521551
   4.98460000 -229.76753594
   5.08460000 -229.76044129
   5.18460000 -229.75385354
   5.28460000 -229.74771569
   5.38460000 -229.74198778


Timings for individual modules:

Sum of individual times         ...      663.402 sec (=  11.057 min)
GTO integral calculation        ...       11.458 sec (=   0.191 min)   1.7 %
SCF iterations                  ...      651.944 sec (=  10.866 min)  98.3 %
                             ****ORCA TERMINATED NORMALLY****
TOTAL RUN TIME: 0 days 0 hours 11 minutes 9 seconds 146 msec
