
                                 *****************
                                 * O   R   C   A *
                                 *****************

           --- An Ab Initio, DFT and Semiempirical electronic structure package ---

                  #######################################################
                  #                        -***-                        #
                  #          Department of theory and spectroscopy      #
                  #               Directorship: Frank Neese             #
                  #        Max Planck Institute fuer Kohlenforschung    #
                  #                Kaiser Wilhelm Platz 1               #
                  #                 D-45470 Muelheim/Ruhr               #
                  #                      Germany                        #
                  #                                                     #
                  #                  All rights reserved                #
                  #                        -***-                        #
                  #######################################################


                         Program Version 4.2.0 -  RELEASE  -


 With contributions from (in alphabetic order):
   Daniel Aravena         : Magnetic Suceptibility
   Michael Atanasov       : Ab Initio Ligand Field Theory (pilot matlab implementation)
   Alexander A. Auer      : GIAO ZORA, VPT2
   Ute Becker             : Parallelization
   Giovanni Bistoni       : ED, misc. LED, open-shell LED, HFLED
   Martin Brehm           : Molecular dynamics
   Dmytro Bykov           : SCF Hessian
   Vijay G. Chilkuri      : MRCI spin determinant printing, contributions to CSF-ICE
   Dipayan Datta          : RHF DLPNO-CCSD density
   Achintya Kumar Dutta   : EOM-CC, STEOM-CC
   Dmitry Ganyushin       : Spin-Orbit,Spin-Spin,Magnetic field MRCI
   Miquel Garcia          : C-PCM Hessian, Gaussian charge scheme
   Yang Guo               : DLPNO-NEVPT2, CIM, IAO-localization
   Andreas Hansen         : Spin unrestricted coupled pair/coupled cluster methods
   Benjamin Helmich-Paris : CASSCF linear response (MC-RPA)
   Lee Huntington         : MR-EOM, pCC
   Robert Izsak           : Overlap fitted RIJCOSX, COSX-SCS-MP3, EOM
   Christian Kollmar      : KDIIS, OOCD, Brueckner-CCSD(T), CCSD density
   Simone Kossmann        : Meta GGA functionals, TD-DFT gradient, OOMP2, MP2 Hessian
   Martin Krupicka        : AUTO-CI
   Lucas Lang             : DCDCAS
   Dagmar Lenk            : GEPOL surface, SMD
   Dimitrios Liakos       : Extrapolation schemes; Compound Job, initial MDCI parallelization
   Dimitrios Manganas     : Further ROCIS development; embedding schemes
   Dimitrios Pantazis     : SARC Basis sets
   Taras Petrenko         : DFT Hessian,TD-DFT gradient, ASA, ECA, R-Raman, ABS, FL, XAS/XES, NRVS
   Peter Pinski           : DLPNO-MP2, DLPNO-MP2 Gradient
   Christoph Reimann      : Effective Core Potentials
   Marius Retegan         : Local ZFS, SOC
   Christoph Riplinger    : Optimizer, TS searches, QM/MM, DLPNO-CCSD(T), (RO)-DLPNO pert. Triples
   Tobias Risthaus        : Range-separated hybrids, TD-DFT gradient, RPA, STAB
   Michael Roemelt        : Original ROCIS implementation
   Masaaki Saitow         : Open-shell DLPNO-CCSD energy and density
   Barbara Sandhoefer     : DKH picture change effects
   Avijit Sen             : IP-ROCIS
   Kantharuban Sivalingam : CASSCF convergence, NEVPT2, FIC-MRCI
   Bernardo de Souza      : ESD, SOC TD-DFT
   Georgi Stoychev        : AutoAux, RI-MP2 NMR
   Willem Van den Heuvel  : Paramagnetic NMR
   Boris Wezisla          : Elementary symmetry handling
   Frank Wennmohs         : Technical directorship


 We gratefully acknowledge several colleagues who have allowed us to
 interface, adapt or use parts of their codes:
   Stefan Grimme, W. Hujo, H. Kruse,             : VdW corrections, initial TS optimization,
                  C. Bannwarth                     DFT functionals, gCP, sTDA/sTD-DF
   Ed Valeev, F. Pavosevic, A. Kumar             : LibInt (2-el integral package), F12 methods
   Garnet Chan, S. Sharma, J. Yang, R. Olivares  : DMRG
   Ulf Ekstrom                                   : XCFun DFT Library
   Mihaly Kallay                                 : mrcc  (arbitrary order and MRCC methods)
   Andreas Klamt, Michael Diedenhofen            : otool_cosmo (COSMO solvation model)
   Jiri Pittner, Ondrej Demel                    : Mk-CCSD
   Frank Weinhold                                : gennbo (NPA and NBO analysis)
   Christopher J. Cramer and Donald G. Truhlar   : smd solvation model
   Lars Goerigk                                  : TD-DFT with DH, B97 family of functionals
   V. Asgeirsson, H. Jonsson                     : NEB implementation
   FAccTs GmbH                                   : IRC, NEB, NEB-TS, Multilevel, MM, QM/MM, CI optimization
   S Lehtola, MJT Oliveira, MAL Marques          : LibXC Library


 Your calculation uses the libint2 library for the computation of 2-el integrals
 For citations please refer to: http://libint.valeyev.net

 Your ORCA version has been built with support for libXC version: 4.2.3
 For citations please refer to: https://tddft.org/programs/libxc/

 This ORCA versions uses:
   CBLAS   interface :  Fast vector & matrix operations
   LAPACKE interface :  Fast linear algebra routines
   SCALAPACK package :  Parallel linear algebra routines


XCFun DFT library Copyright 2009-2010 Ulf Ekstrom and contributors.
See http://admol.org/xcfun for more information. This is free soft-
ware; see the source code for copying conditions. There is ABSOLUTELY
NO WARRANTY; not even for MERCHANTABILITY or FITNESS FOR A PARTICULAR
PURPOSE. For details see the documentation. Scientific users of this 
library should cite U. Ekstrom, L. Visscher, R. Bast, A. J. Thorvald-
sen and K. Ruud; J.Chem.Theor.Comp. 2010, DOI: 10.1021/ct100117s
XCFun Version 0.99 
----- Orbital basis set information -----
Your calculation utilizes the basis: 6-31G(d)
   H-He, Li-Ne : W. J. Hehre, R. Ditchfield and J.A. Pople, J. Chem. Phys. 56, 2257 (1972).
                 Note: He and Ne are unpublished basis sets taken from the Gaussian program.
                 Note: Li and B from J. D. Dill and J. A. Pople, J. Chem. Phys. 62, 2921 (1975).
   Na - Ar     : M. M. Francl, W. J. Pietro, W. J. Hehre, J. S. Binkley, M. S. Gordon, 
                 D. J. DeFrees and J. A. Pople, J. Chem. Phys. 77, 3654 (1982).
   K - Zn      : V. A. Rassolov, J. A. Pople, M. A. Ratner, and T. L. Windus, J. Chem. Phys. 109, 1223 (1998).

================================================================================
                                        WARNINGS
                       Please study these warnings very carefully!
================================================================================


INFO   : the flag for use of LIBINT has been found!

================================================================================
                                       INPUT FILE
================================================================================
NAME = CH3OH.inp
|  1> ! wB97X 6-31G(d) KDIIS NOSOSCF VerySlowConv Grid4
|  2> %paras
|  3> R= 0.9062,5.4062,46
|  4> end
|  5> * int 0  1
|  6> C 0 0 0 0 0 0
|  7> O 1 0 0 {R} 0 0
|  8> H 1 2 0 1.0955 111.71 0
|  9> H 1 2 3 1.0955 111.71 237.63
| 10> H 1 2 3 1.0884 106.53 118.82
| 11> H 2 1 3 0.9629 109.10  61.18
| 12> *
| 13> 
| 14>                          ****END OF INPUT****
================================================================================

                       ******************************
                       * Parameter Scan Calculation *
                       ******************************

Trajectory settings:
    -> SCF surface will be mapped

There are 1 parameter(s) to be scanned
             R: range=   0.90620000 ..   5.40620000  steps=   46
There will be   46 energy evaluations


         *************************************************************
                                TRAJECTORY STEP   1
                  R  :   0.90620000
         *************************************************************
---------------------------------
CARTESIAN COORDINATES (ANGSTROEM)
---------------------------------
  C      0.000000    0.000000    0.000000
  O      0.906200    0.000000    0.000000
  H     -0.405235    1.017794    0.000000
  H     -0.405235   -0.544911    0.859637
  H     -0.309669   -0.502989   -0.914178
  H      1.221278    0.438622    0.797191

----------------------------
CARTESIAN COORDINATES (A.U.)
----------------------------
  NO LB      ZA    FRAG     MASS         X           Y           Z
   0 C     6.0000    0    12.011    0.000000    0.000000    0.000000
   1 O     8.0000    0    15.999    1.712470    0.000000    0.000000
   2 H     1.0000    0     1.008   -0.765784    1.923352    0.000000
   3 H     1.0000    0     1.008   -0.765784   -1.029733    1.624479
   4 H     1.0000    0     1.008   -0.585189   -0.950512   -1.727546
   5 H     1.0000    0     1.008    2.307881    0.828875    1.506472

--------------------------------
INTERNAL COORDINATES (ANGSTROEM)
--------------------------------
 C      0   0   0     0.000000000000     0.00000000     0.00000000
 O      1   0   0     0.906200000000     0.00000000     0.00000000
 H      1   2   0     1.095500000000   111.71000000     0.00000000
 H      1   2   3     1.095500000000   111.71000000   237.63000000
 H      1   2   3     1.088400000000   106.53000000   118.82000000
 H      2   1   3     0.962900000000   109.10000000    61.18000000

---------------------------
INTERNAL COORDINATES (A.U.)
---------------------------
 C      0   0   0     0.000000000000     0.00000000     0.00000000
 O      1   0   0     1.712469822559     0.00000000     0.00000000
 H      1   2   0     2.070194979711   111.71000000     0.00000000
 H      1   2   3     2.070194979711   111.71000000   237.63000000
 H      1   2   3     2.056777924160   106.53000000   118.82000000
 H      2   1   3     1.819617294353   109.10000000    61.18000000

---------------------
BASIS SET INFORMATION
---------------------
There are 3 groups of distinct atoms

 Group   1 Type C   : 10s4p1d contracted to 3s2p1d pattern {631/31/1}
 Group   2 Type O   : 10s4p1d contracted to 3s2p1d pattern {631/31/1}
 Group   3 Type H   : 4s contracted to 2s pattern {31}

Atom   0C    basis set group =>   1
Atom   1O    basis set group =>   2
Atom   2H    basis set group =>   3
Atom   3H    basis set group =>   3
Atom   4H    basis set group =>   3
Atom   5H    basis set group =>   3
------------------------------------------------------------------------------
                           ORCA GTO INTEGRAL CALCULATION
------------------------------------------------------------------------------

                         BASIS SET STATISTICS AND STARTUP INFO

 # of primitive gaussian shells          ...   46
 # of primitive gaussian functions       ...   70
 # of contracted shells                  ...   20
 # of contracted basis functions         ...   36
 Highest angular momentum                ...    2
 Maximum contraction depth               ...    6
 Integral package used                   ... LIBINT
 Integral threshhold            Thresh   ...  1.000e-10
 Primitive cut-off              TCut     ...  1.000e-11


------------------------------ INTEGRAL EVALUATION ----------------------------


 * One electron integrals 
 Pre-screening matrix                    ... done
 Shell pair data                         ... done (   0.000 sec)

-------------------------------------------------------------------------------
                                 ORCA SCF
-------------------------------------------------------------------------------

------------
SCF SETTINGS
------------
Hamiltonian:
 Density Functional     Method          .... DFT(GTOs)
 Exchange Functional    Exchange        .... WB97X
 Correlation Functional Correlation     .... WB97X
 Gradients option       PostSCFGGA      .... off
 Hybrid DFT is turned on
   Fraction HF Exchange ScalHFX         ....  0.157706
   Scaling of DF-GGA-X  ScalDFX         ....  0.000000
   Scaling of DF-GGA-C  ScalDFC         ....  1.000000
   Scaling of DF-LDA-C  ScalLDAC        ....  1.000000
   Perturbative correction              ....  0.000000
   Density functional embedding theory  .... OFF
 Long-range corrected/Screened/Range-Separated Hybrid DFT is turned on
   Amount of maximum screened exact exchange              ....  0.842294
   Range separation parameter mu (erf(mu*r12)/r12)        ....  0.300000


General Settings:
 Integral files         IntName         .... CH3OH
 Hartree-Fock type      HFTyp           .... RHF
 Total Charge           Charge          ....    0
 Multiplicity           Mult            ....    1
 Number of Electrons    NEL             ....   18
 Basis Dimension        Dim             ....   36
 Nuclear Repulsion      ENuc            ....     52.6293970317 Eh

Convergence Acceleration:
 DIIS                   CNVDIIS         .... on
   Start iteration      DIISMaxIt       ....     0
   Startup error        DIISStart       ....  0.200000
   # of expansion vecs  DIISMaxEq       ....     5
   Bias factor          DIISBfac        ....   1.050
   Max. coefficient     DIISMaxC        ....  10.000
 Newton-Raphson         CNVNR           .... off
 SOSCF                  CNVSOSCF        .... off
 Level Shifting         CNVShift        .... off
 Zerner damping         CNVZerner       .... off
 Static damping         CNVDamp         .... off
 Fernandez-Rico         CNVRico         .... off

SCF Procedure:
 Maximum # iterations   MaxIter         ....   125
 SCF integral mode      SCFMode         .... Direct
   Integral package                     .... LIBINT
 Reset frequency        DirectResetFreq ....    20
 Integral Threshold     Thresh          ....  1.000e-10 Eh
 Primitive CutOff       TCut            ....  1.000e-11 Eh

Convergence Tolerance:
 Convergence Check Mode ConvCheckMode   .... All-Criteria
 Convergence forced     ConvForced      .... 0
 Energy Change          TolE            ....  1.000e-06 Eh
 Max Density Change     TolMaxP         ....  1.000e-05
 RMS Density Change     TolRMSP         ....  1.000e-06
 DIIS Error             TolErr          ....  1.000e-06


Diagonalization of the overlap matrix:
Smallest eigenvalue                        ... 5.339e-03
Time for diagonalization                   ...    0.001 sec
Threshold for overlap eigenvalues          ... 1.000e-08
Number of eigenvalues below threshold      ... 0
Time for construction of square roots      ...    0.000 sec
Total time needed                          ...    0.001 sec

-------------------
DFT GRID GENERATION
-------------------

General Integration Accuracy     IntAcc      ...  4.670
Radial Grid Type                 RadialGrid  ... Gauss-Chebyshev
Angular Grid (max. acc.)         AngularGrid ... Lebedev-302
Angular grid pruning method      GridPruning ... 3 (G Style)
Weight generation scheme         WeightScheme... Becke
Basis function cutoff            BFCut       ...    1.0000e-10
Integration weight cutoff        WCut        ...    1.0000e-14
Grids for H and He will be reduced by one unit

# of grid points (after initial pruning)     ...  26000 (   0.0 sec)
# of grid points (after weights+screening)   ...  25067 (   0.0 sec)
nearest neighbour list constructed           ...    0.0 sec
Grid point re-assignment to atoms done       ...    0.0 sec
Grid point division into batches done        ...    0.1 sec
Reduced shell lists constructed in    0.1 sec

Total number of grid points                  ...    25067
Total number of batches                      ...      394
Average number of points per batch           ...       63
Average number of grid points per atom       ...     4178
Average number of shells per batch           ...    16.51 (82.53%)
Average number of basis functions per batch  ...    30.12 (83.66%)
Average number of large shells per batch     ...    15.26 (92.47%)
Average number of large basis fcns per batch ...    28.16 (93.52%)
Maximum spatial batch extension              ...  18.35, 19.28, 18.55 au
Average spatial batch extension              ...   3.07,  3.11,  3.01 au

Time for grid setup =    0.145 sec

------------------------------
INITIAL GUESS: MODEL POTENTIAL
------------------------------
Loading Hartree-Fock densities                     ... done
Calculating cut-offs                               ... done
Setting up the integral package                    ... done
Initializing the effective Hamiltonian             ... done
Starting the Coulomb interaction                   ... done (   0.0 sec)
Reading the grid                                   ... done
Mapping shells                                     ... done
Starting the XC term evaluation                    ... done (   0.1 sec)
  promolecular density results
     # of electrons  =     17.998084485
     EX              =    -14.716443711
     EC              =     -0.604277750
     EX+EC           =    -15.320721462
Transforming the Hamiltonian                       ... done (   0.0 sec)
Diagonalizing the Hamiltonian                      ... done (   0.0 sec)
Back transforming the eigenvectors                 ... done (   0.0 sec)
Now organizing SCF variables                       ... done
                      ------------------
                      INITIAL GUESS DONE (   0.3 sec)
                      ------------------
--------------
SCF ITERATIONS
--------------
ITER       Energy         Delta-E        Max-DP      RMS-DP      [F,P]   Gradient Norm
               ***  Starting incremental Fock matrix formation  ***
                             ****Resetting KDIIS****
                             ****Turning on KDIIS(Cayley)****
  0   -114.9039365943   0.000000000000 0.04757423  0.00380560  0.1503820   0.169461155
  1   -114.9820628265  -0.078126232199 0.03375361  0.00309945  0.1163434   0.134967923
  2   -115.0272299249  -0.045167098441 0.05388071  0.00527286  0.0959126   0.110532597
  3   -115.0824802345  -0.055250309552 0.08711832  0.00837613  0.0642361   0.069935871
  4   -115.1189891552  -0.036508920712 0.00241695  0.00023460  0.0089223   0.006438409
  5   -115.1191566191  -0.000167463960 0.01710151  0.00146453  0.0075147   0.005310223
  6   -115.1194546320  -0.000298012915 0.00300072  0.00031901  0.0025552   0.002056609
  7   -115.1194998309  -0.000045198840 0.00056570  0.00006605  0.0002723   0.000292927
  8   -115.1195008716  -0.000001040668 0.00011634  0.00001198  0.0000321   0.000023139
                          ***Energy convergence achieved***
  9   -115.1195008843  -0.000000012768 0.00001901  0.00000237  0.0000071   0.000007096

            ***Energy convergence in two consecutive cycles with***
                    ***'reasonable' density convergence***
                       *** signaling convergence ***

                    *** KDIIS BlockDiag ( 3.905 sec) ***

               *****************************************************
               *                     SUCCESS                       *
               *           SCF CONVERGED AFTER  10 CYCLES          *
               *****************************************************

Setting up the final grid:

General Integration Accuracy     IntAcc      ...  5.010
Radial Grid Type                 RadialGrid  ... Gauss-Chebyshev
Angular Grid (max. acc.)         AngularGrid ... Lebedev-434
Angular grid pruning method      GridPruning ... 3 (G Style)
Weight generation scheme         WeightScheme... Becke
Basis function cutoff            BFCut       ...    1.0000e-10
Integration weight cutoff        WCut        ...    1.0000e-14
Grids for H and He will be reduced by one unit

# of grid points (after initial pruning)     ...  48308 (   0.0 sec)
# of grid points (after weights+screening)   ...  46484 (   0.0 sec)
nearest neighbour list constructed           ...    0.0 sec
Grid point re-assignment to atoms done       ...    0.0 sec
Grid point division into batches done        ...    0.3 sec
Reduced shell lists constructed in    0.4 sec

Total number of grid points                  ...    46484
Total number of batches                      ...      730
Average number of points per batch           ...       63
Average number of grid points per atom       ...     7747
Average number of shells per batch           ...    16.26 (81.29%)
Average number of basis functions per batch  ...    29.66 (82.38%)
Average number of large shells per batch     ...    14.92 (91.79%)
Average number of large basis fcns per batch ...    27.50 (92.74%)
Maximum spatial batch extension              ...  19.91, 17.16, 19.88 au
Average spatial batch extension              ...   2.43,  2.46,  2.37 au

Final grid set up in    0.4 sec
Final integration                            ... done (   0.3 sec)
Change in XC energy                          ...    -0.000296732
Integrated number of electrons               ...    17.999994883
Previous integrated no of electrons          ...    17.999973431

----------------
TOTAL SCF ENERGY
----------------

Total Energy       :         -115.11979762 Eh           -3132.56895 eV

Components:
Nuclear Repulsion  :           52.62939703 Eh            1432.11870 eV
Electronic Energy  :         -167.74919465 Eh           -4564.68765 eV
One Electron Energy:         -259.00704956 Eh           -7047.94013 eV
Two Electron Energy:           91.25785491 Eh            2483.25248 eV

Virial components:
Potential Energy   :         -233.11580528 Eh           -6343.40355 eV
Kinetic Energy     :          117.99600767 Eh            3210.83460 eV
Virial Ratio       :            1.97562451


DFT components:
N(Alpha)           :        8.999997441490 electrons
N(Beta)            :        8.999997441490 electrons
N(Total)           :       17.999994882980 electrons
E(XC)              :      -11.149769850382 Eh       
DFET-embed. en.    :        0.000000000000 Eh       

---------------
SCF CONVERGENCE
---------------

  Last Energy change         ...   -1.0285e-09  Tolerance :   1.0000e-06
  Last MAX-Density change    ...    1.2113e-05  Tolerance :   1.0000e-05
  Last RMS-Density change    ...    1.1024e-06  Tolerance :   1.0000e-06
  Last DIIS Error            ...    3.3108e-06  Tolerance :   1.0000e-06

             **** THE GBW FILE WAS UPDATED (CH3OH.gbw) ****
             **** DENSITY FILE WAS UPDATED (CH3OH.scfp) ****
             **** ENERGY FILE WAS UPDATED (CH3OH.en.tmp) ****
             **** THE GBW FILE WAS UPDATED (CH3OH.gbw) ****
             **** DENSITY FILE WAS UPDATED (CH3OH.scfp) ****
----------------
ORBITAL ENERGIES
----------------

  NO   OCC          E(Eh)            E(eV) 
   0   2.0000     -19.233160      -523.3609 
   1   2.0000     -10.295470      -280.1540 
   2   2.0000      -1.425883       -38.8003 
   3   2.0000      -0.855023       -23.2664 
   4   2.0000      -0.720092       -19.5947 
   5   2.0000      -0.713111       -19.4047 
   6   2.0000      -0.650182       -17.6923 
   7   2.0000      -0.359082        -9.7711 
   8   2.0000      -0.307376        -8.3641 
   9   0.0000       0.140016         3.8100 
  10   0.0000       0.242791         6.6067 
  11   0.0000       0.305728         8.3193 
  12   0.0000       0.317864         8.6495 
  13   0.0000       0.383977        10.4485 
  14   0.0000       0.621921        16.9233 
  15   0.0000       0.626367        17.0443 
  16   0.0000       0.831617        22.6294 
  17   0.0000       0.933784        25.4096 
  18   0.0000       0.951764        25.8988 
  19   0.0000       1.017634        27.6912 
  20   0.0000       1.051626        28.6162 
  21   0.0000       1.102929        30.0122 
  22   0.0000       1.145312        31.1655 
  23   0.0000       1.195703        32.5367 
  24   0.0000       1.496200        40.7137 
  25   0.0000       1.635329        44.4996 
  26   0.0000       1.741442        47.3870 
  27   0.0000       1.895912        51.5904 
  28   0.0000       1.924766        52.3755 
  29   0.0000       2.103099        57.2282 
  30   0.0000       2.497175        67.9516 
  31   0.0000       2.769131        75.3519 
  32   0.0000       2.930964        79.7556 
  33   0.0000       2.973350        80.9090 
  34   0.0000       3.206220        87.2457 
  35   0.0000       3.937497       107.1448 

                    ********************************
                    * MULLIKEN POPULATION ANALYSIS *
                    ********************************

-----------------------
MULLIKEN ATOMIC CHARGES
-----------------------
   0 C :   -0.312957
   1 O :   -0.122625
   2 H :   -0.020568
   3 H :   -0.020569
   4 H :    0.064181
   5 H :    0.412538
Sum of atomic charges:   -0.0000000

--------------------------------
MULLIKEN REDUCED ORBITAL CHARGES
--------------------------------
  0 C s       :     3.168431  s :     3.168431
      pz      :     1.061259  p :     2.980811
      px      :     0.912099
      py      :     1.007453
      dz2     :     0.015624  d :     0.163715
      dxz     :     0.051955
      dyz     :     0.010394
      dx2y2   :     0.023314
      dxy     :     0.062427
  1 O s       :     3.548020  s :     3.548020
      pz      :     1.480526  p :     4.517086
      px      :     1.386058
      py      :     1.650502
      dz2     :     0.007428  d :     0.057520
      dxz     :     0.020396
      dyz     :     0.008208
      dx2y2   :     0.005227
      dxy     :     0.016261
  2 H s       :     1.020568  s :     1.020568
  3 H s       :     1.020569  s :     1.020569
  4 H s       :     0.935819  s :     0.935819
  5 H s       :     0.587462  s :     0.587462


                     *******************************
                     * LOEWDIN POPULATION ANALYSIS *
                     *******************************

----------------------
LOEWDIN ATOMIC CHARGES
----------------------
   0 C :   -0.378138
   1 O :   -0.034186
   2 H :   -0.000299
   3 H :   -0.000294
   4 H :    0.075744
   5 H :    0.337174

-------------------------------
LOEWDIN REDUCED ORBITAL CHARGES
-------------------------------
  0 C s       :     2.808732  s :     2.808732
      pz      :     1.024948  p :     3.127042
      px      :     1.089145
      py      :     1.012949
      dz2     :     0.033170  d :     0.442364
      dxz     :     0.152429
      dyz     :     0.018187
      dx2y2   :     0.058363
      dxy     :     0.180214
  1 O s       :     3.228918  s :     3.228918
      pz      :     1.432974  p :     4.600173
      px      :     1.576481
      py      :     1.590718
      dz2     :     0.020586  d :     0.205095
      dxz     :     0.074289
      dyz     :     0.011516
      dx2y2   :     0.037341
      dxy     :     0.061363
  2 H s       :     1.000299  s :     1.000299
  3 H s       :     1.000294  s :     1.000294
  4 H s       :     0.924256  s :     0.924256
  5 H s       :     0.662826  s :     0.662826


                      *****************************
                      * MAYER POPULATION ANALYSIS *
                      *****************************

  NA   - Mulliken gross atomic population
  ZA   - Total nuclear charge
  QA   - Mulliken gross atomic charge
  VA   - Mayer's total valence
  BVA  - Mayer's bonded valence
  FA   - Mayer's free valence

  ATOM       NA         ZA         QA         VA         BVA        FA
  0 C      6.3130     6.0000    -0.3130     4.1687     4.1687    -0.0000
  1 O      8.1226     8.0000    -0.1226     2.2361     2.2361    -0.0000
  2 H      1.0206     1.0000    -0.0206     0.9293     0.9293    -0.0000
  3 H      1.0206     1.0000    -0.0206     0.9293     0.9293     0.0000
  4 H      0.9358     1.0000     0.0642     0.9401     0.9401    -0.0000
  5 H      0.5875     1.0000     0.4125     0.7755     0.7755     0.0000

  Mayer bond orders larger than 0.100000
B(  0-C ,  1-O ) :   1.4341 B(  0-C ,  2-H ) :   0.9300 B(  0-C ,  3-H ) :   0.9300 
B(  0-C ,  4-H ) :   0.9010 B(  1-O ,  5-H ) :   0.7537 

-------
TIMINGS
-------

Total SCF time: 0 days 0 hours 0 min 4 sec 

Total time                  ....       4.628 sec
Sum of individual times     ....       4.478 sec  ( 96.8%)

Fock matrix formation       ....       3.759 sec  ( 81.2%)
  XC integration            ....       2.191 sec  ( 58.3% of F)
    Basis function eval.    ....       0.532 sec  ( 24.3% of XC)
    Density eval.           ....       0.165 sec  (  7.5% of XC)
    XC-Functional eval.     ....       1.249 sec  ( 57.0% of XC)
    XC-Potential eval.      ....       0.162 sec  (  7.4% of XC)
Diagonalization             ....       0.004 sec  (  0.1%)
Density matrix formation    ....       0.000 sec  (  0.0%)
Population analysis         ....       0.001 sec  (  0.0%)
Initial guess               ....       0.164 sec  (  3.6%)
Orbital Transformation      ....       0.000 sec  (  0.0%)
Orbital Orthonormalization  ....       0.000 sec  (  0.0%)
DIIS solution               ....       0.000 sec  (  0.0%)
Grid generation             ....       0.551 sec  ( 11.9%)

-------------------------   --------------------
FINAL SINGLE POINT ENERGY      -115.119797617456
-------------------------   --------------------

Storing actual gbw-file in CH3OH.001.gbw ... done

                            ***************************************
                            *     ORCA property calculations      *
                            ***************************************

                                    ---------------------
                                    Active property flags
                                    ---------------------
   (+) Dipole Moment


------------------------------------------------------------------------------
                       ORCA ELECTRIC PROPERTIES CALCULATION
------------------------------------------------------------------------------

Dipole Moment Calculation                       ... on
Quadrupole Moment Calculation                   ... off
Polarizability Calculation                      ... off
GBWName                                         ... CH3OH.gbw
Electron density file                           ... CH3OH.scfp
The origin for moment calculation is the CENTER OF MASS  = ( 0.861072,  0.024286  0.044149)

-------------
DIPOLE MOMENT
-------------
                                X             Y             Z
Electronic contribution:      2.27785      -0.08850      -0.16099
Nuclear contribution   :     -1.60841       0.33484       0.60872
                        -----------------------------------------
Total Dipole Moment    :      0.66944       0.24634       0.44773
                        -----------------------------------------
Magnitude (a.u.)       :      0.84220
Magnitude (Debye)      :      2.14069



--------------------
Rotational spectrum 
--------------------
 
Rotational constants in cm-1:     4.292772     1.670629     1.559289 
Rotational constants in MHz : 128694.054931 50084.196940 46746.311799 

 Dipole components along the rotational axes: 
x,y,z [a.u.] :     0.720277     0.436457     0.000069 
x,y,z [Debye]:     1.830800     1.109385     0.000175 

 

         *************************************************************
                                TRAJECTORY STEP   2
                  R  :   1.00620000
         *************************************************************
---------------------------------
CARTESIAN COORDINATES (ANGSTROEM)
---------------------------------
  C      0.000000    0.000000    0.000000
  O      1.006200    0.000000    0.000000
  H     -0.405235    1.017794    0.000000
  H     -0.405235   -0.544911    0.859637
  H     -0.309669   -0.502989   -0.914178
  H      1.321278    0.438622    0.797191

----------------------------
CARTESIAN COORDINATES (A.U.)
----------------------------
  NO LB      ZA    FRAG     MASS         X           Y           Z
   0 C     6.0000    0    12.011    0.000000    0.000000    0.000000
   1 O     8.0000    0    15.999    1.901442    0.000000    0.000000
   2 H     1.0000    0     1.008   -0.765784    1.923352    0.000000
   3 H     1.0000    0     1.008   -0.765784   -1.029733    1.624479
   4 H     1.0000    0     1.008   -0.585189   -0.950512   -1.727546
   5 H     1.0000    0     1.008    2.496854    0.828875    1.506472

--------------------------------
INTERNAL COORDINATES (ANGSTROEM)
--------------------------------
 C      0   0   0     0.000000000000     0.00000000     0.00000000
 O      1   0   0     1.006200000000     0.00000000     0.00000000
 H      1   2   0     1.095500000000   111.71000000     0.00000000
 H      1   2   3     1.095500000000   111.71000000   237.63000000
 H      1   2   3     1.088400000000   106.53000000   118.82000000
 H      2   1   3     0.962900000000   109.10000000    61.18000000

---------------------------
INTERNAL COORDINATES (A.U.)
---------------------------
 C      0   0   0     0.000000000000     0.00000000     0.00000000
 O      1   0   0     1.901442435952     0.00000000     0.00000000
 H      1   2   0     2.070194979711   111.71000000     0.00000000
 H      1   2   3     2.070194979711   111.71000000   237.63000000
 H      1   2   3     2.056777924160   106.53000000   118.82000000
 H      2   1   3     1.819617294353   109.10000000    61.18000000


Diagonalization of the overlap matrix:
Smallest eigenvalue                        ... 6.648e-03
Time for diagonalization                   ...    0.001 sec
Threshold for overlap eigenvalues          ... 1.000e-08
Number of eigenvalues below threshold      ... 0
Time for construction of square roots      ...    0.000 sec
Total time needed                          ...    0.001 sec

-------------------
DFT GRID GENERATION
-------------------

General Integration Accuracy     IntAcc      ...  4.670
Radial Grid Type                 RadialGrid  ... Gauss-Chebyshev
Angular Grid (max. acc.)         AngularGrid ... Lebedev-302
Angular grid pruning method      GridPruning ... 3 (G Style)
Weight generation scheme         WeightScheme... Becke
Basis function cutoff            BFCut       ...    1.0000e-10
Integration weight cutoff        WCut        ...    1.0000e-14
Grids for H and He will be reduced by one unit

# of grid points (after initial pruning)     ...  26000 (   0.0 sec)
# of grid points (after weights+screening)   ...  25085 (   0.0 sec)
nearest neighbour list constructed           ...    0.0 sec
Grid point re-assignment to atoms done       ...    0.0 sec
Grid point division into batches done        ...    0.1 sec
Reduced shell lists constructed in    0.1 sec

Total number of grid points                  ...    25085
Total number of batches                      ...      395
Average number of points per batch           ...       63
Average number of grid points per atom       ...     4181
Average number of shells per batch           ...    16.50 (82.50%)
Average number of basis functions per batch  ...    30.13 (83.68%)
Average number of large shells per batch     ...    15.19 (92.07%)
Average number of large basis fcns per batch ...    28.07 (93.16%)
Maximum spatial batch extension              ...  18.86, 18.86, 18.55 au
Average spatial batch extension              ...   3.11,  3.11,  3.02 au

Time for grid setup =    0.145 sec

--------------
SCF ITERATIONS
--------------
ITER       Energy         Delta-E        Max-DP      RMS-DP      [F,P]   Gradient Norm
               ***  Starting incremental Fock matrix formation  ***
                             ****Resetting KDIIS****
                             ****Turning on KDIIS(Cayley)****
  0   -115.3865639684   0.000000000000 0.00703989  0.00062531  0.0313936   0.036863968
  1   -115.3889800394  -0.002416071001 0.01356167  0.00126547  0.0280866   0.033159748
  2   -115.3928332543  -0.003853214926 0.02369618  0.00211784  0.0235389   0.027210932
  3   -115.3978722344  -0.005038980126 0.03678743  0.00320411  0.0141907   0.016346009
  4   -115.4007759651  -0.002903730697 0.00077033  0.00007906  0.0002895   0.000262833
                          ***Energy convergence achieved***
  5   -115.4007769056  -0.000000940496 0.00019316  0.00001639  0.0000444   0.000044690

            ***Energy convergence in two consecutive cycles with***
                    ***'reasonable' density convergence***
                       *** signaling convergence ***

                    *** KDIIS BlockDiag ( 2.483 sec) ***

               *****************************************************
               *                     SUCCESS                       *
               *           SCF CONVERGED AFTER   6 CYCLES          *
               *****************************************************

Setting up the final grid:

General Integration Accuracy     IntAcc      ...  5.010
Radial Grid Type                 RadialGrid  ... Gauss-Chebyshev
Angular Grid (max. acc.)         AngularGrid ... Lebedev-434
Angular grid pruning method      GridPruning ... 3 (G Style)
Weight generation scheme         WeightScheme... Becke
Basis function cutoff            BFCut       ...    1.0000e-10
Integration weight cutoff        WCut        ...    1.0000e-14
Grids for H and He will be reduced by one unit

# of grid points (after initial pruning)     ...  48308 (   0.0 sec)
# of grid points (after weights+screening)   ...  46519 (   0.0 sec)
nearest neighbour list constructed           ...    0.0 sec
Grid point re-assignment to atoms done       ...    0.0 sec
Grid point division into batches done        ...    0.3 sec
Reduced shell lists constructed in    0.4 sec

Total number of grid points                  ...    46519
Total number of batches                      ...      730
Average number of points per batch           ...       63
Average number of grid points per atom       ...     7753
Average number of shells per batch           ...    16.19 (80.97%)
Average number of basis functions per batch  ...    29.59 (82.19%)
Average number of large shells per batch     ...    14.83 (91.60%)
Average number of large basis fcns per batch ...    27.40 (92.60%)
Maximum spatial batch extension              ...  19.91, 17.16, 19.88 au
Average spatial batch extension              ...   2.46,  2.48,  2.40 au

Final grid set up in    0.4 sec
Final integration                            ... done (   0.3 sec)
Change in XC energy                          ...    -0.000298995
Integrated number of electrons               ...    17.999999594
Previous integrated no of electrons          ...    17.999956286
Total Energy       :         -115.40107593 Eh           -3140.22292 eV
  Last Energy change         ...   -2.9259e-08  Tolerance :   1.0000e-06
  Last MAX-Density change    ...    2.9179e-05  Tolerance :   1.0000e-05
             **** THE GBW FILE WAS UPDATED (CH3OH.gbw) ****
             **** DENSITY FILE WAS UPDATED (CH3OH.scfp) ****
             **** ENERGY FILE WAS UPDATED (CH3OH.en.tmp) ****
             **** THE GBW FILE WAS UPDATED (CH3OH.gbw) ****
             **** DENSITY FILE WAS UPDATED (CH3OH.scfp) ****
Total SCF time: 0 days 0 hours 0 min 3 sec 

-------------------------   --------------------
FINAL SINGLE POINT ENERGY      -115.401075929394
-------------------------   --------------------

Storing actual gbw-file in CH3OH.002.gbw ... done

                            ***************************************
                            *     ORCA property calculations      *
                            ***************************************

                                    ---------------------
                                    Active property flags
                                    ---------------------
   (+) Dipole Moment


------------------------------------------------------------------------------
                       ORCA ELECTRIC PROPERTIES CALCULATION
------------------------------------------------------------------------------

Dipole Moment Calculation                       ... on
Quadrupole Moment Calculation                   ... off
Polarizability Calculation                      ... off
GBWName                                         ... CH3OH.gbw
Electron density file                           ... CH3OH.scfp
The origin for moment calculation is the CENTER OF MASS  = ( 0.961373,  0.024286  0.044149)

-------------
DIPOLE MOMENT
-------------
                                X             Y             Z
Electronic contribution:      2.10271      -0.07406      -0.13475
Nuclear contribution   :     -1.71308       0.33484       0.60872
                        -----------------------------------------
Total Dipole Moment    :      0.38963       0.26078       0.47397
                        -----------------------------------------
Magnitude (a.u.)       :      0.66669
Magnitude (Debye)      :      1.69458



--------------------
Rotational spectrum 
--------------------
 
Rotational constants in cm-1:     4.285067     1.433555     1.350027 
Rotational constants in MHz : 128463.072425 42976.906799 40472.777315 

 Dipole components along the rotational axes: 
x,y,z [a.u.] :     0.436786     0.503674     0.000070 
x,y,z [Debye]:     1.110222     1.280237     0.000177 

 

         *************************************************************
                                TRAJECTORY STEP   3
                  R  :   1.10620000
         *************************************************************
---------------------------------
CARTESIAN COORDINATES (ANGSTROEM)
---------------------------------
  C      0.000000    0.000000    0.000000
  O      1.106200    0.000000    0.000000
  H     -0.405235    1.017794    0.000000
  H     -0.405235   -0.544911    0.859637
  H     -0.309669   -0.502989   -0.914178
  H      1.421278    0.438622    0.797191

----------------------------
CARTESIAN COORDINATES (A.U.)
----------------------------
  NO LB      ZA    FRAG     MASS         X           Y           Z
   0 C     6.0000    0    12.011    0.000000    0.000000    0.000000
   1 O     8.0000    0    15.999    2.090415    0.000000    0.000000
   2 H     1.0000    0     1.008   -0.765784    1.923352    0.000000
   3 H     1.0000    0     1.008   -0.765784   -1.029733    1.624479
   4 H     1.0000    0     1.008   -0.585189   -0.950512   -1.727546
   5 H     1.0000    0     1.008    2.685826    0.828875    1.506472

--------------------------------
INTERNAL COORDINATES (ANGSTROEM)
--------------------------------
 C      0   0   0     0.000000000000     0.00000000     0.00000000
 O      1   0   0     1.106200000000     0.00000000     0.00000000
 H      1   2   0     1.095500000000   111.71000000     0.00000000
 H      1   2   3     1.095500000000   111.71000000   237.63000000
 H      1   2   3     1.088400000000   106.53000000   118.82000000
 H      2   1   3     0.962900000000   109.10000000    61.18000000

---------------------------
INTERNAL COORDINATES (A.U.)
---------------------------
 C      0   0   0     0.000000000000     0.00000000     0.00000000
 O      1   0   0     2.090415049344     0.00000000     0.00000000
 H      1   2   0     2.070194979711   111.71000000     0.00000000
 H      1   2   3     2.070194979711   111.71000000   237.63000000
 H      1   2   3     2.056777924160   106.53000000   118.82000000
 H      2   1   3     1.819617294353   109.10000000    61.18000000


Diagonalization of the overlap matrix:
Smallest eigenvalue                        ... 8.265e-03
Time for diagonalization                   ...    0.001 sec
Threshold for overlap eigenvalues          ... 1.000e-08
Number of eigenvalues below threshold      ... 0
Time for construction of square roots      ...    0.000 sec
Total time needed                          ...    0.001 sec

-------------------
DFT GRID GENERATION
-------------------

General Integration Accuracy     IntAcc      ...  4.670
Radial Grid Type                 RadialGrid  ... Gauss-Chebyshev
Angular Grid (max. acc.)         AngularGrid ... Lebedev-302
Angular grid pruning method      GridPruning ... 3 (G Style)
Weight generation scheme         WeightScheme... Becke
Basis function cutoff            BFCut       ...    1.0000e-10
Integration weight cutoff        WCut        ...    1.0000e-14
Grids for H and He will be reduced by one unit

# of grid points (after initial pruning)     ...  26000 (   0.0 sec)
# of grid points (after weights+screening)   ...  25108 (   0.0 sec)
nearest neighbour list constructed           ...    0.0 sec
Grid point re-assignment to atoms done       ...    0.0 sec
Grid point division into batches done        ...    0.1 sec
Reduced shell lists constructed in    0.1 sec

Total number of grid points                  ...    25108
Total number of batches                      ...      395
Average number of points per batch           ...       63
Average number of grid points per atom       ...     4185
Average number of shells per batch           ...    16.44 (82.18%)
Average number of basis functions per batch  ...    30.01 (83.37%)
Average number of large shells per batch     ...    15.07 (91.70%)
Average number of large basis fcns per batch ...    27.83 (92.71%)
Maximum spatial batch extension              ...  18.71, 19.22, 18.55 au
Average spatial batch extension              ...   3.07,  3.05,  3.00 au

Time for grid setup =    0.146 sec

--------------
SCF ITERATIONS
--------------
ITER       Energy         Delta-E        Max-DP      RMS-DP      [F,P]   Gradient Norm
               ***  Starting incremental Fock matrix formation  ***
                             ****Resetting KDIIS****
                             ****Turning on KDIIS(Cayley)****
  0   -115.5442079429   0.000000000000 0.00488261  0.00045610  0.0232693   0.030457358
  1   -115.5459006837  -0.001692740825 0.01103133  0.00094497  0.0211859   0.027470013
  2   -115.5486753588  -0.002774675043 0.01904319  0.00159656  0.0173556   0.022520233
  3   -115.5522587692  -0.003583410464 0.02942254  0.00243572  0.0104615   0.013531162
  4   -115.5543204793  -0.002061710111 0.00061561  0.00006662  0.0002473   0.000205398
                          ***Energy convergence achieved***
  5   -115.5543211337  -0.000000654367 0.00013913  0.00001459  0.0000380   0.000039872

            ***Energy convergence in two consecutive cycles with***
                    ***'reasonable' density convergence***
                       *** signaling convergence ***

                    *** KDIIS BlockDiag ( 2.529 sec) ***

               *****************************************************
               *                     SUCCESS                       *
               *           SCF CONVERGED AFTER   6 CYCLES          *
               *****************************************************

Setting up the final grid:

General Integration Accuracy     IntAcc      ...  5.010
Radial Grid Type                 RadialGrid  ... Gauss-Chebyshev
Angular Grid (max. acc.)         AngularGrid ... Lebedev-434
Angular grid pruning method      GridPruning ... 3 (G Style)
Weight generation scheme         WeightScheme... Becke
Basis function cutoff            BFCut       ...    1.0000e-10
Integration weight cutoff        WCut        ...    1.0000e-14
Grids for H and He will be reduced by one unit

# of grid points (after initial pruning)     ...  48308 (   0.0 sec)
# of grid points (after weights+screening)   ...  46555 (   0.0 sec)
nearest neighbour list constructed           ...    0.0 sec
Grid point re-assignment to atoms done       ...    0.0 sec
Grid point division into batches done        ...    0.3 sec
Reduced shell lists constructed in    0.4 sec

Total number of grid points                  ...    46555
Total number of batches                      ...      730
Average number of points per batch           ...       63
Average number of grid points per atom       ...     7759
Average number of shells per batch           ...    16.17 (80.84%)
Average number of basis functions per batch  ...    29.55 (82.09%)
Average number of large shells per batch     ...    14.71 (90.96%)
Average number of large basis fcns per batch ...    27.18 (91.98%)
Maximum spatial batch extension              ...  16.42, 17.16, 19.34 au
Average spatial batch extension              ...   2.46,  2.45,  2.42 au

Final grid set up in    0.4 sec
Final integration                            ... done (   0.3 sec)
Change in XC energy                          ...    -0.000259302
Integrated number of electrons               ...    18.000005190
Previous integrated no of electrons          ...    17.999968798
Total Energy       :         -115.55458046 Eh           -3144.39999 eV
  Last Energy change         ...   -2.3121e-08  Tolerance :   1.0000e-06
  Last MAX-Density change    ...    2.0332e-05  Tolerance :   1.0000e-05
             **** THE GBW FILE WAS UPDATED (CH3OH.gbw) ****
             **** DENSITY FILE WAS UPDATED (CH3OH.scfp) ****
             **** ENERGY FILE WAS UPDATED (CH3OH.en.tmp) ****
             **** THE GBW FILE WAS UPDATED (CH3OH.gbw) ****
             **** DENSITY FILE WAS UPDATED (CH3OH.scfp) ****
Total SCF time: 0 days 0 hours 0 min 3 sec 

-------------------------   --------------------
FINAL SINGLE POINT ENERGY      -115.554580458401
-------------------------   --------------------

Storing actual gbw-file in CH3OH.003.gbw ... done

                            ***************************************
                            *     ORCA property calculations      *
                            ***************************************

                                    ---------------------
                                    Active property flags
                                    ---------------------
   (+) Dipole Moment


------------------------------------------------------------------------------
                       ORCA ELECTRIC PROPERTIES CALCULATION
------------------------------------------------------------------------------

Dipole Moment Calculation                       ... on
Quadrupole Moment Calculation                   ... off
Polarizability Calculation                      ... off
GBWName                                         ... CH3OH.gbw
Electron density file                           ... CH3OH.scfp
The origin for moment calculation is the CENTER OF MASS  = ( 1.061674,  0.024286  0.044149)

-------------
DIPOLE MOMENT
-------------
                                X             Y             Z
Electronic contribution:      1.97011      -0.06473      -0.11781
Nuclear contribution   :     -1.81775       0.33484       0.60872
                        -----------------------------------------
Total Dipole Moment    :      0.15236       0.27011       0.49091
                        -----------------------------------------
Magnitude (a.u.)       :      0.58066
Magnitude (Debye)      :      1.47591



--------------------
Rotational spectrum 
--------------------
 
Rotational constants in cm-1:     4.279512     1.240480     1.177021 
Rotational constants in MHz : 128296.535646 37188.659172 35286.215659 

 Dipole components along the rotational axes: 
x,y,z [a.u.] :     0.195489     0.546760     0.000065 
x,y,z [Debye]:     0.496893     1.389754     0.000165 

 

         *************************************************************
                                TRAJECTORY STEP   4
                  R  :   1.20620000
         *************************************************************
---------------------------------
CARTESIAN COORDINATES (ANGSTROEM)
---------------------------------
  C      0.000000    0.000000    0.000000
  O      1.206200    0.000000    0.000000
  H     -0.405235    1.017794    0.000000
  H     -0.405235   -0.544911    0.859637
  H     -0.309669   -0.502989   -0.914178
  H      1.521278    0.438622    0.797191

----------------------------
CARTESIAN COORDINATES (A.U.)
----------------------------
  NO LB      ZA    FRAG     MASS         X           Y           Z
   0 C     6.0000    0    12.011    0.000000    0.000000    0.000000
   1 O     8.0000    0    15.999    2.279388    0.000000    0.000000
   2 H     1.0000    0     1.008   -0.765784    1.923352    0.000000
   3 H     1.0000    0     1.008   -0.765784   -1.029733    1.624479
   4 H     1.0000    0     1.008   -0.585189   -0.950512   -1.727546
   5 H     1.0000    0     1.008    2.874799    0.828875    1.506472

--------------------------------
INTERNAL COORDINATES (ANGSTROEM)
--------------------------------
 C      0   0   0     0.000000000000     0.00000000     0.00000000
 O      1   0   0     1.206200000000     0.00000000     0.00000000
 H      1   2   0     1.095500000000   111.71000000     0.00000000
 H      1   2   3     1.095500000000   111.71000000   237.63000000
 H      1   2   3     1.088400000000   106.53000000   118.82000000
 H      2   1   3     0.962900000000   109.10000000    61.18000000

---------------------------
INTERNAL COORDINATES (A.U.)
---------------------------
 C      0   0   0     0.000000000000     0.00000000     0.00000000
 O      1   0   0     2.279387662736     0.00000000     0.00000000
 H      1   2   0     2.070194979711   111.71000000     0.00000000
 H      1   2   3     2.070194979711   111.71000000   237.63000000
 H      1   2   3     2.056777924160   106.53000000   118.82000000
 H      2   1   3     1.819617294353   109.10000000    61.18000000


Diagonalization of the overlap matrix:
Smallest eigenvalue                        ... 1.015e-02
Time for diagonalization                   ...    0.001 sec
Threshold for overlap eigenvalues          ... 1.000e-08
Number of eigenvalues below threshold      ... 0
Time for construction of square roots      ...    0.000 sec
Total time needed                          ...    0.001 sec

-------------------
DFT GRID GENERATION
-------------------

General Integration Accuracy     IntAcc      ...  4.670
Radial Grid Type                 RadialGrid  ... Gauss-Chebyshev
Angular Grid (max. acc.)         AngularGrid ... Lebedev-302
Angular grid pruning method      GridPruning ... 3 (G Style)
Weight generation scheme         WeightScheme... Becke
Basis function cutoff            BFCut       ...    1.0000e-10
Integration weight cutoff        WCut        ...    1.0000e-14
Grids for H and He will be reduced by one unit

# of grid points (after initial pruning)     ...  26000 (   0.0 sec)
# of grid points (after weights+screening)   ...  25136 (   0.0 sec)
nearest neighbour list constructed           ...    0.0 sec
Grid point re-assignment to atoms done       ...    0.0 sec
Grid point division into batches done        ...    0.1 sec
Reduced shell lists constructed in    0.1 sec

Total number of grid points                  ...    25136
Total number of batches                      ...      395
Average number of points per batch           ...       63
Average number of grid points per atom       ...     4189
Average number of shells per batch           ...    16.33 (81.67%)
Average number of basis functions per batch  ...    29.85 (82.93%)
Average number of large shells per batch     ...    14.96 (91.57%)
Average number of large basis fcns per batch ...    27.64 (92.60%)
Maximum spatial batch extension              ...  18.90, 18.22, 18.55 au
Average spatial batch extension              ...   3.09,  3.06,  2.98 au

Time for grid setup =    0.146 sec

--------------
SCF ITERATIONS
--------------
ITER       Energy         Delta-E        Max-DP      RMS-DP      [F,P]   Gradient Norm
               ***  Starting incremental Fock matrix formation  ***
                             ****Resetting KDIIS****
                             ****Turning on KDIIS(Cayley)****
  0   -115.6259751347   0.000000000000 0.00388763  0.00037202  0.0189624   0.025272484
  1   -115.6271788426  -0.001203707879 0.00888110  0.00078320  0.0173925   0.022861625
  2   -115.6292133759  -0.002034533343 0.01519217  0.00133006  0.0139672   0.018717244
  3   -115.6318121053  -0.002598729410 0.02337614  0.00203144  0.0084273   0.011246712
  4   -115.6333048691  -0.001492763758 0.00061418  0.00005819  0.0001856   0.000179572
                          ***Energy convergence achieved***
  5   -115.6333053686  -0.000000499509 0.00011750  0.00001300  0.0000275   0.000036957

            ***Energy convergence in two consecutive cycles with***
                    ***'reasonable' density convergence***
                       *** signaling convergence ***

                    *** KDIIS BlockDiag ( 2.507 sec) ***

               *****************************************************
               *                     SUCCESS                       *
               *           SCF CONVERGED AFTER   6 CYCLES          *
               *****************************************************

Setting up the final grid:

General Integration Accuracy     IntAcc      ...  5.010
Radial Grid Type                 RadialGrid  ... Gauss-Chebyshev
Angular Grid (max. acc.)         AngularGrid ... Lebedev-434
Angular grid pruning method      GridPruning ... 3 (G Style)
Weight generation scheme         WeightScheme... Becke
Basis function cutoff            BFCut       ...    1.0000e-10
Integration weight cutoff        WCut        ...    1.0000e-14
Grids for H and He will be reduced by one unit

# of grid points (after initial pruning)     ...  48308 (   0.0 sec)
# of grid points (after weights+screening)   ...  46596 (   0.0 sec)
nearest neighbour list constructed           ...    0.0 sec
Grid point re-assignment to atoms done       ...    0.0 sec
Grid point division into batches done        ...    0.3 sec
Reduced shell lists constructed in    0.4 sec

Total number of grid points                  ...    46596
Total number of batches                      ...      731
Average number of points per batch           ...       63
Average number of grid points per atom       ...     7766
Average number of shells per batch           ...    16.11 (80.55%)
Average number of basis functions per batch  ...    29.48 (81.88%)
Average number of large shells per batch     ...    14.58 (90.48%)
Average number of large basis fcns per batch ...    26.99 (91.57%)
Maximum spatial batch extension              ...  16.61, 17.35, 19.88 au
Average spatial batch extension              ...   2.49,  2.46,  2.41 au

Final grid set up in    0.4 sec
Final integration                            ... done (   0.3 sec)
Change in XC energy                          ...    -0.000247453
Integrated number of electrons               ...    18.000000687
Previous integrated no of electrons          ...    17.999970064
Total Energy       :         -115.63355284 Eh           -3146.54894 eV
  Last Energy change         ...   -2.1041e-08  Tolerance :   1.0000e-06
  Last MAX-Density change    ...    1.7777e-05  Tolerance :   1.0000e-05
             **** THE GBW FILE WAS UPDATED (CH3OH.gbw) ****
             **** DENSITY FILE WAS UPDATED (CH3OH.scfp) ****
             **** ENERGY FILE WAS UPDATED (CH3OH.en.tmp) ****
             **** THE GBW FILE WAS UPDATED (CH3OH.gbw) ****
             **** DENSITY FILE WAS UPDATED (CH3OH.scfp) ****
Total SCF time: 0 days 0 hours 0 min 3 sec 

-------------------------   --------------------
FINAL SINGLE POINT ENERGY      -115.633552842193
-------------------------   --------------------

Storing actual gbw-file in CH3OH.004.gbw ... done

                            ***************************************
                            *     ORCA property calculations      *
                            ***************************************

                                    ---------------------
                                    Active property flags
                                    ---------------------
   (+) Dipole Moment


------------------------------------------------------------------------------
                       ORCA ELECTRIC PROPERTIES CALCULATION
------------------------------------------------------------------------------

Dipole Moment Calculation                       ... on
Quadrupole Moment Calculation                   ... off
Polarizability Calculation                      ... off
GBWName                                         ... CH3OH.gbw
Electron density file                           ... CH3OH.scfp
The origin for moment calculation is the CENTER OF MASS  = ( 1.161976,  0.024286  0.044149)

-------------
DIPOLE MOMENT
-------------
                                X             Y             Z
Electronic contribution:      1.87695      -0.05929      -0.10792
Nuclear contribution   :     -1.92242       0.33484       0.60872
                        -----------------------------------------
Total Dipole Moment    :     -0.04547       0.27555       0.50080
                        -----------------------------------------
Magnitude (a.u.)       :      0.57341
Magnitude (Debye)      :      1.45748



--------------------
Rotational spectrum 
--------------------
 
Rotational constants in cm-1:     4.275321     1.081954     1.033116 
Rotational constants in MHz : 128170.884825 32436.151606 30972.026729 

 Dipole components along the rotational axes: 
x,y,z [a.u.] :    -0.006230     0.573371     0.000063 
x,y,z [Debye]:    -0.015836     1.457394     0.000160 

 

         *************************************************************
                                TRAJECTORY STEP   5
                  R  :   1.30620000
         *************************************************************
---------------------------------
CARTESIAN COORDINATES (ANGSTROEM)
---------------------------------
  C      0.000000    0.000000    0.000000
  O      1.306200    0.000000    0.000000
  H     -0.405235    1.017794    0.000000
  H     -0.405235   -0.544911    0.859637
  H     -0.309669   -0.502989   -0.914178
  H      1.621278    0.438622    0.797191

----------------------------
CARTESIAN COORDINATES (A.U.)
----------------------------
  NO LB      ZA    FRAG     MASS         X           Y           Z
   0 C     6.0000    0    12.011    0.000000    0.000000    0.000000
   1 O     8.0000    0    15.999    2.468360    0.000000    0.000000
   2 H     1.0000    0     1.008   -0.765784    1.923352    0.000000
   3 H     1.0000    0     1.008   -0.765784   -1.029733    1.624479
   4 H     1.0000    0     1.008   -0.585189   -0.950512   -1.727546
   5 H     1.0000    0     1.008    3.063772    0.828875    1.506472

--------------------------------
INTERNAL COORDINATES (ANGSTROEM)
--------------------------------
 C      0   0   0     0.000000000000     0.00000000     0.00000000
 O      1   0   0     1.306200000000     0.00000000     0.00000000
 H      1   2   0     1.095500000000   111.71000000     0.00000000
 H      1   2   3     1.095500000000   111.71000000   237.63000000
 H      1   2   3     1.088400000000   106.53000000   118.82000000
 H      2   1   3     0.962900000000   109.10000000    61.18000000

---------------------------
INTERNAL COORDINATES (A.U.)
---------------------------
 C      0   0   0     0.000000000000     0.00000000     0.00000000
 O      1   0   0     2.468360276128     0.00000000     0.00000000
 H      1   2   0     2.070194979711   111.71000000     0.00000000
 H      1   2   3     2.070194979711   111.71000000   237.63000000
 H      1   2   3     2.056777924160   106.53000000   118.82000000
 H      2   1   3     1.819617294353   109.10000000    61.18000000


Diagonalization of the overlap matrix:
Smallest eigenvalue                        ... 1.222e-02
Time for diagonalization                   ...    0.001 sec
Threshold for overlap eigenvalues          ... 1.000e-08
Number of eigenvalues below threshold      ... 0
Time for construction of square roots      ...    0.000 sec
Total time needed                          ...    0.001 sec

-------------------
DFT GRID GENERATION
-------------------

General Integration Accuracy     IntAcc      ...  4.670
Radial Grid Type                 RadialGrid  ... Gauss-Chebyshev
Angular Grid (max. acc.)         AngularGrid ... Lebedev-302
Angular grid pruning method      GridPruning ... 3 (G Style)
Weight generation scheme         WeightScheme... Becke
Basis function cutoff            BFCut       ...    1.0000e-10
Integration weight cutoff        WCut        ...    1.0000e-14
Grids for H and He will be reduced by one unit

# of grid points (after initial pruning)     ...  26000 (   0.0 sec)
# of grid points (after weights+screening)   ...  25150 (   0.0 sec)
nearest neighbour list constructed           ...    0.0 sec
Grid point re-assignment to atoms done       ...    0.0 sec
Grid point division into batches done        ...    0.1 sec
Reduced shell lists constructed in    0.1 sec

Total number of grid points                  ...    25150
Total number of batches                      ...      397
Average number of points per batch           ...       63
Average number of grid points per atom       ...     4192
Average number of shells per batch           ...    16.32 (81.62%)
Average number of basis functions per batch  ...    29.87 (82.96%)
Average number of large shells per batch     ...    14.79 (90.63%)
Average number of large basis fcns per batch ...    27.43 (91.85%)
Maximum spatial batch extension              ...  18.35, 18.22, 18.55 au
Average spatial batch extension              ...   3.04,  3.06,  2.94 au

Time for grid setup =    0.146 sec

--------------
SCF ITERATIONS
--------------
ITER       Energy         Delta-E        Max-DP      RMS-DP      [F,P]   Gradient Norm
               ***  Starting incremental Fock matrix formation  ***
                             ****Resetting KDIIS****
                             ****Turning on KDIIS(Cayley)****
  0   -115.6630493984   0.000000000000 0.00328408  0.00030821  0.0219352   0.021444553
  1   -115.6639287908  -0.000879392425 0.00708526  0.00066116  0.0199874   0.019450146
  2   -115.6654608709  -0.001532080088 0.01200331  0.00112681  0.0161331   0.015888228
  3   -115.6673931462  -0.001932275336 0.01841040  0.00171969  0.0097203   0.009538224
  4   -115.6684998424  -0.001106696171 0.00062737  0.00005225  0.0001803   0.000183571
                          ***Energy convergence achieved***
  5   -115.6685003046  -0.000000462246 0.00011239  0.00001093  0.0000286   0.000036121

            ***Energy convergence in two consecutive cycles with***
                    ***'reasonable' density convergence***
                       *** signaling convergence ***

                    *** KDIIS BlockDiag ( 2.502 sec) ***

               *****************************************************
               *                     SUCCESS                       *
               *           SCF CONVERGED AFTER   6 CYCLES          *
               *****************************************************

Setting up the final grid:

General Integration Accuracy     IntAcc      ...  5.010
Radial Grid Type                 RadialGrid  ... Gauss-Chebyshev
Angular Grid (max. acc.)         AngularGrid ... Lebedev-434
Angular grid pruning method      GridPruning ... 3 (G Style)
Weight generation scheme         WeightScheme... Becke
Basis function cutoff            BFCut       ...    1.0000e-10
Integration weight cutoff        WCut        ...    1.0000e-14
Grids for H and He will be reduced by one unit

# of grid points (after initial pruning)     ...  48308 (   0.0 sec)
# of grid points (after weights+screening)   ...  46630 (   0.0 sec)
nearest neighbour list constructed           ...    0.0 sec
Grid point re-assignment to atoms done       ...    0.0 sec
Grid point division into batches done        ...    0.3 sec
Reduced shell lists constructed in    0.4 sec

Total number of grid points                  ...    46630
Total number of batches                      ...      732
Average number of points per batch           ...       63
Average number of grid points per atom       ...     7772
Average number of shells per batch           ...    16.06 (80.30%)
Average number of basis functions per batch  ...    29.40 (81.66%)
Average number of large shells per batch     ...    14.42 (89.80%)
Average number of large basis fcns per batch ...    26.74 (90.95%)
Maximum spatial batch extension              ...  16.80, 17.35, 19.34 au
Average spatial batch extension              ...   2.49,  2.44,  2.41 au

Final grid set up in    0.4 sec
Final integration                            ... done (   0.3 sec)
Change in XC energy                          ...    -0.000284814
Integrated number of electrons               ...    17.999998677
Previous integrated no of electrons          ...    17.999973788
Total Energy       :         -115.66878514 Eh           -3147.50766 eV
  Last Energy change         ...   -1.8842e-08  Tolerance :   1.0000e-06
  Last MAX-Density change    ...    1.7756e-05  Tolerance :   1.0000e-05
             **** THE GBW FILE WAS UPDATED (CH3OH.gbw) ****
             **** DENSITY FILE WAS UPDATED (CH3OH.scfp) ****
             **** ENERGY FILE WAS UPDATED (CH3OH.en.tmp) ****
             **** THE GBW FILE WAS UPDATED (CH3OH.gbw) ****
             **** DENSITY FILE WAS UPDATED (CH3OH.scfp) ****
Total SCF time: 0 days 0 hours 0 min 3 sec 

-------------------------   --------------------
FINAL SINGLE POINT ENERGY      -115.668785137192
-------------------------   --------------------

Storing actual gbw-file in CH3OH.005.gbw ... done

                            ***************************************
                            *     ORCA property calculations      *
                            ***************************************

                                    ---------------------
                                    Active property flags
                                    ---------------------
   (+) Dipole Moment


------------------------------------------------------------------------------
                       ORCA ELECTRIC PROPERTIES CALCULATION
------------------------------------------------------------------------------

Dipole Moment Calculation                       ... on
Quadrupole Moment Calculation                   ... off
Polarizability Calculation                      ... off
GBWName                                         ... CH3OH.gbw
Electron density file                           ... CH3OH.scfp
The origin for moment calculation is the CENTER OF MASS  = ( 1.262277,  0.024286  0.044149)

-------------
DIPOLE MOMENT
-------------
                                X             Y             Z
Electronic contribution:      1.81552      -0.05669      -0.10320
Nuclear contribution   :     -2.02709       0.33484       0.60872
                        -----------------------------------------
Total Dipole Moment    :     -0.21157       0.27816       0.50552
                        -----------------------------------------
Magnitude (a.u.)       :      0.61456
Magnitude (Debye)      :      1.56209



--------------------
Rotational spectrum 
--------------------
 
Rotational constants in cm-1:     4.272047     0.950673     0.912611 
Rotational constants in MHz : 128072.759832 28500.462549 27359.385215 

 Dipole components along the rotational axes: 
x,y,z [a.u.] :    -0.175905     0.588849     0.000062 
x,y,z [Debye]:    -0.447115     1.496736     0.000158 

 

         *************************************************************
                                TRAJECTORY STEP   6
                  R  :   1.40620000
         *************************************************************
---------------------------------
CARTESIAN COORDINATES (ANGSTROEM)
---------------------------------
  C      0.000000    0.000000    0.000000
  O      1.406200    0.000000    0.000000
  H     -0.405235    1.017794    0.000000
  H     -0.405235   -0.544911    0.859637
  H     -0.309669   -0.502989   -0.914178
  H      1.721278    0.438622    0.797191

----------------------------
CARTESIAN COORDINATES (A.U.)
----------------------------
  NO LB      ZA    FRAG     MASS         X           Y           Z
   0 C     6.0000    0    12.011    0.000000    0.000000    0.000000
   1 O     8.0000    0    15.999    2.657333    0.000000    0.000000
   2 H     1.0000    0     1.008   -0.765784    1.923352    0.000000
   3 H     1.0000    0     1.008   -0.765784   -1.029733    1.624479
   4 H     1.0000    0     1.008   -0.585189   -0.950512   -1.727546
   5 H     1.0000    0     1.008    3.252744    0.828875    1.506472

--------------------------------
INTERNAL COORDINATES (ANGSTROEM)
--------------------------------
 C      0   0   0     0.000000000000     0.00000000     0.00000000
 O      1   0   0     1.406200000000     0.00000000     0.00000000
 H      1   2   0     1.095500000000   111.71000000     0.00000000
 H      1   2   3     1.095500000000   111.71000000   237.63000000
 H      1   2   3     1.088400000000   106.53000000   118.82000000
 H      2   1   3     0.962900000000   109.10000000    61.18000000

---------------------------
INTERNAL COORDINATES (A.U.)
---------------------------
 C      0   0   0     0.000000000000     0.00000000     0.00000000
 O      1   0   0     2.657332889520     0.00000000     0.00000000
 H      1   2   0     2.070194979711   111.71000000     0.00000000
 H      1   2   3     2.070194979711   111.71000000   237.63000000
 H      1   2   3     2.056777924160   106.53000000   118.82000000
 H      2   1   3     1.819617294353   109.10000000    61.18000000


Diagonalization of the overlap matrix:
Smallest eigenvalue                        ... 1.435e-02
Time for diagonalization                   ...    0.001 sec
Threshold for overlap eigenvalues          ... 1.000e-08
Number of eigenvalues below threshold      ... 0
Time for construction of square roots      ...    0.000 sec
Total time needed                          ...    0.001 sec

-------------------
DFT GRID GENERATION
-------------------

General Integration Accuracy     IntAcc      ...  4.670
Radial Grid Type                 RadialGrid  ... Gauss-Chebyshev
Angular Grid (max. acc.)         AngularGrid ... Lebedev-302
Angular grid pruning method      GridPruning ... 3 (G Style)
Weight generation scheme         WeightScheme... Becke
Basis function cutoff            BFCut       ...    1.0000e-10
Integration weight cutoff        WCut        ...    1.0000e-14
Grids for H and He will be reduced by one unit

# of grid points (after initial pruning)     ...  26000 (   0.0 sec)
# of grid points (after weights+screening)   ...  25163 (   0.0 sec)
nearest neighbour list constructed           ...    0.0 sec
Grid point re-assignment to atoms done       ...    0.0 sec
Grid point division into batches done        ...    0.1 sec
Reduced shell lists constructed in    0.1 sec

Total number of grid points                  ...    25163
Total number of batches                      ...      397
Average number of points per batch           ...       63
Average number of grid points per atom       ...     4194
Average number of shells per batch           ...    16.26 (81.31%)
Average number of basis functions per batch  ...    29.75 (82.65%)
Average number of large shells per batch     ...    14.66 (90.16%)
Average number of large basis fcns per batch ...    27.14 (91.23%)
Maximum spatial batch extension              ...  18.35, 17.61, 16.88 au
Average spatial batch extension              ...   3.04,  3.02,  2.93 au

Time for grid setup =    0.147 sec

--------------
SCF ITERATIONS
--------------
ITER       Energy         Delta-E        Max-DP      RMS-DP      [F,P]   Gradient Norm
               ***  Starting incremental Fock matrix formation  ***
                             ****Resetting KDIIS****
                             ****Turning on KDIIS(Cayley)****
  0   -115.6740459954   0.000000000000 0.00276294  0.00025371  0.0182147   0.018428365
  1   -115.6746969167  -0.000650921274 0.00560414  0.00055660  0.0166952   0.016750037
  2   -115.6758623525  -0.001165435782 0.00939790  0.00095192  0.0134042   0.013658710
  3   -115.6773182619  -0.001455909461 0.01435737  0.00144957  0.0080908   0.008191951
  4   -115.6781502118  -0.000831949881 0.00059392  0.00004853  0.0001821   0.000186404
                          ***Energy convergence achieved***
  5   -115.6781506803  -0.000000468448 0.00010600  0.00000902  0.0000277   0.000034336

            ***Energy convergence in two consecutive cycles with***
                    ***'reasonable' density convergence***
                       *** signaling convergence ***

                    *** KDIIS BlockDiag ( 2.485 sec) ***

               *****************************************************
               *                     SUCCESS                       *
               *           SCF CONVERGED AFTER   6 CYCLES          *
               *****************************************************

Setting up the final grid:

General Integration Accuracy     IntAcc      ...  5.010
Radial Grid Type                 RadialGrid  ... Gauss-Chebyshev
Angular Grid (max. acc.)         AngularGrid ... Lebedev-434
Angular grid pruning method      GridPruning ... 3 (G Style)
Weight generation scheme         WeightScheme... Becke
Basis function cutoff            BFCut       ...    1.0000e-10
Integration weight cutoff        WCut        ...    1.0000e-14
Grids for H and He will be reduced by one unit

# of grid points (after initial pruning)     ...  48308 (   0.0 sec)
# of grid points (after weights+screening)   ...  46665 (   0.0 sec)
nearest neighbour list constructed           ...    0.0 sec
Grid point re-assignment to atoms done       ...    0.0 sec
Grid point division into batches done        ...    0.3 sec
Reduced shell lists constructed in    0.4 sec

Total number of grid points                  ...    46665
Total number of batches                      ...      733
Average number of points per batch           ...       63
Average number of grid points per atom       ...     7778
Average number of shells per batch           ...    15.96 (79.82%)
Average number of basis functions per batch  ...    29.25 (81.25%)
Average number of large shells per batch     ...    14.20 (88.95%)
Average number of large basis fcns per batch ...    26.33 (90.03%)
Maximum spatial batch extension              ...  16.99, 17.35, 19.21 au
Average spatial batch extension              ...   2.46,  2.45,  2.42 au

Final grid set up in    0.4 sec
Final integration                            ... done (   0.3 sec)
Change in XC energy                          ...    -0.000309466
Integrated number of electrons               ...    18.000000392
Previous integrated no of electrons          ...    17.999984343
Total Energy       :         -115.67846016 Eh           -3147.77093 eV
  Last Energy change         ...   -1.7443e-08  Tolerance :   1.0000e-06
  Last MAX-Density change    ...    1.6964e-05  Tolerance :   1.0000e-05
             **** THE GBW FILE WAS UPDATED (CH3OH.gbw) ****
             **** DENSITY FILE WAS UPDATED (CH3OH.scfp) ****
             **** ENERGY FILE WAS UPDATED (CH3OH.en.tmp) ****
             **** THE GBW FILE WAS UPDATED (CH3OH.gbw) ****
             **** DENSITY FILE WAS UPDATED (CH3OH.scfp) ****
Total SCF time: 0 days 0 hours 0 min 3 sec 

-------------------------   --------------------
FINAL SINGLE POINT ENERGY      -115.678460163382
-------------------------   --------------------

Storing actual gbw-file in CH3OH.006.gbw ... done

                            ***************************************
                            *     ORCA property calculations      *
                            ***************************************

                                    ---------------------
                                    Active property flags
                                    ---------------------
   (+) Dipole Moment


------------------------------------------------------------------------------
                       ORCA ELECTRIC PROPERTIES CALCULATION
------------------------------------------------------------------------------

Dipole Moment Calculation                       ... on
Quadrupole Moment Calculation                   ... off
Polarizability Calculation                      ... off
GBWName                                         ... CH3OH.gbw
[...]
Angular Grid (max. acc.)         AngularGrid ... Lebedev-302
Angular grid pruning method      GridPruning ... 3 (G Style)
Weight generation scheme         WeightScheme... Becke
Basis function cutoff            BFCut       ...    1.0000e-10
Integration weight cutoff        WCut        ...    1.0000e-14
Grids for H and He will be reduced by one unit

# of grid points (after initial pruning)     ...  26000 (   0.0 sec)
# of grid points (after weights+screening)   ...  25622 (   0.0 sec)
nearest neighbour list constructed           ...    0.0 sec
Grid point re-assignment to atoms done       ...    0.0 sec
Grid point division into batches done        ...    0.1 sec
Reduced shell lists constructed in    0.1 sec

Total number of grid points                  ...    25622
Total number of batches                      ...      403
Average number of points per batch           ...       63
Average number of grid points per atom       ...     4270
Average number of shells per batch           ...    11.26 (56.32%)
Average number of basis functions per batch  ...    19.43 (53.98%)
Average number of large shells per batch     ...     8.97 (79.59%)
Average number of large basis fcns per batch ...    15.92 (81.90%)
Maximum spatial batch extension              ...  21.25, 18.89, 20.64 au
Average spatial batch extension              ...   3.40,  3.28,  3.12 au

Time for grid setup =    0.143 sec

--------------
SCF ITERATIONS
--------------
ITER       Energy         Delta-E        Max-DP      RMS-DP      [F,P]   Gradient Norm
               ***  Starting incremental Fock matrix formation  ***
                             ****Resetting KDIIS****
                             ****Turning on KDIIS(Cayley)****
  0   -115.3575366484   0.000000000000 0.00005361  0.00000400  0.0001797   0.000129462
                          ***Energy convergence achieved***
  1   -115.3575367395  -0.000000091121 0.00005202  0.00000504  0.0001433   0.000112010
  2   -115.3575368294  -0.000000089884 0.00010331  0.00001011  0.0001181   0.000093864
  3   -115.3575369679  -0.000000138467 0.00017525  0.00001691  0.0000739   0.000057989

            ***Energy convergence in two consecutive cycles with***
                    ***'reasonable' density convergence***
                       *** signaling convergence ***

                    *** KDIIS BlockDiag ( 1.560 sec) ***

               *****************************************************
               *                     SUCCESS                       *
               *           SCF CONVERGED AFTER   4 CYCLES          *
               *****************************************************

Setting up the final grid:

General Integration Accuracy     IntAcc      ...  5.010
Radial Grid Type                 RadialGrid  ... Gauss-Chebyshev
Angular Grid (max. acc.)         AngularGrid ... Lebedev-434
Angular grid pruning method      GridPruning ... 3 (G Style)
Weight generation scheme         WeightScheme... Becke
Basis function cutoff            BFCut       ...    1.0000e-10
Integration weight cutoff        WCut        ...    1.0000e-14
Grids for H and He will be reduced by one unit

# of grid points (after initial pruning)     ...  48308 (   0.0 sec)
# of grid points (after weights+screening)   ...  47525 (   0.0 sec)
nearest neighbour list constructed           ...    0.0 sec
Grid point re-assignment to atoms done       ...    0.0 sec
Grid point division into batches done        ...    0.3 sec
Reduced shell lists constructed in    0.4 sec

Total number of grid points                  ...    47525
Total number of batches                      ...      746
Average number of points per batch           ...       63
Average number of grid points per atom       ...     7921
Average number of shells per batch           ...    10.97 (54.84%)
Average number of basis functions per batch  ...    18.84 (52.32%)
Average number of large shells per batch     ...     8.67 (79.06%)
Average number of large basis fcns per batch ...    15.45 (82.03%)
Maximum spatial batch extension              ...  20.00, 17.74, 17.35 au
Average spatial batch extension              ...   2.70,  2.60,  2.53 au

Final grid set up in    0.4 sec
Final integration                            ... done (   0.3 sec)
Change in XC energy                          ...    -0.000234571
Integrated number of electrons               ...    18.000000324
Previous integrated no of electrons          ...    17.999986052
Total Energy       :         -115.35777163 Eh           -3139.04455 eV
  Last Energy change         ...   -8.7939e-08  Tolerance :   1.0000e-06
  Last MAX-Density change    ...    1.0604e-05  Tolerance :   1.0000e-05
             **** THE GBW FILE WAS UPDATED (CH3OH.gbw) ****
             **** DENSITY FILE WAS UPDATED (CH3OH.scfp) ****
             **** ENERGY FILE WAS UPDATED (CH3OH.en.tmp) ****
             **** THE GBW FILE WAS UPDATED (CH3OH.gbw) ****
             **** DENSITY FILE WAS UPDATED (CH3OH.scfp) ****
Total SCF time: 0 days 0 hours 0 min 2 sec 

-------------------------   --------------------
FINAL SINGLE POINT ENERGY      -115.357771626407
-------------------------   --------------------

Storing actual gbw-file in CH3OH.045.gbw ... done

                            ***************************************
                            *     ORCA property calculations      *
                            ***************************************

                                    ---------------------
                                    Active property flags
                                    ---------------------
   (+) Dipole Moment


------------------------------------------------------------------------------
                       ORCA ELECTRIC PROPERTIES CALCULATION
------------------------------------------------------------------------------

Dipole Moment Calculation                       ... on
Quadrupole Moment Calculation                   ... off
Polarizability Calculation                      ... off
GBWName                                         ... CH3OH.gbw
Electron density file                           ... CH3OH.scfp
The origin for moment calculation is the CENTER OF MASS  = ( 5.274333,  0.024286  0.044149)

-------------
DIPOLE MOMENT
-------------
                                X             Y             Z
Electronic contribution:      3.91291      -0.05041      -0.09180
Nuclear contribution   :     -6.21395       0.33484       0.60872
                        -----------------------------------------
Total Dipole Moment    :     -2.30105       0.28443       0.51692
                        -----------------------------------------
Magnitude (a.u.)       :      2.37548
Magnitude (Debye)      :      6.03800



--------------------
Rotational spectrum 
--------------------
 
Rotational constants in cm-1:     4.250475     0.071805     0.071573 
Rotational constants in MHz : 127426.022493  2152.649837  2145.707508 

 Dipole components along the rotational axes: 
x,y,z [a.u.] :    -2.293998     0.616847     0.000059 
x,y,z [Debye]:    -5.830879     1.567899     0.000149 

 

         *************************************************************
                                TRAJECTORY STEP  46
                  R  :   5.40620000
         *************************************************************
---------------------------------
CARTESIAN COORDINATES (ANGSTROEM)
---------------------------------
  C      0.000000    0.000000    0.000000
  O      5.406200    0.000000    0.000000
  H     -0.405235    1.017794    0.000000
  H     -0.405235   -0.544911    0.859637
  H     -0.309669   -0.502989   -0.914178
  H      5.721278    0.438622    0.797191

----------------------------
CARTESIAN COORDINATES (A.U.)
----------------------------
  NO LB      ZA    FRAG     MASS         X           Y           Z
   0 C     6.0000    0    12.011    0.000000    0.000000    0.000000
   1 O     8.0000    0    15.999   10.216237    0.000000    0.000000
   2 H     1.0000    0     1.008   -0.765784    1.923352    0.000000
   3 H     1.0000    0     1.008   -0.765784   -1.029733    1.624479
   4 H     1.0000    0     1.008   -0.585189   -0.950512   -1.727546
   5 H     1.0000    0     1.008   10.811649    0.828875    1.506472

--------------------------------
INTERNAL COORDINATES (ANGSTROEM)
--------------------------------
 C      0   0   0     0.000000000000     0.00000000     0.00000000
 O      1   0   0     5.406200000000     0.00000000     0.00000000
 H      1   2   0     1.095500000000   111.71000000     0.00000000
 H      1   2   3     1.095500000000   111.71000000   237.63000000
 H      1   2   3     1.088400000000   106.53000000   118.82000000
 H      2   1   3     0.962900000000   109.10000000    61.18000000

---------------------------
INTERNAL COORDINATES (A.U.)
---------------------------
 C      0   0   0     0.000000000000     0.00000000     0.00000000
 O      1   0   0    10.216237425205     0.00000000     0.00000000
 H      1   2   0     2.070194979711   111.71000000     0.00000000
 H      1   2   3     2.070194979711   111.71000000   237.63000000
 H      1   2   3     2.056777924160   106.53000000   118.82000000
 H      2   1   3     1.819617294353   109.10000000    61.18000000


Diagonalization of the overlap matrix:
Smallest eigenvalue                        ... 2.589e-02
Time for diagonalization                   ...    0.001 sec
Threshold for overlap eigenvalues          ... 1.000e-08
Number of eigenvalues below threshold      ... 0
Time for construction of square roots      ...    0.000 sec
Total time needed                          ...    0.001 sec

-------------------
DFT GRID GENERATION
-------------------

General Integration Accuracy     IntAcc      ...  4.670
Radial Grid Type                 RadialGrid  ... Gauss-Chebyshev
Angular Grid (max. acc.)         AngularGrid ... Lebedev-302
Angular grid pruning method      GridPruning ... 3 (G Style)
Weight generation scheme         WeightScheme... Becke
Basis function cutoff            BFCut       ...    1.0000e-10
Integration weight cutoff        WCut        ...    1.0000e-14
Grids for H and He will be reduced by one unit

# of grid points (after initial pruning)     ...  26000 (   0.0 sec)
# of grid points (after weights+screening)   ...  25625 (   0.0 sec)
nearest neighbour list constructed           ...    0.0 sec
Grid point re-assignment to atoms done       ...    0.0 sec
Grid point division into batches done        ...    0.1 sec
Reduced shell lists constructed in    0.1 sec

Total number of grid points                  ...    25625
Total number of batches                      ...      403
Average number of points per batch           ...       63
Average number of grid points per atom       ...     4271
Average number of shells per batch           ...    11.07 (55.33%)
Average number of basis functions per batch  ...    19.09 (53.02%)
Average number of large shells per batch     ...     8.90 (80.43%)
Average number of large basis fcns per batch ...    15.83 (82.92%)
Maximum spatial batch extension              ...  21.25, 18.89, 20.64 au
Average spatial batch extension              ...   3.36,  3.26,  3.13 au

Time for grid setup =    0.143 sec

--------------
SCF ITERATIONS
--------------
ITER       Energy         Delta-E        Max-DP      RMS-DP      [F,P]   Gradient Norm
               ***  Starting incremental Fock matrix formation  ***
                             ****Resetting KDIIS****
                             ****Turning on KDIIS(Cayley)****
  0   -115.3563526680   0.000000000000 0.00004893  0.00000370  0.0001739   0.000118081
                          ***Energy convergence achieved***
  1   -115.3563527469  -0.000000078851 0.00004686  0.00000441  0.0001350   0.000101588

            ***Energy convergence in two consecutive cycles with***
                    ***'reasonable' density convergence***
                       *** signaling convergence ***

                    *** KDIIS BlockDiag ( 1.091 sec) ***

               *****************************************************
               *                     SUCCESS                       *
               *           SCF CONVERGED AFTER   2 CYCLES          *
               *****************************************************

Setting up the final grid:

General Integration Accuracy     IntAcc      ...  5.010
Radial Grid Type                 RadialGrid  ... Gauss-Chebyshev
Angular Grid (max. acc.)         AngularGrid ... Lebedev-434
Angular grid pruning method      GridPruning ... 3 (G Style)
Weight generation scheme         WeightScheme... Becke
Basis function cutoff            BFCut       ...    1.0000e-10
Integration weight cutoff        WCut        ...    1.0000e-14
Grids for H and He will be reduced by one unit

# of grid points (after initial pruning)     ...  48308 (   0.0 sec)
# of grid points (after weights+screening)   ...  47533 (   0.0 sec)
nearest neighbour list constructed           ...    0.0 sec
Grid point re-assignment to atoms done       ...    0.0 sec
Grid point division into batches done        ...    0.3 sec
Reduced shell lists constructed in    0.4 sec

Total number of grid points                  ...    47533
Total number of batches                      ...      746
Average number of points per batch           ...       63
Average number of grid points per atom       ...     7922
Average number of shells per batch           ...    10.81 (54.03%)
Average number of basis functions per batch  ...    18.62 (51.71%)
Average number of large shells per batch     ...     8.64 (79.96%)
Average number of large basis fcns per batch ...    15.39 (82.70%)
Maximum spatial batch extension              ...  20.19, 17.74, 17.35 au
Average spatial batch extension              ...   2.70,  2.63,  2.56 au

Final grid set up in    0.4 sec
Final integration                            ... done (   0.3 sec)
Change in XC energy                          ...    -0.000234549
Integrated number of electrons               ...    18.000000435
Previous integrated no of electrons          ...    17.999986467
Total Energy       :         -115.35658737 Eh           -3139.01233 eV
  Last Energy change         ...   -7.4226e-08  Tolerance :   1.0000e-06
  Last MAX-Density change    ...    8.7907e-05  Tolerance :   1.0000e-05
             **** THE GBW FILE WAS UPDATED (CH3OH.gbw) ****
             **** DENSITY FILE WAS UPDATED (CH3OH.scfp) ****
             **** ENERGY FILE WAS UPDATED (CH3OH.en.tmp) ****
             **** THE GBW FILE WAS UPDATED (CH3OH.gbw) ****
             **** DENSITY FILE WAS UPDATED (CH3OH.scfp) ****
Total SCF time: 0 days 0 hours 0 min 1 sec 

-------------------------   --------------------
FINAL SINGLE POINT ENERGY      -115.356587370542
-------------------------   --------------------

Storing actual gbw-file in CH3OH.046.gbw ... done

                            ***************************************
                            *     ORCA property calculations      *
                            ***************************************

                                    ---------------------
                                    Active property flags
                                    ---------------------
   (+) Dipole Moment


------------------------------------------------------------------------------
                       ORCA ELECTRIC PROPERTIES CALCULATION
------------------------------------------------------------------------------

Dipole Moment Calculation                       ... on
Quadrupole Moment Calculation                   ... off
Polarizability Calculation                      ... off
GBWName                                         ... CH3OH.gbw
Electron density file                           ... CH3OH.scfp
The origin for moment calculation is the CENTER OF MASS  = ( 5.374634,  0.024286  0.044149)

-------------
DIPOLE MOMENT
-------------
                                X             Y             Z
Electronic contribution:      3.97743      -0.05038      -0.09175
Nuclear contribution   :     -6.31863       0.33484       0.60872
                        -----------------------------------------
Total Dipole Moment    :     -2.34120       0.28446       0.51697
                        -----------------------------------------
Magnitude (a.u.)       :      2.41441
Magnitude (Debye)      :      6.13695



--------------------
Rotational spectrum 
--------------------
 
Rotational constants in cm-1:     4.250377     0.069239     0.069024 
Rotational constants in MHz : 127423.099661  2075.743730  2069.287072 

 Dipole components along the rotational axes: 
x,y,z [a.u.] :    -2.334290     0.616837     0.000059 
x,y,z [Debye]:    -5.933293     1.567876     0.000149 

 
                              **** TRAJECTORY DONE ***

                         SUMMARY OF THE CALCULATED SURFACE

------------------
TRAJECTORY RESULTS
------------------

Column   1: R

The Calculated Surface using the 'Actual Energy'
   0.90620000 -115.11979762
   1.00620000 -115.40107593
   1.10620000 -115.55458046
   1.20620000 -115.63355284
   1.30620000 -115.66878514
   1.40620000 -115.67846016
   1.50620000 -115.67341131
   1.60620000 -115.66021377
   1.70620000 -115.64284166
   1.80620000 -115.62368467
   1.90620000 -115.60402171
   2.00620000 -115.58473834
   2.10620000 -115.56621380
   2.20620000 -115.54872512
   2.30620000 -115.53240452
   2.40620000 -115.51725330
   2.50620000 -115.50325954
   2.60620000 -115.49037383
   2.70620000 -115.47848933
   2.80620000 -115.46751743
   2.90620000 -115.45738136
   3.00620000 -115.44800805
   3.10620000 -115.43932364
   3.20620000 -115.43127728
   3.30620000 -115.42382315
   3.40620000 -115.41693181
   3.50620000 -115.41058269
   3.60620000 -115.40474430
   3.70620000 -115.39939839
   3.80620000 -115.39452705
   3.90620000 -115.39010267
   4.00620000 -115.38609763
   4.10620000 -115.38247864
   4.20620000 -115.37920703
   4.30620000 -115.37624900
   4.40620000 -115.37357051
   4.50620000 -115.37114033
   4.60620000 -115.36893113
   4.70620000 -115.36691876
   4.80620000 -115.36507849
   4.90620000 -115.36338619
   5.00620000 -115.36182493
   5.10620000 -115.36037865
   5.20620000 -115.35903169
   5.30620000 -115.35777163
   5.40620000 -115.35658737

The Calculated Surface using the SCF energy
   0.90620000 -115.11979762
   1.00620000 -115.40107593
   1.10620000 -115.55458046
   1.20620000 -115.63355284
   1.30620000 -115.66878514
   1.40620000 -115.67846016
   1.50620000 -115.67341131
   1.60620000 -115.66021377
   1.70620000 -115.64284166
   1.80620000 -115.62368467
   1.90620000 -115.60402171
   2.00620000 -115.58473834
   2.10620000 -115.56621380
   2.20620000 -115.54872512
   2.30620000 -115.53240452
   2.40620000 -115.51725330
   2.50620000 -115.50325954
   2.60620000 -115.49037383
   2.70620000 -115.47848933
   2.80620000 -115.46751743
   2.90620000 -115.45738136
   3.00620000 -115.44800805
   3.10620000 -115.43932364
   3.20620000 -115.43127728
   3.30620000 -115.42382315
   3.40620000 -115.41693181
   3.50620000 -115.41058269
   3.60620000 -115.40474430
   3.70620000 -115.39939839
   3.80620000 -115.39452705
   3.90620000 -115.39010267
   4.00620000 -115.38609763
   4.10620000 -115.38247864
   4.20620000 -115.37920703
   4.30620000 -115.37624900
   4.40620000 -115.37357051
   4.50620000 -115.37114033
   4.60620000 -115.36893113
   4.70620000 -115.36691876
   4.80620000 -115.36507849
   4.90620000 -115.36338619
   5.00620000 -115.36182493
   5.10620000 -115.36037865
   5.20620000 -115.35903169
   5.30620000 -115.35777163
   5.40620000 -115.35658737


Timings for individual modules:

Sum of individual times         ...      145.344 sec (=   2.422 min)
GTO integral calculation        ...       11.213 sec (=   0.187 min)   7.7 %
SCF iterations                  ...      134.131 sec (=   2.236 min)  92.3 %
                             ****ORCA TERMINATED NORMALLY****
TOTAL RUN TIME: 0 days 0 hours 2 minutes 29 seconds 424 msec
