
                                 *****************
                                 * O   R   C   A *
                                 *****************

           --- An Ab Initio, DFT and Semiempirical electronic structure package ---

                  #######################################################
                  #                        -***-                        #
                  #          Department of theory and spectroscopy      #
                  #               Directorship: Frank Neese             #
                  #        Max Planck Institute fuer Kohlenforschung    #
                  #                Kaiser Wilhelm Platz 1               #
                  #                 D-45470 Muelheim/Ruhr               #
                  #                      Germany                        #
                  #                                                     #
                  #                  All rights reserved                #
                  #                        -***-                        #
                  #######################################################


                         Program Version 4.2.0 -  RELEASE  -


 With contributions from (in alphabetic order):
   Daniel Aravena         : Magnetic Suceptibility
   Michael Atanasov       : Ab Initio Ligand Field Theory (pilot matlab implementation)
   Alexander A. Auer      : GIAO ZORA, VPT2
   Ute Becker             : Parallelization
   Giovanni Bistoni       : ED, misc. LED, open-shell LED, HFLED
   Martin Brehm           : Molecular dynamics
   Dmytro Bykov           : SCF Hessian
   Vijay G. Chilkuri      : MRCI spin determinant printing, contributions to CSF-ICE
   Dipayan Datta          : RHF DLPNO-CCSD density
   Achintya Kumar Dutta   : EOM-CC, STEOM-CC
   Dmitry Ganyushin       : Spin-Orbit,Spin-Spin,Magnetic field MRCI
   Miquel Garcia          : C-PCM Hessian, Gaussian charge scheme
   Yang Guo               : DLPNO-NEVPT2, CIM, IAO-localization
   Andreas Hansen         : Spin unrestricted coupled pair/coupled cluster methods
   Benjamin Helmich-Paris : CASSCF linear response (MC-RPA)
   Lee Huntington         : MR-EOM, pCC
   Robert Izsak           : Overlap fitted RIJCOSX, COSX-SCS-MP3, EOM
   Christian Kollmar      : KDIIS, OOCD, Brueckner-CCSD(T), CCSD density
   Simone Kossmann        : Meta GGA functionals, TD-DFT gradient, OOMP2, MP2 Hessian
   Martin Krupicka        : AUTO-CI
   Lucas Lang             : DCDCAS
   Dagmar Lenk            : GEPOL surface, SMD
   Dimitrios Liakos       : Extrapolation schemes; Compound Job, initial MDCI parallelization
   Dimitrios Manganas     : Further ROCIS development; embedding schemes
   Dimitrios Pantazis     : SARC Basis sets
   Taras Petrenko         : DFT Hessian,TD-DFT gradient, ASA, ECA, R-Raman, ABS, FL, XAS/XES, NRVS
   Peter Pinski           : DLPNO-MP2, DLPNO-MP2 Gradient
   Christoph Reimann      : Effective Core Potentials
   Marius Retegan         : Local ZFS, SOC
   Christoph Riplinger    : Optimizer, TS searches, QM/MM, DLPNO-CCSD(T), (RO)-DLPNO pert. Triples
   Tobias Risthaus        : Range-separated hybrids, TD-DFT gradient, RPA, STAB
   Michael Roemelt        : Original ROCIS implementation
   Masaaki Saitow         : Open-shell DLPNO-CCSD energy and density
   Barbara Sandhoefer     : DKH picture change effects
   Avijit Sen             : IP-ROCIS
   Kantharuban Sivalingam : CASSCF convergence, NEVPT2, FIC-MRCI
   Bernardo de Souza      : ESD, SOC TD-DFT
   Georgi Stoychev        : AutoAux, RI-MP2 NMR
   Willem Van den Heuvel  : Paramagnetic NMR
   Boris Wezisla          : Elementary symmetry handling
   Frank Wennmohs         : Technical directorship


 We gratefully acknowledge several colleagues who have allowed us to
 interface, adapt or use parts of their codes:
   Stefan Grimme, W. Hujo, H. Kruse,             : VdW corrections, initial TS optimization,
                  C. Bannwarth                     DFT functionals, gCP, sTDA/sTD-DF
   Ed Valeev, F. Pavosevic, A. Kumar             : LibInt (2-el integral package), F12 methods
   Garnet Chan, S. Sharma, J. Yang, R. Olivares  : DMRG
   Ulf Ekstrom                                   : XCFun DFT Library
   Mihaly Kallay                                 : mrcc  (arbitrary order and MRCC methods)
   Andreas Klamt, Michael Diedenhofen            : otool_cosmo (COSMO solvation model)
   Jiri Pittner, Ondrej Demel                    : Mk-CCSD
   Frank Weinhold                                : gennbo (NPA and NBO analysis)
   Christopher J. Cramer and Donald G. Truhlar   : smd solvation model
   Lars Goerigk                                  : TD-DFT with DH, B97 family of functionals
   V. Asgeirsson, H. Jonsson                     : NEB implementation
   FAccTs GmbH                                   : IRC, NEB, NEB-TS, Multilevel, MM, QM/MM, CI optimization
   S Lehtola, MJT Oliveira, MAL Marques          : LibXC Library


 Your calculation uses the libint2 library for the computation of 2-el integrals
 For citations please refer to: http://libint.valeyev.net

 Your ORCA version has been built with support for libXC version: 4.2.3
 For citations please refer to: https://tddft.org/programs/libxc/

 This ORCA versions uses:
   CBLAS   interface :  Fast vector & matrix operations
   LAPACKE interface :  Fast linear algebra routines
   SCALAPACK package :  Parallel linear algebra routines


XCFun DFT library Copyright 2009-2010 Ulf Ekstrom and contributors.
See http://admol.org/xcfun for more information. This is free soft-
ware; see the source code for copying conditions. There is ABSOLUTELY
NO WARRANTY; not even for MERCHANTABILITY or FITNESS FOR A PARTICULAR
PURPOSE. For details see the documentation. Scientific users of this 
library should cite U. Ekstrom, L. Visscher, R. Bast, A. J. Thorvald-
sen and K. Ruud; J.Chem.Theor.Comp. 2010, DOI: 10.1021/ct100117s
XCFun Version 0.99 
----- Orbital basis set information -----
Your calculation utilizes the basis: 6-31G(d)
   H-He, Li-Ne : W. J. Hehre, R. Ditchfield and J.A. Pople, J. Chem. Phys. 56, 2257 (1972).
                 Note: He and Ne are unpublished basis sets taken from the Gaussian program.
                 Note: Li and B from J. D. Dill and J. A. Pople, J. Chem. Phys. 62, 2921 (1975).
   Na - Ar     : M. M. Francl, W. J. Pietro, W. J. Hehre, J. S. Binkley, M. S. Gordon, 
                 D. J. DeFrees and J. A. Pople, J. Chem. Phys. 77, 3654 (1982).
   K - Zn      : V. A. Rassolov, J. A. Pople, M. A. Ratner, and T. L. Windus, J. Chem. Phys. 109, 1223 (1998).

================================================================================
                                        WARNINGS
                       Please study these warnings very carefully!
================================================================================


INFO   : the flag for use of LIBINT has been found!

================================================================================
                                       INPUT FILE
================================================================================
NAME = CH4.inp
|  1> ! wB97X 6-31G(d) KDIIS NOSOSCF VerySlowConv Grid4
|  2> %paras
|  3> R= 0.5822,5.0822,46
|  4> A= 109.47
|  5> end
|  6> * int 0  1
|  7> C 0 0 0 0 0 0
|  8> H  1 0 0 {R} 0 0
|  9> H  1 2 0 {R} {A}    0
| 10> H  1 2 3 {R} {A}  240.00
| 11> H  1 2 3 {R} {A}  120.00
| 12> **                         ****END OF INPUT****
================================================================================

                       ******************************
                       * Parameter Scan Calculation *
                       ******************************

Trajectory settings:
    -> SCF surface will be mapped

There are 1 parameter(s) to be scanned
             R: range=   0.58220000 ..   5.08220000  steps=   46
There will be   46 energy evaluations


         *************************************************************
                                TRAJECTORY STEP   1
                  R  :   0.58220000
         *************************************************************
---------------------------------
CARTESIAN COORDINATES (ANGSTROEM)
---------------------------------
  C      0.000000    0.000000    0.000000
  H      0.582200    0.000000    0.000000
  H     -0.194055    0.548908    0.000000
  H     -0.194055   -0.274454    0.475368
  H     -0.194055   -0.274454   -0.475368

----------------------------
CARTESIAN COORDINATES (A.U.)
----------------------------
  NO LB      ZA    FRAG     MASS         X           Y           Z
   0 C     6.0000    0    12.011    0.000000    0.000000    0.000000
   1 H     1.0000    0     1.008    1.100199    0.000000    0.000000
   2 H     1.0000    0     1.008   -0.366711    1.037285    0.000000
   3 H     1.0000    0     1.008   -0.366711   -0.518642    0.898315
   4 H     1.0000    0     1.008   -0.366711   -0.518642   -0.898315

--------------------------------
INTERNAL COORDINATES (ANGSTROEM)
--------------------------------
 C      0   0   0     0.000000000000     0.00000000     0.00000000
 H      1   0   0     0.582200000000     0.00000000     0.00000000
 H      1   2   0     0.582200000000   109.47000000     0.00000000
 H      1   2   3     0.582200000000   109.47000000   240.00000000
 H      1   2   3     0.582200000000   109.47000000   120.00000000

---------------------------
INTERNAL COORDINATES (A.U.)
---------------------------
 C      0   0   0     0.000000000000     0.00000000     0.00000000
 H      1   0   0     1.100198555169     0.00000000     0.00000000
 H      1   2   0     1.100198555169   109.47000000     0.00000000
 H      1   2   3     1.100198555169   109.47000000   240.00000000
 H      1   2   3     1.100198555169   109.47000000   120.00000000

---------------------
BASIS SET INFORMATION
---------------------
There are 2 groups of distinct atoms

 Group   1 Type C   : 10s4p1d contracted to 3s2p1d pattern {631/31/1}
 Group   2 Type H   : 4s contracted to 2s pattern {31}

Atom   0C    basis set group =>   1
Atom   1H    basis set group =>   2
Atom   2H    basis set group =>   2
Atom   3H    basis set group =>   2
Atom   4H    basis set group =>   2
------------------------------------------------------------------------------
                           ORCA GTO INTEGRAL CALCULATION
------------------------------------------------------------------------------

                         BASIS SET STATISTICS AND STARTUP INFO

 # of primitive gaussian shells          ...   31
 # of primitive gaussian functions       ...   43
 # of contracted shells                  ...   14
 # of contracted basis functions         ...   22
 Highest angular momentum                ...    2
 Maximum contraction depth               ...    6
 Integral package used                   ... LIBINT
 Integral threshhold            Thresh   ...  1.000e-10
 Primitive cut-off              TCut     ...  1.000e-11


------------------------------ INTEGRAL EVALUATION ----------------------------


 * One electron integrals 
 Pre-screening matrix                    ... done
 Shell pair data                         ... done (   0.000 sec)

-------------------------------------------------------------------------------
                                 ORCA SCF
-------------------------------------------------------------------------------

------------
SCF SETTINGS
------------
Hamiltonian:
 Density Functional     Method          .... DFT(GTOs)
 Exchange Functional    Exchange        .... WB97X
 Correlation Functional Correlation     .... WB97X
 Gradients option       PostSCFGGA      .... off
 Hybrid DFT is turned on
   Fraction HF Exchange ScalHFX         ....  0.157706
   Scaling of DF-GGA-X  ScalDFX         ....  0.000000
   Scaling of DF-GGA-C  ScalDFC         ....  1.000000
   Scaling of DF-LDA-C  ScalLDAC        ....  1.000000
   Perturbative correction              ....  0.000000
   Density functional embedding theory  .... OFF
 Long-range corrected/Screened/Range-Separated Hybrid DFT is turned on
   Amount of maximum screened exact exchange              ....  0.842294
   Range separation parameter mu (erf(mu*r12)/r12)        ....  0.300000


General Settings:
 Integral files         IntName         .... CH4
 Hartree-Fock type      HFTyp           .... RHF
 Total Charge           Charge          ....    0
 Multiplicity           Mult            ....    1
 Number of Electrons    NEL             ....   10
 Basis Dimension        Dim             ....   22
 Nuclear Repulsion      ENuc            ....     25.1538547155 Eh

Convergence Acceleration:
 DIIS                   CNVDIIS         .... on
   Start iteration      DIISMaxIt       ....     0
   Startup error        DIISStart       ....  0.200000
   # of expansion vecs  DIISMaxEq       ....     5
   Bias factor          DIISBfac        ....   1.050
   Max. coefficient     DIISMaxC        ....  10.000
 Newton-Raphson         CNVNR           .... off
 SOSCF                  CNVSOSCF        .... off
 Level Shifting         CNVShift        .... off
 Zerner damping         CNVZerner       .... off
 Static damping         CNVDamp         .... off
 Fernandez-Rico         CNVRico         .... off

SCF Procedure:
 Maximum # iterations   MaxIter         ....   125
 SCF integral mode      SCFMode         .... Direct
   Integral package                     .... LIBINT
 Reset frequency        DirectResetFreq ....    20
 Integral Threshold     Thresh          ....  1.000e-10 Eh
 Primitive CutOff       TCut            ....  1.000e-11 Eh

Convergence Tolerance:
 Convergence Check Mode ConvCheckMode   .... All-Criteria
 Convergence forced     ConvForced      .... 0
 Energy Change          TolE            ....  1.000e-06 Eh
 Max Density Change     TolMaxP         ....  1.000e-05
 RMS Density Change     TolRMSP         ....  1.000e-06
 DIIS Error             TolErr          ....  1.000e-06


Diagonalization of the overlap matrix:
Smallest eigenvalue                        ... 2.623e-03
Time for diagonalization                   ...    0.000 sec
Threshold for overlap eigenvalues          ... 1.000e-08
Number of eigenvalues below threshold      ... 0
Time for construction of square roots      ...    0.000 sec
Total time needed                          ...    0.001 sec

-------------------
DFT GRID GENERATION
-------------------

General Integration Accuracy     IntAcc      ...  4.670
Radial Grid Type                 RadialGrid  ... Gauss-Chebyshev
Angular Grid (max. acc.)         AngularGrid ... Lebedev-302
Angular grid pruning method      GridPruning ... 3 (G Style)
Weight generation scheme         WeightScheme... Becke
Basis function cutoff            BFCut       ...    1.0000e-10
Integration weight cutoff        WCut        ...    1.0000e-14
Grids for H and He will be reduced by one unit

# of grid points (after initial pruning)     ...  19788 (   0.0 sec)
# of grid points (after weights+screening)   ...  18988 (   0.0 sec)
nearest neighbour list constructed           ...    0.0 sec
Grid point re-assignment to atoms done       ...    0.0 sec
Grid point division into batches done        ...    0.1 sec
Reduced shell lists constructed in    0.1 sec

Total number of grid points                  ...    18988
Total number of batches                      ...      299
Average number of points per batch           ...       63
Average number of grid points per atom       ...     3798
Average number of shells per batch           ...    12.17 (86.93%)
Average number of basis functions per batch  ...    19.15 (87.05%)
Average number of large shells per batch     ...    11.69 (96.06%)
Average number of large basis fcns per batch ...    18.41 (96.14%)
Maximum spatial batch extension              ...  20.64, 20.64, 20.64 au
Average spatial batch extension              ...   3.28,  3.12,  2.99 au

Time for grid setup =    0.100 sec

------------------------------
INITIAL GUESS: MODEL POTENTIAL
------------------------------
Loading Hartree-Fock densities                     ... done
Calculating cut-offs                               ... done
Setting up the integral package                    ... done
Initializing the effective Hamiltonian             ... done
Starting the Coulomb interaction                   ... done (   0.0 sec)
Reading the grid                                   ... done
Mapping shells                                     ... done
Starting the XC term evaluation                    ... done (   0.0 sec)
  promolecular density results
     # of electrons  =      9.997843621
     EX              =     -6.711796026
     EC              =     -0.321155290
     EX+EC           =     -7.032951316
Transforming the Hamiltonian                       ... done (   0.0 sec)
Diagonalizing the Hamiltonian                      ... done (   0.0 sec)
Back transforming the eigenvectors                 ... done (   0.0 sec)
Now organizing SCF variables                       ... done
                      ------------------
                      INITIAL GUESS DONE (   0.2 sec)
                      ------------------
--------------
SCF ITERATIONS
--------------
ITER       Energy         Delta-E        Max-DP      RMS-DP      [F,P]   Gradient Norm
               ***  Starting incremental Fock matrix formation  ***
                             ****Resetting KDIIS****
                             ****Turning on KDIIS(Cayley)****
  0    -38.1007142171   0.000000000000 0.13919775  0.01151611  0.2032722   0.258021648
  1    -38.1804268743  -0.079712657221 0.15082954  0.01209974  0.1682172   0.219419551
  2    -38.2479519972  -0.067525122875 0.19050042  0.01748627  0.1350865   0.180745141
  3    -38.3329549804  -0.085002983236 0.18649004  0.02239668  0.0822667   0.114846539
Warning: badly conditioned DIIS matrix, 1 vectors out of 5 destroyed
Warning: badly conditioned DIIS matrix, 1 vectors out of 4 destroyed
  4    -38.3906967574  -0.057741777030 0.06881905  0.00903983  0.0114320   0.010159213
  5    -38.3869701574   0.003726600089 0.15715256  0.02175436  0.0277656   0.025426492
Warning: badly conditioned DIIS matrix, 1 vectors out of 5 destroyed
  6    -38.3908056308  -0.003835473479 0.04212417  0.00628316  0.0106569   0.009732406
  7    -38.3914394433  -0.000633812465 0.00022572  0.00002833  0.0000515   0.000057164
Warning: badly conditioned DIIS matrix, 1 vectors out of 5 destroyed
                          ***Energy convergence achieved***
  8    -38.3914394651  -0.000000021791 0.00009566  0.00001237  0.0000131   0.000015902
Warning: badly conditioned DIIS matrix, 1 vectors out of 5 destroyed
Warning: badly conditioned DIIS matrix, 1 vectors out of 4 destroyed

            ***Energy convergence in two consecutive cycles with***
                    ***'reasonable' density convergence***
                       *** signaling convergence ***

                    *** KDIIS BlockDiag ( 2.335 sec) ***

               *****************************************************
               *                     SUCCESS                       *
               *           SCF CONVERGED AFTER   9 CYCLES          *
               *****************************************************

Setting up the final grid:

General Integration Accuracy     IntAcc      ...  5.010
Radial Grid Type                 RadialGrid  ... Gauss-Chebyshev
Angular Grid (max. acc.)         AngularGrid ... Lebedev-434
Angular grid pruning method      GridPruning ... 3 (G Style)
Weight generation scheme         WeightScheme... Becke
Basis function cutoff            BFCut       ...    1.0000e-10
Integration weight cutoff        WCut        ...    1.0000e-14
Grids for H and He will be reduced by one unit

# of grid points (after initial pruning)     ...  37466 (   0.0 sec)
# of grid points (after weights+screening)   ...  35761 (   0.0 sec)
nearest neighbour list constructed           ...    0.0 sec
Grid point re-assignment to atoms done       ...    0.0 sec
Grid point division into batches done        ...    0.2 sec
Reduced shell lists constructed in    0.3 sec

Total number of grid points                  ...    35761
Total number of batches                      ...      560
Average number of points per batch           ...       63
Average number of grid points per atom       ...     7152
Average number of shells per batch           ...    11.95 (85.38%)
Average number of basis functions per batch  ...    18.78 (85.37%)
Average number of large shells per batch     ...    11.48 (96.02%)
Average number of large basis fcns per batch ...    18.07 (96.19%)
Maximum spatial batch extension              ...  16.89, 19.14, 19.88 au
Average spatial batch extension              ...   2.57,  2.54,  2.55 au

Final grid set up in    0.3 sec
Final integration                            ... done (   0.2 sec)
Change in XC energy                          ...    -0.000060810
Integrated number of electrons               ...     9.999997680
Previous integrated no of electrons          ...     9.999975611

----------------
TOTAL SCF ENERGY
----------------

Total Energy       :          -38.39150028 Eh           -1044.68583 eV

Components:
Nuclear Repulsion  :           25.15385472 Eh             684.47118 eV
Electronic Energy  :          -63.54535499 Eh           -1729.15702 eV
One Electron Energy:          -97.51547306 Eh           -2653.53092 eV
Two Electron Energy:           33.97011807 Eh             924.37391 eV

Virial components:
Potential Energy   :          -84.37955971 Eh           -2296.08455 eV
Kinetic Energy     :           45.98805943 Eh            1251.39872 eV
Virial Ratio       :            1.83481453


DFT components:
N(Alpha)           :        4.999998839788 electrons
N(Beta)            :        4.999998839788 electrons
N(Total)           :        9.999997679576 electrons
E(XC)              :       -5.437145467024 Eh       
DFET-embed. en.    :        0.000000000000 Eh       

---------------
SCF CONVERGENCE
---------------

  Last Energy change         ...   -1.8653e-09  Tolerance :   1.0000e-06
  Last MAX-Density change    ...    3.2445e-05  Tolerance :   1.0000e-05
  Last RMS-Density change    ...    4.1367e-06  Tolerance :   1.0000e-06
  Last DIIS Error            ...    3.3551e-06  Tolerance :   1.0000e-06

             **** THE GBW FILE WAS UPDATED (CH4.gbw) ****
             **** DENSITY FILE WAS UPDATED (CH4.scfp) ****
             **** ENERGY FILE WAS UPDATED (CH4.en.tmp) ****
             **** THE GBW FILE WAS UPDATED (CH4.gbw) ****
             **** DENSITY FILE WAS UPDATED (CH4.scfp) ****
----------------
ORBITAL ENERGIES
----------------

  NO   OCC          E(Eh)            E(eV) 
   0   2.0000     -10.184914      -277.1456 
   1   2.0000      -0.991410       -26.9776 
   2   2.0000      -0.614511       -16.7217 
   3   2.0000      -0.614511       -16.7217 
   4   2.0000      -0.614507       -16.7216 
   5   0.0000       0.280958         7.6453 
   6   0.0000       0.423401        11.5213 
   7   0.0000       0.423410        11.5216 
   8   0.0000       0.423410        11.5216 
   9   0.0000       0.566770        15.4226 
  10   0.0000       0.566785        15.4230 
  11   0.0000       0.566820        15.4240 
  12   0.0000       1.235250        33.6129 
  13   0.0000       1.596262        43.4365 
  14   0.0000       1.596270        43.4367 
  15   0.0000       1.596271        43.4367 
  16   0.0000       1.643525        44.7226 
  17   0.0000       1.643529        44.7227 
  18   0.0000       3.626172        98.6732 
  19   0.0000       4.145967       112.8175 
  20   0.0000       4.145967       112.8175 
  21   0.0000       4.145977       112.8178 

                    ********************************
                    * MULLIKEN POPULATION ANALYSIS *
                    ********************************

-----------------------
MULLIKEN ATOMIC CHARGES
-----------------------
   0 C :   -0.068837
   1 H :    0.017210
   2 H :    0.017208
   3 H :    0.017210
   4 H :    0.017210
Sum of atomic charges:    0.0000000

--------------------------------
MULLIKEN REDUCED ORBITAL CHARGES
--------------------------------
  0 C s       :     2.139733  s :     2.139733
      pz      :     1.300462  p :     3.901337
      px      :     1.300453
      py      :     1.300423
      dz2     :     0.006942  d :     0.027766
      dxz     :     0.003085
      dyz     :     0.006171
      dx2y2   :     0.008485
      dxy     :     0.003084
  1 H s       :     0.982790  s :     0.982790
  2 H s       :     0.982792  s :     0.982792
  3 H s       :     0.982790  s :     0.982790
  4 H s       :     0.982790  s :     0.982790


                     *******************************
                     * LOEWDIN POPULATION ANALYSIS *
                     *******************************

----------------------
LOEWDIN ATOMIC CHARGES
----------------------
   0 C :   -0.709880
   1 H :    0.177476
   2 H :    0.177467
   3 H :    0.177469
   4 H :    0.177469

-------------------------------
LOEWDIN REDUCED ORBITAL CHARGES
-------------------------------
  0 C s       :     2.628251  s :     2.628251
      pz      :     1.345994  p :     4.037991
      px      :     1.346006
      py      :     1.345991
      dz2     :     0.010910  d :     0.043638
      dxz     :     0.004848
      dyz     :     0.009698
      dx2y2   :     0.013335
      dxy     :     0.004847
  1 H s       :     0.822524  s :     0.822524
  2 H s       :     0.822533  s :     0.822533
  3 H s       :     0.822531  s :     0.822531
  4 H s       :     0.822531  s :     0.822531


                      *****************************
                      * MAYER POPULATION ANALYSIS *
                      *****************************

  NA   - Mulliken gross atomic population
  ZA   - Total nuclear charge
  QA   - Mulliken gross atomic charge
  VA   - Mayer's total valence
  BVA  - Mayer's bonded valence
  FA   - Mayer's free valence

  ATOM       NA         ZA         QA         VA         BVA        FA
  0 C      6.0688     6.0000    -0.0688     2.9294     2.9294     0.0000
  1 H      0.9828     1.0000     0.0172     0.9838     0.9838    -0.0000
  2 H      0.9828     1.0000     0.0172     0.9838     0.9838     0.0000
  3 H      0.9828     1.0000     0.0172     0.9838     0.9838     0.0000
  4 H      0.9828     1.0000     0.0172     0.9838     0.9838    -0.0000

  Mayer bond orders larger than 0.100000
B(  0-C ,  1-H ) :   0.7323 B(  0-C ,  2-H ) :   0.7324 B(  0-C ,  3-H ) :   0.7323 
B(  0-C ,  4-H ) :   0.7323 

-------
TIMINGS
-------

Total SCF time: 0 days 0 hours 0 min 2 sec 

Total time                  ....       2.835 sec
Sum of individual times     ....       2.693 sec  ( 95.0%)

Fock matrix formation       ....       2.168 sec  ( 76.5%)
  XC integration            ....       1.310 sec  ( 60.4% of F)
    Basis function eval.    ....       0.268 sec  ( 20.4% of XC)
    Density eval.           ....       0.082 sec  (  6.3% of XC)
    XC-Functional eval.     ....       0.846 sec  ( 64.6% of XC)
    XC-Potential eval.      ....       0.060 sec  (  4.6% of XC)
Diagonalization             ....       0.003 sec  (  0.1%)
Density matrix formation    ....       0.000 sec  (  0.0%)
Population analysis         ....       0.001 sec  (  0.0%)
Initial guess               ....       0.129 sec  (  4.5%)
Orbital Transformation      ....       0.000 sec  (  0.0%)
Orbital Orthonormalization  ....       0.000 sec  (  0.0%)
DIIS solution               ....       0.000 sec  (  0.0%)
Grid generation             ....       0.392 sec  ( 13.8%)

-------------------------   --------------------
FINAL SINGLE POINT ENERGY       -38.391500277316
-------------------------   --------------------

Storing actual gbw-file in CH4.001.gbw ... done

                            ***************************************
                            *     ORCA property calculations      *
                            ***************************************

                                    ---------------------
                                    Active property flags
                                    ---------------------
   (+) Dipole Moment


------------------------------------------------------------------------------
                       ORCA ELECTRIC PROPERTIES CALCULATION
------------------------------------------------------------------------------

Dipole Moment Calculation                       ... on
Quadrupole Moment Calculation                   ... off
Polarizability Calculation                      ... off
GBWName                                         ... CH4.gbw
Electron density file                           ... CH4.scfp
The origin for moment calculation is the CENTER OF MASS  = ( 0.000004, -0.000000 -0.000000)

-------------
DIPOLE MOMENT
-------------
                                X             Y             Z
Electronic contribution:     -0.00000      -0.00002       0.00000
Nuclear contribution   :      0.00002      -0.00000      -0.00000
                        -----------------------------------------
Total Dipole Moment    :      0.00002      -0.00002       0.00000
                        -----------------------------------------
Magnitude (a.u.)       :      0.00003
Magnitude (Debye)      :      0.00008



--------------------
Rotational spectrum 
--------------------
 
Rotational constants in cm-1:    18.502334    18.502334    18.501915 
Rotational constants in MHz : 554686.004917 554686.004917 554673.471481 

 Dipole components along the rotational axes: 
x,y,z [a.u.] :     0.000005     0.000021     0.000025 
x,y,z [Debye]:     0.000013     0.000054     0.000062 

 

         *************************************************************
                                TRAJECTORY STEP   2
                  R  :   0.68220000
         *************************************************************
---------------------------------
CARTESIAN COORDINATES (ANGSTROEM)
---------------------------------
  C      0.000000    0.000000    0.000000
  H      0.682200    0.000000    0.000000
  H     -0.227386    0.643189    0.000000
  H     -0.227386   -0.321595    0.557018
  H     -0.227386   -0.321595   -0.557018

----------------------------
CARTESIAN COORDINATES (A.U.)
----------------------------
  NO LB      ZA    FRAG     MASS         X           Y           Z
   0 C     6.0000    0    12.011    0.000000    0.000000    0.000000
   1 H     1.0000    0     1.008    1.289171    0.000000    0.000000
   2 H     1.0000    0     1.008   -0.429698    1.215451    0.000000
   3 H     1.0000    0     1.008   -0.429698   -0.607726    1.052612
   4 H     1.0000    0     1.008   -0.429698   -0.607726   -1.052612

--------------------------------
INTERNAL COORDINATES (ANGSTROEM)
--------------------------------
 C      0   0   0     0.000000000000     0.00000000     0.00000000
 H      1   0   0     0.682200000000     0.00000000     0.00000000
 H      1   2   0     0.682200000000   109.47000000     0.00000000
 H      1   2   3     0.682200000000   109.47000000   240.00000000
 H      1   2   3     0.682200000000   109.47000000   120.00000000

---------------------------
INTERNAL COORDINATES (A.U.)
---------------------------
 C      0   0   0     0.000000000000     0.00000000     0.00000000
 H      1   0   0     1.289171168561     0.00000000     0.00000000
 H      1   2   0     1.289171168561   109.47000000     0.00000000
 H      1   2   3     1.289171168561   109.47000000   240.00000000
 H      1   2   3     1.289171168561   109.47000000   120.00000000


Diagonalization of the overlap matrix:
Smallest eigenvalue                        ... 4.172e-03
Time for diagonalization                   ...    0.000 sec
Threshold for overlap eigenvalues          ... 1.000e-08
Number of eigenvalues below threshold      ... 0
Time for construction of square roots      ...    0.000 sec
Total time needed                          ...    0.001 sec

-------------------
DFT GRID GENERATION
-------------------

General Integration Accuracy     IntAcc      ...  4.670
Radial Grid Type                 RadialGrid  ... Gauss-Chebyshev
Angular Grid (max. acc.)         AngularGrid ... Lebedev-302
Angular grid pruning method      GridPruning ... 3 (G Style)
Weight generation scheme         WeightScheme... Becke
Basis function cutoff            BFCut       ...    1.0000e-10
Integration weight cutoff        WCut        ...    1.0000e-14
Grids for H and He will be reduced by one unit

# of grid points (after initial pruning)     ...  19788 (   0.0 sec)
# of grid points (after weights+screening)   ...  19073 (   0.0 sec)
nearest neighbour list constructed           ...    0.0 sec
Grid point re-assignment to atoms done       ...    0.0 sec
Grid point division into batches done        ...    0.1 sec
Reduced shell lists constructed in    0.1 sec

Total number of grid points                  ...    19073
Total number of batches                      ...      300
Average number of points per batch           ...       63
Average number of grid points per atom       ...     3815
Average number of shells per batch           ...    12.13 (86.64%)
Average number of basis functions per batch  ...    19.08 (86.73%)
Average number of large shells per batch     ...    11.63 (95.89%)
Average number of large basis fcns per batch ...    18.30 (95.93%)
Maximum spatial batch extension              ...  20.64, 20.64, 20.64 au
Average spatial batch extension              ...   3.36,  3.16,  3.02 au

Time for grid setup =    0.100 sec

--------------
SCF ITERATIONS
--------------
ITER       Energy         Delta-E        Max-DP      RMS-DP      [F,P]   Gradient Norm
               ***  Starting incremental Fock matrix formation  ***
                             ****Resetting KDIIS****
                             ****Turning on KDIIS(Cayley)****
  0    -39.4349765824   0.000000000000 0.03017567  0.00276961  0.0587589   0.076705865
  1    -39.4409931896  -0.006016607132 0.04506717  0.00428996  0.0511546   0.067174094
  2    -39.4477549021  -0.006761712543 0.05558206  0.00644738  0.0409330   0.054256976
  3    -39.4558258890  -0.008070986924 0.07488933  0.00860243  0.0245102   0.032787319
Warning: badly conditioned DIIS matrix, 1 vectors out of 5 destroyed
Warning: badly conditioned DIIS matrix, 1 vectors out of 4 destroyed
  4    -39.4604623845  -0.004636495457 0.00038817  0.00006385  0.0002335   0.000259397
                          ***Energy convergence achieved***
  5    -39.4604626751  -0.000000290593 0.00077211  0.00012226  0.0001391   0.000151341
Warning: badly conditioned DIIS matrix, 1 vectors out of 5 destroyed
Warning: badly conditioned DIIS matrix, 1 vectors out of 4 destroyed

            ***Energy convergence in two consecutive cycles with***
                    ***'reasonable' density convergence***
                       *** signaling convergence ***

                    *** KDIIS BlockDiag ( 1.664 sec) ***

               *****************************************************
               *                     SUCCESS                       *
               *           SCF CONVERGED AFTER   6 CYCLES          *
               *****************************************************

Setting up the final grid:

General Integration Accuracy     IntAcc      ...  5.010
Radial Grid Type                 RadialGrid  ... Gauss-Chebyshev
Angular Grid (max. acc.)         AngularGrid ... Lebedev-434
Angular grid pruning method      GridPruning ... 3 (G Style)
Weight generation scheme         WeightScheme... Becke
Basis function cutoff            BFCut       ...    1.0000e-10
Integration weight cutoff        WCut        ...    1.0000e-14
Grids for H and He will be reduced by one unit

# of grid points (after initial pruning)     ...  37466 (   0.0 sec)
# of grid points (after weights+screening)   ...  35957 (   0.0 sec)
nearest neighbour list constructed           ...    0.0 sec
Grid point re-assignment to atoms done       ...    0.0 sec
Grid point division into batches done        ...    0.2 sec
Reduced shell lists constructed in    0.3 sec

Total number of grid points                  ...    35957
Total number of batches                      ...      565
Average number of points per batch           ...       63
Average number of grid points per atom       ...     7191
Average number of shells per batch           ...    11.94 (85.29%)
Average number of basis functions per batch  ...    18.76 (85.27%)
Average number of large shells per batch     ...    11.46 (95.96%)
Average number of large basis fcns per batch ...    18.03 (96.11%)
Maximum spatial batch extension              ...  17.81, 19.14, 19.88 au
Average spatial batch extension              ...   2.55,  2.57,  2.55 au

Final grid set up in    0.3 sec
Final integration                            ... done (   0.2 sec)
Change in XC energy                          ...     0.000062205
Integrated number of electrons               ...     9.999999589
Previous integrated no of electrons          ...     9.999978721
Total Energy       :          -39.46040064 Eh           -1073.77209 eV
  Last Energy change         ...   -1.7332e-07  Tolerance :   1.0000e-06
  Last MAX-Density change    ...    6.1339e-05  Tolerance :   1.0000e-05
             **** THE GBW FILE WAS UPDATED (CH4.gbw) ****
             **** DENSITY FILE WAS UPDATED (CH4.scfp) ****
             **** ENERGY FILE WAS UPDATED (CH4.en.tmp) ****
             **** THE GBW FILE WAS UPDATED (CH4.gbw) ****
             **** DENSITY FILE WAS UPDATED (CH4.scfp) ****
Total SCF time: 0 days 0 hours 0 min 2 sec 

-------------------------   --------------------
FINAL SINGLE POINT ENERGY       -39.460400643377
-------------------------   --------------------

Storing actual gbw-file in CH4.002.gbw ... done

                            ***************************************
                            *     ORCA property calculations      *
                            ***************************************

                                    ---------------------
                                    Active property flags
                                    ---------------------
   (+) Dipole Moment


------------------------------------------------------------------------------
                       ORCA ELECTRIC PROPERTIES CALCULATION
------------------------------------------------------------------------------

Dipole Moment Calculation                       ... on
Quadrupole Moment Calculation                   ... off
Polarizability Calculation                      ... off
GBWName                                         ... CH4.gbw
Electron density file                           ... CH4.scfp
The origin for moment calculation is the CENTER OF MASS  = ( 0.000005, -0.000000 -0.000000)

-------------
DIPOLE MOMENT
-------------
                                X             Y             Z
Electronic contribution:     -0.00002       0.00001       0.00000
Nuclear contribution   :      0.00003       0.00000      -0.00000
                        -----------------------------------------
Total Dipole Moment    :      0.00001       0.00001       0.00000
                        -----------------------------------------
Magnitude (a.u.)       :      0.00002
Magnitude (Debye)      :      0.00004



--------------------
Rotational spectrum 
--------------------
 
Rotational constants in cm-1:    13.475580    13.475580    13.475276 
Rotational constants in MHz : 403987.735325 403987.735325 403978.607000 

 Dipole components along the rotational axes: 
x,y,z [a.u.] :     0.000000     0.000012    -0.000010 
x,y,z [Debye]:     0.000000     0.000031    -0.000026 

 

         *************************************************************
                                TRAJECTORY STEP   3
                  R  :   0.78220000
         *************************************************************
---------------------------------
CARTESIAN COORDINATES (ANGSTROEM)
---------------------------------
  C      0.000000    0.000000    0.000000
  H      0.782200    0.000000    0.000000
  H     -0.260718    0.737471    0.000000
  H     -0.260718   -0.368735    0.638668
  H     -0.260718   -0.368735   -0.638668

----------------------------
CARTESIAN COORDINATES (A.U.)
----------------------------
  NO LB      ZA    FRAG     MASS         X           Y           Z
   0 C     6.0000    0    12.011    0.000000    0.000000    0.000000
   1 H     1.0000    0     1.008    1.478144    0.000000    0.000000
   2 H     1.0000    0     1.008   -0.492685    1.393618    0.000000
   3 H     1.0000    0     1.008   -0.492685   -0.696809    1.206908
   4 H     1.0000    0     1.008   -0.492685   -0.696809   -1.206908

--------------------------------
INTERNAL COORDINATES (ANGSTROEM)
--------------------------------
 C      0   0   0     0.000000000000     0.00000000     0.00000000
 H      1   0   0     0.782200000000     0.00000000     0.00000000
 H      1   2   0     0.782200000000   109.47000000     0.00000000
 H      1   2   3     0.782200000000   109.47000000   240.00000000
 H      1   2   3     0.782200000000   109.47000000   120.00000000

---------------------------
INTERNAL COORDINATES (A.U.)
---------------------------
 C      0   0   0     0.000000000000     0.00000000     0.00000000
 H      1   0   0     1.478143781953     0.00000000     0.00000000
 H      1   2   0     1.478143781953   109.47000000     0.00000000
 H      1   2   3     1.478143781953   109.47000000   240.00000000
 H      1   2   3     1.478143781953   109.47000000   120.00000000


Diagonalization of the overlap matrix:
Smallest eigenvalue                        ... 6.458e-03
Time for diagonalization                   ...    0.000 sec
Threshold for overlap eigenvalues          ... 1.000e-08
Number of eigenvalues below threshold      ... 0
Time for construction of square roots      ...    0.000 sec
Total time needed                          ...    0.001 sec

-------------------
DFT GRID GENERATION
-------------------

General Integration Accuracy     IntAcc      ...  4.670
Radial Grid Type                 RadialGrid  ... Gauss-Chebyshev
Angular Grid (max. acc.)         AngularGrid ... Lebedev-302
Angular grid pruning method      GridPruning ... 3 (G Style)
Weight generation scheme         WeightScheme... Becke
Basis function cutoff            BFCut       ...    1.0000e-10
Integration weight cutoff        WCut        ...    1.0000e-14
Grids for H and He will be reduced by one unit

# of grid points (after initial pruning)     ...  19788 (   0.0 sec)
# of grid points (after weights+screening)   ...  19144 (   0.0 sec)
nearest neighbour list constructed           ...    0.0 sec
Grid point re-assignment to atoms done       ...    0.0 sec
Grid point division into batches done        ...    0.1 sec
Reduced shell lists constructed in    0.1 sec

Total number of grid points                  ...    19144
Total number of batches                      ...      301
Average number of points per batch           ...       63
Average number of grid points per atom       ...     3829
Average number of shells per batch           ...    12.14 (86.68%)
Average number of basis functions per batch  ...    19.09 (86.77%)
Average number of large shells per batch     ...    11.60 (95.55%)
Average number of large basis fcns per batch ...    18.25 (95.58%)
Maximum spatial batch extension              ...  20.64, 20.64, 20.64 au
Average spatial batch extension              ...   3.35,  3.19,  3.06 au

Time for grid setup =    0.100 sec

--------------
SCF ITERATIONS
--------------
ITER       Energy         Delta-E        Max-DP      RMS-DP      [F,P]   Gradient Norm
               ***  Starting incremental Fock matrix formation  ***
                             ****Resetting KDIIS****
                             ****Turning on KDIIS(Cayley)****
  0    -40.0138011699   0.000000000000 0.01412255  0.00156025  0.0548902   0.060850106
  1    -40.0182976278  -0.004496457912 0.02428242  0.00233033  0.0479815   0.053068087
  2    -40.0232281150  -0.004930487102 0.03926672  0.00375302  0.0385936   0.042951702
  3    -40.0291681710  -0.005940056018 0.05802475  0.00546742  0.0231359   0.025923278
Warning: badly conditioned DIIS matrix, 1 vectors out of 5 destroyed
Warning: badly conditioned DIIS matrix, 1 vectors out of 4 destroyed
  4    -40.0325567297  -0.003388558769 0.00012259  0.00002036  0.0001635   0.000198484
                          ***Energy convergence achieved***
  5    -40.0325568291  -0.000000099356 0.00062426  0.00010674  0.0001273   0.000156315
Warning: badly conditioned DIIS matrix, 1 vectors out of 5 destroyed
Warning: badly conditioned DIIS matrix, 1 vectors out of 4 destroyed
  6    -40.0325570008  -0.000000171664 0.00010148  0.00001804  0.0000278   0.000032764
                           ***RMSP convergence achieved***
                           ***MAXP convergence achieved***
                    *** KDIIS BlockDiag ( 1.849 sec) ***

               *****************************************************
               *                     SUCCESS                       *
               *           SCF CONVERGED AFTER   7 CYCLES          *
               *****************************************************

Setting up the final grid:

General Integration Accuracy     IntAcc      ...  5.010
Radial Grid Type                 RadialGrid  ... Gauss-Chebyshev
Angular Grid (max. acc.)         AngularGrid ... Lebedev-434
Angular grid pruning method      GridPruning ... 3 (G Style)
Weight generation scheme         WeightScheme... Becke
Basis function cutoff            BFCut       ...    1.0000e-10
Integration weight cutoff        WCut        ...    1.0000e-14
Grids for H and He will be reduced by one unit

# of grid points (after initial pruning)     ...  37466 (   0.0 sec)
# of grid points (after weights+screening)   ...  36123 (   0.0 sec)
nearest neighbour list constructed           ...    0.0 sec
Grid point re-assignment to atoms done       ...    0.0 sec
Grid point division into batches done        ...    0.2 sec
Reduced shell lists constructed in    0.3 sec

Total number of grid points                  ...    36123
Total number of batches                      ...      566
Average number of points per batch           ...       63
Average number of grid points per atom       ...     7225
Average number of shells per batch           ...    11.92 (85.15%)
Average number of basis functions per batch  ...    18.74 (85.16%)
Average number of large shells per batch     ...    11.42 (95.83%)
Average number of large basis fcns per batch ...    17.99 (96.05%)
Maximum spatial batch extension              ...  17.10, 19.14, 19.88 au
Average spatial batch extension              ...   2.60,  2.58,  2.54 au

Final grid set up in    0.3 sec
Final integration                            ... done (   0.2 sec)
Change in XC energy                          ...     0.000223493
Integrated number of electrons               ...    10.000001505
Previous integrated no of electrons          ...    10.000009982
Total Energy       :          -40.03233351 Eh           -1089.33518 eV
  Last Energy change         ...   -6.9489e-09  Tolerance :   1.0000e-06
  Last MAX-Density change    ...    2.9665e-06  Tolerance :   1.0000e-05
             **** THE GBW FILE WAS UPDATED (CH4.gbw) ****
             **** DENSITY FILE WAS UPDATED (CH4.scfp) ****
             **** ENERGY FILE WAS UPDATED (CH4.en.tmp) ****
             **** THE GBW FILE WAS UPDATED (CH4.gbw) ****
             **** DENSITY FILE WAS UPDATED (CH4.scfp) ****
Total SCF time: 0 days 0 hours 0 min 2 sec 

-------------------------   --------------------
FINAL SINGLE POINT ENERGY       -40.032333514601
-------------------------   --------------------

Storing actual gbw-file in CH4.003.gbw ... done

                            ***************************************
                            *     ORCA property calculations      *
                            ***************************************

                                    ---------------------
                                    Active property flags
                                    ---------------------
   (+) Dipole Moment


------------------------------------------------------------------------------
                       ORCA ELECTRIC PROPERTIES CALCULATION
------------------------------------------------------------------------------

Dipole Moment Calculation                       ... on
Quadrupole Moment Calculation                   ... off
Polarizability Calculation                      ... off
GBWName                                         ... CH4.gbw
Electron density file                           ... CH4.scfp
The origin for moment calculation is the CENTER OF MASS  = ( 0.000006, -0.000000 -0.000000)

-------------
DIPOLE MOMENT
-------------
                                X             Y             Z
Electronic contribution:     -0.00000       0.00004      -0.00000
Nuclear contribution   :      0.00003      -0.00000      -0.00000
                        -----------------------------------------
Total Dipole Moment    :      0.00003       0.00004      -0.00000
                        -----------------------------------------
Magnitude (a.u.)       :      0.00005
Magnitude (Debye)      :      0.00013



--------------------
Rotational spectrum 
--------------------
 
Rotational constants in cm-1:    10.250270    10.250270    10.250038 
Rotational constants in MHz : 307295.349229 307295.349229 307288.405721 

 Dipole components along the rotational axes: 
x,y,z [a.u.] :    -0.000044    -0.000000     0.000029 
x,y,z [Debye]:    -0.000111    -0.000000     0.000074 

 

         *************************************************************
                                TRAJECTORY STEP   4
                  R  :   0.88220000
         *************************************************************
---------------------------------
CARTESIAN COORDINATES (ANGSTROEM)
---------------------------------
  C      0.000000    0.000000    0.000000
  H      0.882200    0.000000    0.000000
  H     -0.294049    0.831752    0.000000
  H     -0.294049   -0.415876    0.720319
  H     -0.294049   -0.415876   -0.720319

----------------------------
CARTESIAN COORDINATES (A.U.)
----------------------------
  NO LB      ZA    FRAG     MASS         X           Y           Z
   0 C     6.0000    0    12.011    0.000000    0.000000    0.000000
   1 H     1.0000    0     1.008    1.667116    0.000000    0.000000
   2 H     1.0000    0     1.008   -0.555672    1.571784    0.000000
   3 H     1.0000    0     1.008   -0.555672   -0.785892    1.361205
   4 H     1.0000    0     1.008   -0.555672   -0.785892   -1.361205

--------------------------------
INTERNAL COORDINATES (ANGSTROEM)
--------------------------------
 C      0   0   0     0.000000000000     0.00000000     0.00000000
 H      1   0   0     0.882200000000     0.00000000     0.00000000
 H      1   2   0     0.882200000000   109.47000000     0.00000000
 H      1   2   3     0.882200000000   109.47000000   240.00000000
 H      1   2   3     0.882200000000   109.47000000   120.00000000

---------------------------
INTERNAL COORDINATES (A.U.)
---------------------------
 C      0   0   0     0.000000000000     0.00000000     0.00000000
 H      1   0   0     1.667116395345     0.00000000     0.00000000
 H      1   2   0     1.667116395345   109.47000000     0.00000000
 H      1   2   3     1.667116395345   109.47000000   240.00000000
 H      1   2   3     1.667116395345   109.47000000   120.00000000


Diagonalization of the overlap matrix:
Smallest eigenvalue                        ... 9.717e-03
Time for diagonalization                   ...    0.000 sec
Threshold for overlap eigenvalues          ... 1.000e-08
Number of eigenvalues below threshold      ... 0
Time for construction of square roots      ...    0.000 sec
Total time needed                          ...    0.001 sec

-------------------
DFT GRID GENERATION
-------------------

General Integration Accuracy     IntAcc      ...  4.670
Radial Grid Type                 RadialGrid  ... Gauss-Chebyshev
Angular Grid (max. acc.)         AngularGrid ... Lebedev-302
Angular grid pruning method      GridPruning ... 3 (G Style)
Weight generation scheme         WeightScheme... Becke
Basis function cutoff            BFCut       ...    1.0000e-10
Integration weight cutoff        WCut        ...    1.0000e-14
Grids for H and He will be reduced by one unit

# of grid points (after initial pruning)     ...  19788 (   0.0 sec)
# of grid points (after weights+screening)   ...  19194 (   0.0 sec)
nearest neighbour list constructed           ...    0.0 sec
Grid point re-assignment to atoms done       ...    0.0 sec
Grid point division into batches done        ...    0.1 sec
Reduced shell lists constructed in    0.1 sec

Total number of grid points                  ...    19194
Total number of batches                      ...      302
Average number of points per batch           ...       63
Average number of grid points per atom       ...     3839
Average number of shells per batch           ...    12.10 (86.45%)
Average number of basis functions per batch  ...    19.05 (86.60%)
Average number of large shells per batch     ...    11.52 (95.17%)
Average number of large basis fcns per batch ...    18.17 (95.34%)
Maximum spatial batch extension              ...  20.64, 20.64, 20.64 au
Average spatial batch extension              ...   3.41,  3.20,  3.09 au

Time for grid setup =    0.099 sec

--------------
SCF ITERATIONS
--------------
ITER       Energy         Delta-E        Max-DP      RMS-DP      [F,P]   Gradient Norm
               ***  Starting incremental Fock matrix formation  ***
                             ****Resetting KDIIS****
                             ****Turning on KDIIS(Cayley)****
  0    -40.3135910400   0.000000000000 0.00955646  0.00110960  0.0481384   0.049069072
  1    -40.3168244633  -0.003233423371 0.01507186  0.00156818  0.0420944   0.042576305
  2    -40.3202533096  -0.003428846256 0.02454986  0.00264371  0.0339828   0.034506669
  3    -40.3244206963  -0.004167386708 0.03900182  0.00399932  0.0203896   0.020799136
Warning: badly conditioned DIIS matrix, 1 vectors out of 5 destroyed
Warning: badly conditioned DIIS matrix, 1 vectors out of 4 destroyed
  4    -40.3267857958  -0.002365099489 0.00004648  0.00000875  0.0001101   0.000148573
Warning: badly conditioned DIIS matrix, 1 vectors out of 4 destroyed
                          ***Energy convergence achieved***
  5    -40.3267858392  -0.000000043351 0.00025442  0.00005012  0.0000915   0.000124007
Warning: badly conditioned DIIS matrix, 1 vectors out of 4 destroyed

            ***Energy convergence in two consecutive cycles with***
                    ***'reasonable' density convergence***
                       *** signaling convergence ***

                    *** KDIIS BlockDiag ( 1.660 sec) ***

               *****************************************************
               *                     SUCCESS                       *
               *           SCF CONVERGED AFTER   6 CYCLES          *
               *****************************************************

Setting up the final grid:

General Integration Accuracy     IntAcc      ...  5.010
Radial Grid Type                 RadialGrid  ... Gauss-Chebyshev
Angular Grid (max. acc.)         AngularGrid ... Lebedev-434
Angular grid pruning method      GridPruning ... 3 (G Style)
Weight generation scheme         WeightScheme... Becke
Basis function cutoff            BFCut       ...    1.0000e-10
Integration weight cutoff        WCut        ...    1.0000e-14
Grids for H and He will be reduced by one unit

# of grid points (after initial pruning)     ...  37466 (   0.0 sec)
# of grid points (after weights+screening)   ...  36249 (   0.0 sec)
nearest neighbour list constructed           ...    0.0 sec
Grid point re-assignment to atoms done       ...    0.0 sec
Grid point division into batches done        ...    0.2 sec
Reduced shell lists constructed in    0.3 sec

Total number of grid points                  ...    36249
Total number of batches                      ...      568
Average number of points per batch           ...       63
Average number of grid points per atom       ...     7250
Average number of shells per batch           ...    11.91 (85.04%)
Average number of basis functions per batch  ...    18.73 (85.14%)
Average number of large shells per batch     ...    11.31 (95.03%)
Average number of large basis fcns per batch ...    17.85 (95.32%)
Maximum spatial batch extension              ...  17.68, 19.14, 19.88 au
Average spatial batch extension              ...   2.57,  2.58,  2.56 au

Final grid set up in    0.3 sec
Final integration                            ... done (   0.2 sec)
Change in XC energy                          ...     0.000238333
Integrated number of electrons               ...    10.000000496
Previous integrated no of electrons          ...    10.000034042
Total Energy       :          -40.32654762 Eh           -1097.34115 eV
  Last Energy change         ...   -1.0965e-07  Tolerance :   1.0000e-06
  Last MAX-Density change    ...    1.6852e-05  Tolerance :   1.0000e-05
             **** THE GBW FILE WAS UPDATED (CH4.gbw) ****
             **** DENSITY FILE WAS UPDATED (CH4.scfp) ****
             **** ENERGY FILE WAS UPDATED (CH4.en.tmp) ****
             **** THE GBW FILE WAS UPDATED (CH4.gbw) ****
             **** DENSITY FILE WAS UPDATED (CH4.scfp) ****
Total SCF time: 0 days 0 hours 0 min 2 sec 

-------------------------   --------------------
FINAL SINGLE POINT ENERGY       -40.326547615993
-------------------------   --------------------

Storing actual gbw-file in CH4.004.gbw ... done

                            ***************************************
                            *     ORCA property calculations      *
                            ***************************************

                                    ---------------------
                                    Active property flags
                                    ---------------------
   (+) Dipole Moment


------------------------------------------------------------------------------
                       ORCA ELECTRIC PROPERTIES CALCULATION
------------------------------------------------------------------------------

Dipole Moment Calculation                       ... on
Quadrupole Moment Calculation                   ... off
Polarizability Calculation                      ... off
GBWName                                         ... CH4.gbw
Electron density file                           ... CH4.scfp
The origin for moment calculation is the CENTER OF MASS  = ( 0.000006, -0.000000 -0.000000)

-------------
DIPOLE MOMENT
-------------
                                X             Y             Z
Electronic contribution:      0.00001       0.00005       0.00000
Nuclear contribution   :      0.00004      -0.00000      -0.00000
                        -----------------------------------------
Total Dipole Moment    :      0.00005       0.00005       0.00000
                        -----------------------------------------
Magnitude (a.u.)       :      0.00007
Magnitude (Debye)      :      0.00018



--------------------
Rotational spectrum 
--------------------
 
Rotational constants in cm-1:     8.058177     8.058177     8.057995 
Rotational constants in MHz : 241578.068055 241578.068055 241572.609465 

 Dipole components along the rotational axes: 
x,y,z [a.u.] :    -0.000042     0.000031     0.000048 
x,y,z [Debye]:    -0.000108     0.000079     0.000123 

 

         *************************************************************
                                TRAJECTORY STEP   5
                  R  :   0.98220000
         *************************************************************
---------------------------------
CARTESIAN COORDINATES (ANGSTROEM)
---------------------------------
  C      0.000000    0.000000    0.000000
  H      0.982200    0.000000    0.000000
  H     -0.327380    0.926034    0.000000
  H     -0.327380   -0.463017    0.801969
  H     -0.327380   -0.463017   -0.801969

----------------------------
CARTESIAN COORDINATES (A.U.)
----------------------------
  NO LB      ZA    FRAG     MASS         X           Y           Z
   0 C     6.0000    0    12.011    0.000000    0.000000    0.000000
   1 H     1.0000    0     1.008    1.856089    0.000000    0.000000
   2 H     1.0000    0     1.008   -0.618659    1.749951    0.000000
   3 H     1.0000    0     1.008   -0.618659   -0.874975    1.515502
   4 H     1.0000    0     1.008   -0.618659   -0.874975   -1.515502

--------------------------------
INTERNAL COORDINATES (ANGSTROEM)
--------------------------------
 C      0   0   0     0.000000000000     0.00000000     0.00000000
 H      1   0   0     0.982200000000     0.00000000     0.00000000
 H      1   2   0     0.982200000000   109.47000000     0.00000000
 H      1   2   3     0.982200000000   109.47000000   240.00000000
 H      1   2   3     0.982200000000   109.47000000   120.00000000

---------------------------
INTERNAL COORDINATES (A.U.)
---------------------------
 C      0   0   0     0.000000000000     0.00000000     0.00000000
 H      1   0   0     1.856089008737     0.00000000     0.00000000
 H      1   2   0     1.856089008737   109.47000000     0.00000000
 H      1   2   3     1.856089008737   109.47000000   240.00000000
 H      1   2   3     1.856089008737   109.47000000   120.00000000


Diagonalization of the overlap matrix:
Smallest eigenvalue                        ... 1.418e-02
Time for diagonalization                   ...    0.000 sec
Threshold for overlap eigenvalues          ... 1.000e-08
Number of eigenvalues below threshold      ... 0
Time for construction of square roots      ...    0.000 sec
Total time needed                          ...    0.001 sec

-------------------
DFT GRID GENERATION
-------------------

General Integration Accuracy     IntAcc      ...  4.670
Radial Grid Type                 RadialGrid  ... Gauss-Chebyshev
Angular Grid (max. acc.)         AngularGrid ... Lebedev-302
Angular grid pruning method      GridPruning ... 3 (G Style)
Weight generation scheme         WeightScheme... Becke
Basis function cutoff            BFCut       ...    1.0000e-10
Integration weight cutoff        WCut        ...    1.0000e-14
Grids for H and He will be reduced by one unit

# of grid points (after initial pruning)     ...  19788 (   0.0 sec)
# of grid points (after weights+screening)   ...  19241 (   0.0 sec)
nearest neighbour list constructed           ...    0.0 sec
Grid point re-assignment to atoms done       ...    0.0 sec
Grid point division into batches done        ...    0.1 sec
Reduced shell lists constructed in    0.1 sec

Total number of grid points                  ...    19241
Total number of batches                      ...      302
Average number of points per batch           ...       63
Average number of grid points per atom       ...     3848
Average number of shells per batch           ...    12.09 (86.35%)
Average number of basis functions per batch  ...    19.04 (86.54%)
Average number of large shells per batch     ...    11.47 (94.84%)
Average number of large basis fcns per batch ...    18.11 (95.09%)
Maximum spatial batch extension              ...  20.64, 20.64, 20.64 au
Average spatial batch extension              ...   3.42,  3.23,  3.07 au

Time for grid setup =    0.100 sec

--------------
SCF ITERATIONS
--------------
ITER       Energy         Delta-E        Max-DP      RMS-DP      [F,P]   Gradient Norm
               ***  Starting incremental Fock matrix formation  ***
                             ****Resetting KDIIS****
                             ****Turning on KDIIS(Cayley)****
  0    -40.4506417334   0.000000000000 0.00762854  0.00088303  0.0410013   0.040272308
  1    -40.4529813478  -0.002339614430 0.01187531  0.00119171  0.0357911   0.034801887
  2    -40.4554000340  -0.002418686239 0.02141107  0.00203277  0.0289619   0.028240691
  3    -40.4583640134  -0.002963979332 0.03516795  0.00307148  0.0173816   0.017006412
Warning: badly conditioned DIIS matrix, 1 vectors out of 5 destroyed
Warning: badly conditioned DIIS matrix, 1 vectors out of 4 destroyed
  4    -40.4600413154  -0.001677302004 0.00007625  0.00001330  0.0000901   0.000106696
                          ***Energy convergence achieved***
  5    -40.4600413734  -0.000000058037 0.00008930  0.00001602  0.0000371   0.000049455
Warning: badly conditioned DIIS matrix, 1 vectors out of 5 destroyed
Warning: badly conditioned DIIS matrix, 1 vectors out of 4 destroyed
                           ***RMSP convergence achieved***
                           ***MAXP convergence achieved***
                    *** KDIIS BlockDiag ( 1.659 sec) ***

               *****************************************************
               *                     SUCCESS                       *
               *           SCF CONVERGED AFTER   6 CYCLES          *
               *****************************************************

Setting up the final grid:

General Integration Accuracy     IntAcc      ...  5.010
Radial Grid Type                 RadialGrid  ... Gauss-Chebyshev
Angular Grid (max. acc.)         AngularGrid ... Lebedev-434
Angular grid pruning method      GridPruning ... 3 (G Style)
Weight generation scheme         WeightScheme... Becke
Basis function cutoff            BFCut       ...    1.0000e-10
Integration weight cutoff        WCut        ...    1.0000e-14
Grids for H and He will be reduced by one unit

# of grid points (after initial pruning)     ...  37466 (   0.0 sec)
# of grid points (after weights+screening)   ...  36364 (   0.0 sec)
nearest neighbour list constructed           ...    0.0 sec
Grid point re-assignment to atoms done       ...    0.0 sec
Grid point division into batches done        ...    0.2 sec
Reduced shell lists constructed in    0.3 sec

Total number of grid points                  ...    36364
Total number of batches                      ...      571
Average number of points per batch           ...       63
Average number of grid points per atom       ...     7273
Average number of shells per batch           ...    11.88 (84.84%)
Average number of basis functions per batch  ...    18.71 (85.04%)
Average number of large shells per batch     ...    11.23 (94.57%)
Average number of large basis fcns per batch ...    17.77 (94.98%)
Maximum spatial batch extension              ...  17.62, 19.14, 19.88 au
Average spatial batch extension              ...   2.60,  2.60,  2.57 au

Final grid set up in    0.3 sec
Final integration                            ... done (   0.2 sec)
Change in XC energy                          ...     0.000011657
Integrated number of electrons               ...     9.999999507
Previous integrated no of electrons          ...    10.000021036
Total Energy       :          -40.46002974 Eh           -1100.97338 eV
  Last Energy change         ...   -2.0469e-08  Tolerance :   1.0000e-06
  Last MAX-Density change    ...    9.5717e-06  Tolerance :   1.0000e-05
             **** THE GBW FILE WAS UPDATED (CH4.gbw) ****
             **** DENSITY FILE WAS UPDATED (CH4.scfp) ****
             **** ENERGY FILE WAS UPDATED (CH4.en.tmp) ****
             **** THE GBW FILE WAS UPDATED (CH4.gbw) ****
             **** DENSITY FILE WAS UPDATED (CH4.scfp) ****
Total SCF time: 0 days 0 hours 0 min 2 sec 

-------------------------   --------------------
FINAL SINGLE POINT ENERGY       -40.460029737047
-------------------------   --------------------

Storing actual gbw-file in CH4.005.gbw ... done

                            ***************************************
                            *     ORCA property calculations      *
                            ***************************************

                                    ---------------------
                                    Active property flags
                                    ---------------------
   (+) Dipole Moment


------------------------------------------------------------------------------
                       ORCA ELECTRIC PROPERTIES CALCULATION
------------------------------------------------------------------------------

Dipole Moment Calculation                       ... on
Quadrupole Moment Calculation                   ... off
Polarizability Calculation                      ... off
GBWName                                         ... CH4.gbw
Electron density file                           ... CH4.scfp
The origin for moment calculation is the CENTER OF MASS  = ( 0.000007, -0.000000 -0.000000)

-------------
DIPOLE MOMENT
-------------
                                X             Y             Z
Electronic contribution:     -0.00000       0.00003      -0.00000
Nuclear contribution   :      0.00004      -0.00000      -0.00000
                        -----------------------------------------
Total Dipole Moment    :      0.00004       0.00003      -0.00000
                        -----------------------------------------
Magnitude (a.u.)       :      0.00005
Magnitude (Debye)      :      0.00012



--------------------
Rotational spectrum 
--------------------
 
Rotational constants in cm-1:     6.500864     6.500864     6.500717 
Rotational constants in MHz : 194890.985233 194890.985233 194886.581564 

 Dipole components along the rotational axes: 
x,y,z [a.u.] :     0.000025     0.000007    -0.000041 
x,y,z [Debye]:     0.000065     0.000019    -0.000103 

 

         *************************************************************
                                TRAJECTORY STEP   6
                  R  :   1.08220000
         *************************************************************
---------------------------------
CARTESIAN COORDINATES (ANGSTROEM)
---------------------------------
  C      0.000000    0.000000    0.000000
  H      1.082200    0.000000    0.000000
  H     -0.360712    1.020316    0.000000
  H     -0.360712   -0.510158    0.883619
  H     -0.360712   -0.510158   -0.883619

----------------------------
CARTESIAN COORDINATES (A.U.)
----------------------------
  NO LB      ZA    FRAG     MASS         X           Y           Z
   0 C     6.0000    0    12.011    0.000000    0.000000    0.000000
   1 H     1.0000    0     1.008    2.045062    0.000000    0.000000
   2 H     1.0000    0     1.008   -0.681646    1.928117    0.000000
   3 H     1.0000    0     1.008   -0.681646   -0.964059    1.669798
   4 H     1.0000    0     1.008   -0.681646   -0.964059   -1.669798

--------------------------------
INTERNAL COORDINATES (ANGSTROEM)
--------------------------------
 C      0   0   0     0.000000000000     0.00000000     0.00000000
 H      1   0   0     1.082200000000     0.00000000     0.00000000
 H      1   2   0     1.082200000000   109.47000000     0.00000000
 H      1   2   3     1.082200000000   109.47000000   240.00000000
 H      1   2   3     1.082200000000   109.47000000   120.00000000

---------------------------
INTERNAL COORDINATES (A.U.)
---------------------------
 C      0   0   0     0.000000000000     0.00000000     0.00000000
 H      1   0   0     2.045061622130     0.00000000     0.00000000
 H      1   2   0     2.045061622130   109.47000000     0.00000000
 H      1   2   3     2.045061622130   109.47000000   240.00000000
 H      1   2   3     2.045061622130   109.47000000   120.00000000


Diagonalization of the overlap matrix:
Smallest eigenvalue                        ... 2.001e-02
Time for diagonalization                   ...    0.000 sec
Threshold for overlap eigenvalues          ... 1.000e-08
Number of eigenvalues below threshold      ... 0
Time for construction of square roots      ...    0.000 sec
Total time needed                          ...    0.001 sec

-------------------
DFT GRID GENERATION
-------------------

General Integration Accuracy     IntAcc      ...  4.670
Radial Grid Type                 RadialGrid  ... Gauss-Chebyshev
Angular Grid (max. acc.)         AngularGrid ... Lebedev-302
Angular grid pruning method      GridPruning ... 3 (G Style)
Weight generation scheme         WeightScheme... Becke
Basis function cutoff            BFCut       ...    1.0000e-10
Integration weight cutoff        WCut        ...    1.0000e-14
Grids for H and He will be reduced by one unit

# of grid points (after initial pruning)     ...  19788 (   0.0 sec)
# of grid points (after weights+screening)   ...  19294 (   0.0 sec)
nearest neighbour list constructed           ...    0.0 sec
Grid point re-assignment to atoms done       ...    0.0 sec
Grid point division into batches done        ...    0.1 sec
Reduced shell lists constructed in    0.1 sec

Total number of grid points                  ...    19294
Total number of batches                      ...      304
Average number of points per batch           ...       63
Average number of grid points per atom       ...     3859
Average number of shells per batch           ...    12.09 (86.37%)
Average number of basis functions per batch  ...    19.06 (86.62%)
Average number of large shells per batch     ...    11.40 (94.28%)
Average number of large basis fcns per batch ...    18.05 (94.72%)
Maximum spatial batch extension              ...  20.64, 20.64, 20.64 au
Average spatial batch extension              ...   3.43,  3.28,  3.14 au

Time for grid setup =    0.099 sec

--------------
SCF ITERATIONS
--------------
ITER       Energy         Delta-E        Max-DP      RMS-DP      [F,P]   Gradient Norm
               ***  Starting incremental Fock matrix formation  ***
                             ****Resetting KDIIS****
                             ****Turning on KDIIS(Cayley)****
  0    -40.4915497119   0.000000000000 0.00622903  0.00073593  0.0309733   0.033634241
  1    -40.4932766917  -0.001726979719 0.00947104  0.00095875  0.0265948   0.028986919
  2    -40.4950360421  -0.001759350474 0.01649011  0.00163335  0.0215008   0.023541624
  3    -40.4972059263  -0.002169884192 0.02588979  0.00245000  0.0128796   0.014166828
Warning: badly conditioned DIIS matrix, 1 vectors out of 5 destroyed
Warning: badly conditioned DIIS matrix, 1 vectors out of 4 destroyed
  4    -40.4984324573  -0.001226530924 0.00011818  0.00001558  0.0000683   0.000069545
                          ***Energy convergence achieved***
  5    -40.4984324871  -0.000000029804 0.00004753  0.00000502  0.0000293   0.000031352
Warning: badly conditioned DIIS matrix, 1 vectors out of 5 destroyed
                           ***MAXP convergence achieved***

            ***Energy convergence in two consecutive cycles with***
                    ***'reasonable' density convergence***
                       *** signaling convergence ***

                    *** KDIIS BlockDiag ( 1.654 sec) ***

               *****************************************************
               *                     SUCCESS                       *
               *           SCF CONVERGED AFTER   6 CYCLES          *
               *****************************************************

Setting up the final grid:

General Integration Accuracy     IntAcc      ...  5.010
Radial Grid Type                 RadialGrid  ... Gauss-Chebyshev
Angular Grid (max. acc.)         AngularGrid ... Lebedev-434
Angular grid pruning method      GridPruning ... 3 (G Style)
Weight generation scheme         WeightScheme... Becke
Basis function cutoff            BFCut       ...    1.0000e-10
Integration weight cutoff        WCut        ...    1.0000e-14
Grids for H and He will be reduced by one unit

# of grid points (after initial pruning)     ...  37466 (   0.0 sec)
# of grid points (after weights+screening)   ...  36462 (   0.0 sec)
nearest neighbour list constructed           ...    0.0 sec
Grid point re-assignment to atoms done       ...    0.0 sec
Grid point division into batches done        ...    0.2 sec
Reduced shell lists constructed in    0.3 sec

Total number of grid points                  ...    36462
Total number of batches                      ...      573
Average number of points per batch           ...       63
Average number of grid points per atom       ...     7292
Average number of shells per batch           ...    11.82 (84.44%)
Average number of basis functions per batch  ...    18.61 (84.59%)
Average number of large shells per batch     ...    11.12 (94.06%)
Average number of large basis fcns per batch ...    17.63 (94.73%)
Maximum spatial batch extension              ...  16.77, 16.89, 19.88 au
Average spatial batch extension              ...   2.60,  2.61,  2.58 au

Final grid set up in    0.3 sec
Final integration                            ... done (   0.2 sec)
Change in XC energy                          ...    -0.000196307
Integrated number of electrons               ...    10.000000606
Previous integrated no of electrons          ...    10.000000287
Total Energy       :          -40.49862880 Eh           -1102.02372 eV
  Last Energy change         ...   -4.4685e-09  Tolerance :   1.0000e-06
  Last MAX-Density change    ...    7.6219e-06  Tolerance :   1.0000e-05
             **** THE GBW FILE WAS UPDATED (CH4.gbw) ****
             **** DENSITY FILE WAS UPDATED (CH4.scfp) ****
             **** ENERGY FILE WAS UPDATED (CH4.en.tmp) ****
             **** THE GBW FILE WAS UPDATED (CH4.gbw) ****
             **** DENSITY FILE WAS UPDATED (CH4.scfp) ****
Total SCF time: 0 days 0 hours 0 min 2 sec 

-------------------------   --------------------
FINAL SINGLE POINT ENERGY       -40.498628798474
-------------------------   --------------------

Storing actual gbw-file in CH4.006.gbw ... done

                            ***************************************
                            *     ORCA property calculations      *
                            ***************************************

                                    ---------------------
                                    Active property flags
                                    ---------------------
   (+) Dipole Moment


------------------------------------------------------------------------------
                       ORCA ELECTRIC PROPERTIES CALCULATION
------------------------------------------------------------------------------

Dipole Moment Calculation                       ... on
Quadrupole Moment Calculation                   ... off
Polarizability Calculation                      ... off
GBWName                                         ... CH4.gbw
Electron density file                           ... CH4.scfp
The origin for moment calculation is the CENTER OF MASS  = ( 0.000008, -0.000000 -0.000000)

-------------
DIPOLE MOMENT
-------------
                                X             Y             Z
Electronic contribution:     -0.00004       0.00001       0.00000
Nuclear contribution   :      0.00005      -0.00000      -0.00000
                        -----------------------------------------
Total Dipole Moment    :      0.00001       0.00001       0.00000
                        -----------------------------------------
Magnitude (a.u.)       :      0.00001
Magnitude (Debye)      :      0.00003



--------------------
Rotational spectrum 
--------------------
 
Rotational constants in cm-1:     5.354955     5.354955     5.354834 
Rotational constants in MHz : 160537.520678 160537.520678 160533.893245 

 Dipole components along the rotational axes: 
x,y,z [a.u.] :     0.000011     0.000002    -0.000007 
x,y,z [Debye]:     0.000028     0.000004    -0.000017 

 

         *************************************************************
                                TRAJECTORY STEP   7
                  R  :   1.18220000
         *************************************************************
---------------------------------
CARTESIAN COORDINATES (ANGSTROEM)
---------------------------------
  C      0.000000    0.000000    0.000000
  H      1.182200    0.000000    0.000000
  H     -0.394043    1.114597    0.000000
[...]

-------------------
DFT GRID GENERATION
-------------------

General Integration Accuracy     IntAcc      ...  4.670
Radial Grid Type                 RadialGrid  ... Gauss-Chebyshev
Angular Grid (max. acc.)         AngularGrid ... Lebedev-302
Angular grid pruning method      GridPruning ... 3 (G Style)
Weight generation scheme         WeightScheme... Becke
Basis function cutoff            BFCut       ...    1.0000e-10
Integration weight cutoff        WCut        ...    1.0000e-14
Grids for H and He will be reduced by one unit

# of grid points (after initial pruning)     ...  19788 (   0.0 sec)
# of grid points (after weights+screening)   ...  19757 (   0.0 sec)
nearest neighbour list constructed           ...    0.0 sec
Grid point re-assignment to atoms done       ...    0.0 sec
Grid point division into batches done        ...    0.1 sec
Reduced shell lists constructed in    0.1 sec

Total number of grid points                  ...    19757
Total number of batches                      ...      310
Average number of points per batch           ...       63
Average number of grid points per atom       ...     3951
Average number of shells per batch           ...     5.60 (40.03%)
Average number of basis functions per batch  ...     9.39 (42.66%)
Average number of large shells per batch     ...     3.57 (63.63%)
Average number of large basis fcns per batch ...     6.07 (64.65%)
Maximum spatial batch extension              ...  18.89, 17.33, 16.85 au
Average spatial batch extension              ...   4.05,  4.02,  3.86 au

Time for grid setup =    0.095 sec

--------------
SCF ITERATIONS
--------------
ITER       Energy         Delta-E        Max-DP      RMS-DP      [F,P]   Gradient Norm
               ***  Starting incremental Fock matrix formation  ***
                             ****Resetting KDIIS****
                             ****Turning on KDIIS(Cayley)****
  0    -39.3065644906   0.000000000000 0.00005571  0.00000992  0.0004473   0.000357548
                          ***Energy convergence achieved***
  1    -39.3065648123  -0.000000321737 0.00010757  0.00002079  0.0004119   0.000326422
  2    -39.3065653919  -0.000000579571 0.00018094  0.00003317  0.0003305   0.000260313
  3    -39.3065660694  -0.000000677536 0.00027076  0.00005041  0.0002002   0.000157029

            ***Energy convergence in two consecutive cycles with***
                    ***'reasonable' density convergence***
                       *** signaling convergence ***

                    *** KDIIS BlockDiag ( 1.152 sec) ***

               *****************************************************
               *                     SUCCESS                       *
               *           SCF CONVERGED AFTER   4 CYCLES          *
               *****************************************************

Setting up the final grid:

General Integration Accuracy     IntAcc      ...  5.010
Radial Grid Type                 RadialGrid  ... Gauss-Chebyshev
Angular Grid (max. acc.)         AngularGrid ... Lebedev-434
Angular grid pruning method      GridPruning ... 3 (G Style)
Weight generation scheme         WeightScheme... Becke
Basis function cutoff            BFCut       ...    1.0000e-10
Integration weight cutoff        WCut        ...    1.0000e-14
Grids for H and He will be reduced by one unit

# of grid points (after initial pruning)     ...  37466 (   0.0 sec)
# of grid points (after weights+screening)   ...  37424 (   0.0 sec)
nearest neighbour list constructed           ...    0.0 sec
Grid point re-assignment to atoms done       ...    0.0 sec
Grid point division into batches done        ...    0.2 sec
Reduced shell lists constructed in    0.3 sec

Total number of grid points                  ...    37424
Total number of batches                      ...      587
Average number of points per batch           ...       63
Average number of grid points per atom       ...     7485
Average number of shells per batch           ...     5.25 (37.52%)
Average number of basis functions per batch  ...     8.68 (39.46%)
Average number of large shells per batch     ...     3.30 (62.84%)
Average number of large basis fcns per batch ...     5.60 (64.54%)
Maximum spatial batch extension              ...  15.68, 15.57, 16.96 au
Average spatial batch extension              ...   3.21,  3.13,  3.20 au

Final grid set up in    0.3 sec
Final integration                            ... done (   0.2 sec)
Change in XC energy                          ...    -0.000357073
Integrated number of electrons               ...    10.000010997
Previous integrated no of electrons          ...     9.999990330
Total Energy       :          -39.30692353 Eh           -1069.59577 eV
  Last Energy change         ...   -3.8693e-07  Tolerance :   1.0000e-06
  Last MAX-Density change    ...    5.1011e-05  Tolerance :   1.0000e-05
             **** THE GBW FILE WAS UPDATED (CH4.gbw) ****
             **** DENSITY FILE WAS UPDATED (CH4.scfp) ****
             **** ENERGY FILE WAS UPDATED (CH4.en.tmp) ****
             **** THE GBW FILE WAS UPDATED (CH4.gbw) ****
             **** DENSITY FILE WAS UPDATED (CH4.scfp) ****
Total SCF time: 0 days 0 hours 0 min 1 sec 

-------------------------   --------------------
FINAL SINGLE POINT ENERGY       -39.306923528864
-------------------------   --------------------

Storing actual gbw-file in CH4.045.gbw ... done

                            ***************************************
                            *     ORCA property calculations      *
                            ***************************************

                                    ---------------------
                                    Active property flags
                                    ---------------------
   (+) Dipole Moment


------------------------------------------------------------------------------
                       ORCA ELECTRIC PROPERTIES CALCULATION
------------------------------------------------------------------------------

Dipole Moment Calculation                       ... on
Quadrupole Moment Calculation                   ... off
Polarizability Calculation                      ... off
GBWName                                         ... CH4.gbw
Electron density file                           ... CH4.scfp
The origin for moment calculation is the CENTER OF MASS  = ( 0.000036, -0.000000 -0.000000)

-------------
DIPOLE MOMENT
-------------
                                X             Y             Z
Electronic contribution:     -0.00016       0.00017      -0.00000
Nuclear contribution   :      0.00021      -0.00000      -0.00000
                        -----------------------------------------
Total Dipole Moment    :      0.00005       0.00017      -0.00000
                        -----------------------------------------
Magnitude (a.u.)       :      0.00018
Magnitude (Debye)      :      0.00045



--------------------
Rotational spectrum 
--------------------
 
Rotational constants in cm-1:     0.252655     0.252655     0.252650 
Rotational constants in MHz :  7574.418481  7574.418481  7574.247333 

 Dipole components along the rotational axes: 
x,y,z [a.u.] :    -0.000132    -0.000104     0.000051 
x,y,z [Debye]:    -0.000335    -0.000265     0.000130 

 

         *************************************************************
                                TRAJECTORY STEP  46
                  R  :   5.08220000
         *************************************************************
---------------------------------
CARTESIAN COORDINATES (ANGSTROEM)
---------------------------------
  C      0.000000    0.000000    0.000000
  H      5.082200    0.000000    0.000000
  H     -1.693965    4.791580    0.000000
  H     -1.693965   -2.395790    4.149630
  H     -1.693965   -2.395790   -4.149630

----------------------------
CARTESIAN COORDINATES (A.U.)
----------------------------
  NO LB      ZA    FRAG     MASS         X           Y           Z
   0 C     6.0000    0    12.011    0.000000    0.000000    0.000000
   1 H     1.0000    0     1.008    9.603966    0.000000    0.000000
   2 H     1.0000    0     1.008   -3.201129    9.054774    0.000000
   3 H     1.0000    0     1.008   -3.201129   -4.527387    7.841665
   4 H     1.0000    0     1.008   -3.201129   -4.527387   -7.841665

--------------------------------
INTERNAL COORDINATES (ANGSTROEM)
--------------------------------
 C      0   0   0     0.000000000000     0.00000000     0.00000000
 H      1   0   0     5.082200000000     0.00000000     0.00000000
 H      1   2   0     5.082200000000   109.47000000     0.00000000
 H      1   2   3     5.082200000000   109.47000000   240.00000000
 H      1   2   3     5.082200000000   109.47000000   120.00000000

---------------------------
INTERNAL COORDINATES (A.U.)
---------------------------
 C      0   0   0     0.000000000000     0.00000000     0.00000000
 H      1   0   0     9.603966157815     0.00000000     0.00000000
 H      1   2   0     9.603966157815   109.47000000     0.00000000
 H      1   2   3     9.603966157815   109.47000000   240.00000000
 H      1   2   3     9.603966157815   109.47000000   120.00000000


Diagonalization of the overlap matrix:
Smallest eigenvalue                        ... 1.869e-01
Time for diagonalization                   ...    0.000 sec
Threshold for overlap eigenvalues          ... 1.000e-08
Number of eigenvalues below threshold      ... 0
Time for construction of square roots      ...    0.000 sec
Total time needed                          ...    0.001 sec

-------------------
DFT GRID GENERATION
-------------------

General Integration Accuracy     IntAcc      ...  4.670
Radial Grid Type                 RadialGrid  ... Gauss-Chebyshev
Angular Grid (max. acc.)         AngularGrid ... Lebedev-302
Angular grid pruning method      GridPruning ... 3 (G Style)
Weight generation scheme         WeightScheme... Becke
Basis function cutoff            BFCut       ...    1.0000e-10
Integration weight cutoff        WCut        ...    1.0000e-14
Grids for H and He will be reduced by one unit

# of grid points (after initial pruning)     ...  19788 (   0.0 sec)
# of grid points (after weights+screening)   ...  19760 (   0.0 sec)
nearest neighbour list constructed           ...    0.0 sec
Grid point re-assignment to atoms done       ...    0.0 sec
Grid point division into batches done        ...    0.1 sec
Reduced shell lists constructed in    0.1 sec

Total number of grid points                  ...    19760
Total number of batches                      ...      311
Average number of points per batch           ...       63
Average number of grid points per atom       ...     3952
Average number of shells per batch           ...     5.59 (39.95%)
Average number of basis functions per batch  ...     9.36 (42.53%)
Average number of large shells per batch     ...     3.48 (62.23%)
Average number of large basis fcns per batch ...     5.88 (62.90%)
Maximum spatial batch extension              ...  18.89, 17.29, 16.85 au
Average spatial batch extension              ...   4.03,  3.96,  3.95 au

Time for grid setup =    0.095 sec

--------------
SCF ITERATIONS
--------------
ITER       Energy         Delta-E        Max-DP      RMS-DP      [F,P]   Gradient Norm
               ***  Starting incremental Fock matrix formation  ***
                             ****Resetting KDIIS****
                             ****Turning on KDIIS(Cayley)****
  0    -39.3023486028   0.000000000000 0.00004736  0.00000868  0.0004124   0.000315511
                          ***Energy convergence achieved***
  1    -39.3023488557  -0.000000252950 0.00009324  0.00001813  0.0003794   0.000287938
  2    -39.3023493174  -0.000000461636 0.00015446  0.00002901  0.0003043   0.000230069
  3    -39.3023498490  -0.000000531651 0.00023048  0.00004410  0.0001841   0.000139022
  4    -39.3023501537  -0.000000304696 0.00011679  0.00001203  0.0000072   0.000004780
                           ***RMSP convergence achieved***
                           ***MAXP convergence achieved***
                    *** KDIIS BlockDiag ( 1.319 sec) ***

               *****************************************************
               *                     SUCCESS                       *
               *           SCF CONVERGED AFTER   5 CYCLES          *
               *****************************************************

Setting up the final grid:

General Integration Accuracy     IntAcc      ...  5.010
Radial Grid Type                 RadialGrid  ... Gauss-Chebyshev
Angular Grid (max. acc.)         AngularGrid ... Lebedev-434
Angular grid pruning method      GridPruning ... 3 (G Style)
Weight generation scheme         WeightScheme... Becke
Basis function cutoff            BFCut       ...    1.0000e-10
Integration weight cutoff        WCut        ...    1.0000e-14
Grids for H and He will be reduced by one unit

# of grid points (after initial pruning)     ...  37466 (   0.0 sec)
# of grid points (after weights+screening)   ...  37428 (   0.0 sec)
nearest neighbour list constructed           ...    0.0 sec
Grid point re-assignment to atoms done       ...    0.0 sec
Grid point division into batches done        ...    0.2 sec
Reduced shell lists constructed in    0.3 sec

Total number of grid points                  ...    37428
Total number of batches                      ...      588
Average number of points per batch           ...       63
Average number of grid points per atom       ...     7486
Average number of shells per batch           ...     5.20 (37.12%)
Average number of basis functions per batch  ...     8.61 (39.13%)
Average number of large shells per batch     ...     3.25 (62.46%)
Average number of large basis fcns per batch ...     5.50 (63.85%)
Maximum spatial batch extension              ...  15.61, 16.43, 16.91 au
Average spatial batch extension              ...   3.23,  3.15,  3.20 au

Final grid set up in    0.3 sec
Final integration                            ... done (   0.2 sec)
Change in XC energy                          ...    -0.000350293
Integrated number of electrons               ...    10.000005230
Previous integrated no of electrons          ...     9.999995768
Total Energy       :          -39.30270044 Eh           -1069.48085 eV
  Last Energy change         ...    4.6102e-09  Tolerance :   1.0000e-06
  Last MAX-Density change    ...    4.7388e-06  Tolerance :   1.0000e-05
             **** THE GBW FILE WAS UPDATED (CH4.gbw) ****
             **** DENSITY FILE WAS UPDATED (CH4.scfp) ****
             **** ENERGY FILE WAS UPDATED (CH4.en.tmp) ****
             **** THE GBW FILE WAS UPDATED (CH4.gbw) ****
             **** DENSITY FILE WAS UPDATED (CH4.scfp) ****
Total SCF time: 0 days 0 hours 0 min 1 sec 

-------------------------   --------------------
FINAL SINGLE POINT ENERGY       -39.302700441646
-------------------------   --------------------

Storing actual gbw-file in CH4.046.gbw ... done

                            ***************************************
                            *     ORCA property calculations      *
                            ***************************************

                                    ---------------------
                                    Active property flags
                                    ---------------------
   (+) Dipole Moment


------------------------------------------------------------------------------
                       ORCA ELECTRIC PROPERTIES CALCULATION
------------------------------------------------------------------------------

Dipole Moment Calculation                       ... on
Quadrupole Moment Calculation                   ... off
Polarizability Calculation                      ... off
GBWName                                         ... CH4.gbw
Electron density file                           ... CH4.scfp
The origin for moment calculation is the CENTER OF MASS  = ( 0.000036, -0.000000 -0.000000)

-------------
DIPOLE MOMENT
-------------
                                X             Y             Z
Electronic contribution:     -0.00012       0.00007      -0.00000
Nuclear contribution   :      0.00022      -0.00000      -0.00000
                        -----------------------------------------
Total Dipole Moment    :      0.00009       0.00007      -0.00000
                        -----------------------------------------
Magnitude (a.u.)       :      0.00012
Magnitude (Debye)      :      0.00030



--------------------
Rotational spectrum 
--------------------
 
Rotational constants in cm-1:     0.242810     0.242810     0.242805 
Rotational constants in MHz :  7279.274670  7279.274670  7279.110191 

 Dipole components along the rotational axes: 
x,y,z [a.u.] :    -0.000052    -0.000050     0.000092 
x,y,z [Debye]:    -0.000133    -0.000126     0.000233 

 
                              **** TRAJECTORY DONE ***

                         SUMMARY OF THE CALCULATED SURFACE

------------------
TRAJECTORY RESULTS
------------------

Column   1: R

The Calculated Surface using the 'Actual Energy'
   0.58220000 -38.39150028
   0.68220000 -39.46040064
   0.78220000 -40.03233351
   0.88220000 -40.32654762
   0.98220000 -40.46002974
   1.08220000 -40.49862880
   1.18220000 -40.48124116
   1.28220000 -40.43158591
   1.38220000 -40.36441138
   1.48220000 -40.28913521
   1.58220000 -40.21173453
   1.68220000 -40.13596782
   1.78220000 -40.06400931
   1.88220000 -39.99695234
   1.98220000 -39.93524837
   2.08220000 -39.87885927
   2.18220000 -39.82753313
   2.28220000 -39.78084350
   2.38220000 -39.73834577
   2.48220000 -39.69958038
   2.58220000 -39.66411838
   2.68220000 -39.63152616
   2.78220000 -39.60147405
   2.88220000 -39.57372298
   2.98220000 -39.54802574
   3.08220000 -39.52420045
   3.18220000 -39.50211438
   3.28220000 -39.48164388
   3.38220000 -39.46269509
   3.48220000 -39.44519240
   3.58220000 -39.42907603
   3.68220000 -39.41427564
   3.78220000 -39.40071218
   3.88220000 -39.38831092
   3.98220000 -39.37700921
   4.08220000 -39.36672018
   4.18220000 -39.35736041
   4.28220000 -39.34885371
   4.38220000 -39.34112152
   4.48220000 -39.33408106
   4.58220000 -39.32765905
   4.68220000 -39.32179524
   4.78220000 -39.31642552
   4.88220000 -39.31148574
   4.98220000 -39.30692353
   5.08220000 -39.30270044

The Calculated Surface using the SCF energy
   0.58220000 -38.39150028
   0.68220000 -39.46040064
   0.78220000 -40.03233351
   0.88220000 -40.32654762
   0.98220000 -40.46002974
   1.08220000 -40.49862880
   1.18220000 -40.48124116
   1.28220000 -40.43158591
   1.38220000 -40.36441138
   1.48220000 -40.28913521
   1.58220000 -40.21173453
   1.68220000 -40.13596782
   1.78220000 -40.06400931
   1.88220000 -39.99695234
   1.98220000 -39.93524837
   2.08220000 -39.87885927
   2.18220000 -39.82753313
   2.28220000 -39.78084350
   2.38220000 -39.73834577
   2.48220000 -39.69958038
   2.58220000 -39.66411838
   2.68220000 -39.63152616
   2.78220000 -39.60147405
   2.88220000 -39.57372298
   2.98220000 -39.54802574
   3.08220000 -39.52420045
   3.18220000 -39.50211438
   3.28220000 -39.48164388
   3.38220000 -39.46269509
   3.48220000 -39.44519240
   3.58220000 -39.42907603
   3.68220000 -39.41427564
   3.78220000 -39.40071218
   3.88220000 -39.38831092
   3.98220000 -39.37700921
   4.08220000 -39.36672018
   4.18220000 -39.35736041
   4.28220000 -39.34885371
   4.38220000 -39.34112152
   4.48220000 -39.33408106
   4.58220000 -39.32765905
   4.68220000 -39.32179524
   4.78220000 -39.31642552
   4.88220000 -39.31148574
   4.98220000 -39.30692353
   5.08220000 -39.30270044


Timings for individual modules:

Sum of individual times         ...      101.998 sec (=   1.700 min)
GTO integral calculation        ...       11.080 sec (=   0.185 min)  10.9 %
SCF iterations                  ...       90.918 sec (=   1.515 min)  89.1 %
                             ****ORCA TERMINATED NORMALLY****
TOTAL RUN TIME: 0 days 0 hours 1 minutes 46 seconds 57 msec
