
                                 *****************
                                 * O   R   C   A *
                                 *****************

           --- An Ab Initio, DFT and Semiempirical electronic structure package ---

                  #######################################################
                  #                        -***-                        #
                  #          Department of theory and spectroscopy      #
                  #               Directorship: Frank Neese             #
                  #        Max Planck Institute fuer Kohlenforschung    #
                  #                Kaiser Wilhelm Platz 1               #
                  #                 D-45470 Muelheim/Ruhr               #
                  #                      Germany                        #
                  #                                                     #
                  #                  All rights reserved                #
                  #                        -***-                        #
                  #######################################################


                         Program Version 4.2.0 -  RELEASE  -


 With contributions from (in alphabetic order):
   Daniel Aravena         : Magnetic Suceptibility
   Michael Atanasov       : Ab Initio Ligand Field Theory (pilot matlab implementation)
   Alexander A. Auer      : GIAO ZORA, VPT2
   Ute Becker             : Parallelization
   Giovanni Bistoni       : ED, misc. LED, open-shell LED, HFLED
   Martin Brehm           : Molecular dynamics
   Dmytro Bykov           : SCF Hessian
   Vijay G. Chilkuri      : MRCI spin determinant printing, contributions to CSF-ICE
   Dipayan Datta          : RHF DLPNO-CCSD density
   Achintya Kumar Dutta   : EOM-CC, STEOM-CC
   Dmitry Ganyushin       : Spin-Orbit,Spin-Spin,Magnetic field MRCI
   Miquel Garcia          : C-PCM Hessian, Gaussian charge scheme
   Yang Guo               : DLPNO-NEVPT2, CIM, IAO-localization
   Andreas Hansen         : Spin unrestricted coupled pair/coupled cluster methods
   Benjamin Helmich-Paris : CASSCF linear response (MC-RPA)
   Lee Huntington         : MR-EOM, pCC
   Robert Izsak           : Overlap fitted RIJCOSX, COSX-SCS-MP3, EOM
   Christian Kollmar      : KDIIS, OOCD, Brueckner-CCSD(T), CCSD density
   Simone Kossmann        : Meta GGA functionals, TD-DFT gradient, OOMP2, MP2 Hessian
   Martin Krupicka        : AUTO-CI
   Lucas Lang             : DCDCAS
   Dagmar Lenk            : GEPOL surface, SMD
   Dimitrios Liakos       : Extrapolation schemes; Compound Job, initial MDCI parallelization
   Dimitrios Manganas     : Further ROCIS development; embedding schemes
   Dimitrios Pantazis     : SARC Basis sets
   Taras Petrenko         : DFT Hessian,TD-DFT gradient, ASA, ECA, R-Raman, ABS, FL, XAS/XES, NRVS
   Peter Pinski           : DLPNO-MP2, DLPNO-MP2 Gradient
   Christoph Reimann      : Effective Core Potentials
   Marius Retegan         : Local ZFS, SOC
   Christoph Riplinger    : Optimizer, TS searches, QM/MM, DLPNO-CCSD(T), (RO)-DLPNO pert. Triples
   Tobias Risthaus        : Range-separated hybrids, TD-DFT gradient, RPA, STAB
   Michael Roemelt        : Original ROCIS implementation
   Masaaki Saitow         : Open-shell DLPNO-CCSD energy and density
   Barbara Sandhoefer     : DKH picture change effects
   Avijit Sen             : IP-ROCIS
   Kantharuban Sivalingam : CASSCF convergence, NEVPT2, FIC-MRCI
   Bernardo de Souza      : ESD, SOC TD-DFT
   Georgi Stoychev        : AutoAux, RI-MP2 NMR
   Willem Van den Heuvel  : Paramagnetic NMR
   Boris Wezisla          : Elementary symmetry handling
   Frank Wennmohs         : Technical directorship


 We gratefully acknowledge several colleagues who have allowed us to
 interface, adapt or use parts of their codes:
   Stefan Grimme, W. Hujo, H. Kruse,             : VdW corrections, initial TS optimization,
                  C. Bannwarth                     DFT functionals, gCP, sTDA/sTD-DF
   Ed Valeev, F. Pavosevic, A. Kumar             : LibInt (2-el integral package), F12 methods
   Garnet Chan, S. Sharma, J. Yang, R. Olivares  : DMRG
   Ulf Ekstrom                                   : XCFun DFT Library
   Mihaly Kallay                                 : mrcc  (arbitrary order and MRCC methods)
   Andreas Klamt, Michael Diedenhofen            : otool_cosmo (COSMO solvation model)
   Jiri Pittner, Ondrej Demel                    : Mk-CCSD
   Frank Weinhold                                : gennbo (NPA and NBO analysis)
   Christopher J. Cramer and Donald G. Truhlar   : smd solvation model
   Lars Goerigk                                  : TD-DFT with DH, B97 family of functionals
   V. Asgeirsson, H. Jonsson                     : NEB implementation
   FAccTs GmbH                                   : IRC, NEB, NEB-TS, Multilevel, MM, QM/MM, CI optimization
   S Lehtola, MJT Oliveira, MAL Marques          : LibXC Library


 Your calculation uses the libint2 library for the computation of 2-el integrals
 For citations please refer to: http://libint.valeyev.net

 Your ORCA version has been built with support for libXC version: 4.2.3
 For citations please refer to: https://tddft.org/programs/libxc/

 This ORCA versions uses:
   CBLAS   interface :  Fast vector & matrix operations
   LAPACKE interface :  Fast linear algebra routines
   SCALAPACK package :  Parallel linear algebra routines


XCFun DFT library Copyright 2009-2010 Ulf Ekstrom and contributors.
See http://admol.org/xcfun for more information. This is free soft-
ware; see the source code for copying conditions. There is ABSOLUTELY
NO WARRANTY; not even for MERCHANTABILITY or FITNESS FOR A PARTICULAR
PURPOSE. For details see the documentation. Scientific users of this 
library should cite U. Ekstrom, L. Visscher, R. Bast, A. J. Thorvald-
sen and K. Ruud; J.Chem.Theor.Comp. 2010, DOI: 10.1021/ct100117s
XCFun Version 0.99 
----- Orbital basis set information -----
Your calculation utilizes the basis: 6-31G(d)
   H-He, Li-Ne : W. J. Hehre, R. Ditchfield and J.A. Pople, J. Chem. Phys. 56, 2257 (1972).
                 Note: He and Ne are unpublished basis sets taken from the Gaussian program.
                 Note: Li and B from J. D. Dill and J. A. Pople, J. Chem. Phys. 62, 2921 (1975).
   Na - Ar     : M. M. Francl, W. J. Pietro, W. J. Hehre, J. S. Binkley, M. S. Gordon, 
                 D. J. DeFrees and J. A. Pople, J. Chem. Phys. 77, 3654 (1982).
   K - Zn      : V. A. Rassolov, J. A. Pople, M. A. Ratner, and T. L. Windus, J. Chem. Phys. 109, 1223 (1998).

================================================================================
                                        WARNINGS
                       Please study these warnings very carefully!
================================================================================


INFO   : the flag for use of LIBINT has been found!

================================================================================
                                       INPUT FILE
================================================================================
NAME = CO.inp
|  1> ! wB97X 6-31G(d)  KDIIS NOSOSCF VerySlowConv Grid4
|  2> %paras
|  3> R= 0.6271,5.1271,46
|  4> end
|  5> * xyz 0  1
|  6> C 0 0 0
|  7> O 0 0 {R}
|  8> *
|  9> 
| 10>                          ****END OF INPUT****
================================================================================

                       ******************************
                       * Parameter Scan Calculation *
                       ******************************

Trajectory settings:
    -> SCF surface will be mapped

There are 1 parameter(s) to be scanned
             R: range=   0.62710000 ..   5.12710000  steps=   46
There will be   46 energy evaluations


         *************************************************************
                                TRAJECTORY STEP   1
                  R  :   0.62710000
         *************************************************************
---------------------------------
CARTESIAN COORDINATES (ANGSTROEM)
---------------------------------
  C      0.000000    0.000000    0.000000
  O      0.000000    0.000000    0.627100

----------------------------
CARTESIAN COORDINATES (A.U.)
----------------------------
  NO LB      ZA    FRAG     MASS         X           Y           Z
   0 C     6.0000    0    12.011    0.000000    0.000000    0.000000
   1 O     8.0000    0    15.999    0.000000    0.000000    1.185047

--------------------------------
INTERNAL COORDINATES (ANGSTROEM)
--------------------------------
 C      0   0   0     0.000000000000     0.00000000     0.00000000
 O      1   0   0     0.627100000000     0.00000000     0.00000000

---------------------------
INTERNAL COORDINATES (A.U.)
---------------------------
 C      0   0   0     0.000000000000     0.00000000     0.00000000
 O      1   0   0     1.185047258582     0.00000000     0.00000000

---------------------
BASIS SET INFORMATION
---------------------
There are 2 groups of distinct atoms

 Group   1 Type C   : 10s4p1d contracted to 3s2p1d pattern {631/31/1}
 Group   2 Type O   : 10s4p1d contracted to 3s2p1d pattern {631/31/1}

Atom   0C    basis set group =>   1
Atom   1O    basis set group =>   2
------------------------------------------------------------------------------
                           ORCA GTO INTEGRAL CALCULATION
------------------------------------------------------------------------------

                         BASIS SET STATISTICS AND STARTUP INFO

 # of primitive gaussian shells          ...   30
 # of primitive gaussian functions       ...   54
 # of contracted shells                  ...   12
 # of contracted basis functions         ...   28
 Highest angular momentum                ...    2
 Maximum contraction depth               ...    6
 Integral package used                   ... LIBINT
 Integral threshhold            Thresh   ...  1.000e-10
 Primitive cut-off              TCut     ...  1.000e-11


------------------------------ INTEGRAL EVALUATION ----------------------------


 * One electron integrals 
 Pre-screening matrix                    ... done
 Shell pair data                         ... done (   0.000 sec)

-------------------------------------------------------------------------------
                                 ORCA SCF
-------------------------------------------------------------------------------

------------
SCF SETTINGS
------------
Hamiltonian:
 Density Functional     Method          .... DFT(GTOs)
 Exchange Functional    Exchange        .... WB97X
 Correlation Functional Correlation     .... WB97X
 Gradients option       PostSCFGGA      .... off
 Hybrid DFT is turned on
   Fraction HF Exchange ScalHFX         ....  0.157706
   Scaling of DF-GGA-X  ScalDFX         ....  0.000000
   Scaling of DF-GGA-C  ScalDFC         ....  1.000000
   Scaling of DF-LDA-C  ScalLDAC        ....  1.000000
   Perturbative correction              ....  0.000000
   Density functional embedding theory  .... OFF
 Long-range corrected/Screened/Range-Separated Hybrid DFT is turned on
   Amount of maximum screened exact exchange              ....  0.842294
   Range separation parameter mu (erf(mu*r12)/r12)        ....  0.300000


General Settings:
 Integral files         IntName         .... CO
 Hartree-Fock type      HFTyp           .... RHF
 Total Charge           Charge          ....    0
 Multiplicity           Mult            ....    1
 Number of Electrons    NEL             ....   14
 Basis Dimension        Dim             ....   28
 Nuclear Repulsion      ENuc            ....     40.5047137592 Eh

Convergence Acceleration:
 DIIS                   CNVDIIS         .... on
   Start iteration      DIISMaxIt       ....     0
   Startup error        DIISStart       ....  0.200000
   # of expansion vecs  DIISMaxEq       ....     5
   Bias factor          DIISBfac        ....   1.050
   Max. coefficient     DIISMaxC        ....  10.000
 Newton-Raphson         CNVNR           .... off
 SOSCF                  CNVSOSCF        .... off
 Level Shifting         CNVShift        .... off
 Zerner damping         CNVZerner       .... off
 Static damping         CNVDamp         .... off
 Fernandez-Rico         CNVRico         .... off

SCF Procedure:
 Maximum # iterations   MaxIter         ....   125
 SCF integral mode      SCFMode         .... Direct
   Integral package                     .... LIBINT
 Reset frequency        DirectResetFreq ....    20
 Integral Threshold     Thresh          ....  1.000e-10 Eh
 Primitive CutOff       TCut            ....  1.000e-11 Eh

Convergence Tolerance:
 Convergence Check Mode ConvCheckMode   .... All-Criteria
 Convergence forced     ConvForced      .... 0
 Energy Change          TolE            ....  1.000e-06 Eh
 Max Density Change     TolMaxP         ....  1.000e-05
 RMS Density Change     TolRMSP         ....  1.000e-06
 DIIS Error             TolErr          ....  1.000e-06


Diagonalization of the overlap matrix:
Smallest eigenvalue                        ... 6.184e-03
Time for diagonalization                   ...    0.001 sec
Threshold for overlap eigenvalues          ... 1.000e-08
Number of eigenvalues below threshold      ... 0
Time for construction of square roots      ...    0.000 sec
Total time needed                          ...    0.001 sec

-------------------
DFT GRID GENERATION
-------------------

General Integration Accuracy     IntAcc      ...  4.670
Radial Grid Type                 RadialGrid  ... Gauss-Chebyshev
Angular Grid (max. acc.)         AngularGrid ... Lebedev-302
Angular grid pruning method      GridPruning ... 3 (G Style)
Weight generation scheme         WeightScheme... Becke
Basis function cutoff            BFCut       ...    1.0000e-10
Integration weight cutoff        WCut        ...    1.0000e-14
Grids for H and He will be reduced by one unit

# of grid points (after initial pruning)     ...  12424 (   0.0 sec)
# of grid points (after weights+screening)   ...  12385 (   0.0 sec)
nearest neighbour list constructed           ...    0.0 sec
Grid point re-assignment to atoms done       ...    0.0 sec
Grid point division into batches done        ...    0.1 sec
Reduced shell lists constructed in    0.1 sec

Total number of grid points                  ...    12385
Total number of batches                      ...      195
Average number of points per batch           ...       63
Average number of grid points per atom       ...     6192
Average number of shells per batch           ...     9.42 (78.53%)
Average number of basis functions per batch  ...    22.59 (80.67%)
Average number of large shells per batch     ...     8.84 (93.83%)
Average number of large basis fcns per batch ...    21.31 (94.35%)
Maximum spatial batch extension              ...  22.15, 22.15, 19.99 au
Average spatial batch extension              ...   4.23,  4.21,  3.63 au

Time for grid setup =    0.083 sec

------------------------------
INITIAL GUESS: MODEL POTENTIAL
------------------------------
Loading Hartree-Fock densities                     ... done
Calculating cut-offs                               ... done
Setting up the integral package                    ... done
Initializing the effective Hamiltonian             ... done
Starting the Coulomb interaction                   ... done (   0.0 sec)
Reading the grid                                   ... done
Mapping shells                                     ... done
Starting the XC term evaluation                    ... done (   0.0 sec)
  promolecular density results
     # of electrons  =     13.999980309
     EX              =    -13.578352459
     EC              =     -0.467241910
     EX+EC           =    -14.045594369
Transforming the Hamiltonian                       ... done (   0.0 sec)
Diagonalizing the Hamiltonian                      ... done (   0.0 sec)
Back transforming the eigenvectors                 ... done (   0.0 sec)
Now organizing SCF variables                       ... done
                      ------------------
                      INITIAL GUESS DONE (   0.2 sec)
                      ------------------
--------------
SCF ITERATIONS
--------------
ITER       Energy         Delta-E        Max-DP      RMS-DP      [F,P]   Gradient Norm
               ***  Starting incremental Fock matrix formation  ***
                             ****Resetting KDIIS****
                             ****Turning on KDIIS(Cayley)****
  0   -110.6300380302   0.000000000000 0.03551416  0.00386891  0.1583485   0.190487971
  1   -110.6806697489  -0.050631718742 0.06830498  0.00507212  0.1344358   0.161867379
  2   -110.7272299507  -0.046560201762 0.10501769  0.00791272  0.1117750   0.133461834
  3   -110.7838695231  -0.056639572410 0.19828353  0.01281731  0.0698773   0.082775406
  4   -110.8183677204  -0.034498197323 0.04084372  0.00234612  0.0050537   0.003994202
  5   -110.8184655757  -0.000097855297 0.00462764  0.00040171  0.0018066   0.001630750
  6   -110.8184741917  -0.000008615956 0.00791720  0.00048519  0.0012671   0.001125982
  7   -110.8184821133  -0.000007921592 0.00139568  0.00008222  0.0002161   0.000194118
                          ***Energy convergence achieved***
  8   -110.8184823656  -0.000000252338 0.00001381  0.00000110  0.0000017   0.000001745
                           ***RMSP convergence achieved***
                           ***MAXP convergence achieved***
                    *** KDIIS BlockDiag ( 1.978 sec) ***

               *****************************************************
               *                     SUCCESS                       *
               *           SCF CONVERGED AFTER   9 CYCLES          *
               *****************************************************

Setting up the final grid:

General Integration Accuracy     IntAcc      ...  5.010
Radial Grid Type                 RadialGrid  ... Gauss-Chebyshev
Angular Grid (max. acc.)         AngularGrid ... Lebedev-434
Angular grid pruning method      GridPruning ... 3 (G Style)
Weight generation scheme         WeightScheme... Becke
Basis function cutoff            BFCut       ...    1.0000e-10
Integration weight cutoff        WCut        ...    1.0000e-14
Grids for H and He will be reduced by one unit

# of grid points (after initial pruning)     ...  21540 (   0.0 sec)
# of grid points (after weights+screening)   ...  21357 (   0.0 sec)
nearest neighbour list constructed           ...    0.0 sec
Grid point re-assignment to atoms done       ...    0.0 sec
Grid point division into batches done        ...    0.2 sec
Reduced shell lists constructed in    0.2 sec

Total number of grid points                  ...    21357
Total number of batches                      ...      335
Average number of points per batch           ...       63
Average number of grid points per atom       ...    10678
Average number of shells per batch           ...     9.24 (77.03%)
Average number of basis functions per batch  ...    22.11 (78.98%)
Average number of large shells per batch     ...     8.70 (94.11%)
Average number of large basis fcns per batch ...    21.04 (95.17%)
Maximum spatial batch extension              ...  19.91, 19.91, 17.19 au
Average spatial batch extension              ...   3.56,  3.59,  2.99 au

Final grid set up in    0.2 sec
Final integration                            ... done (   0.1 sec)
Change in XC energy                          ...    -0.000096819
Integrated number of electrons               ...    14.000004010
Previous integrated no of electrons          ...    13.999987279

----------------
TOTAL SCF ENERGY
----------------

Total Energy       :         -110.81857918 Eh           -3015.52685 eV

Components:
Nuclear Repulsion  :           40.50471376 Eh            1102.18930 eV
Electronic Energy  :         -151.32329294 Eh           -4117.71614 eV
One Electron Energy:         -227.45061194 Eh           -6189.24581 eV
Two Electron Energy:           76.12731899 Eh            2071.52966 eV

Virial components:
Potential Energy   :         -231.42365211 Eh           -6297.35773 eV
Kinetic Energy     :          120.60507292 Eh            3281.83088 eV
Virial Ratio       :            1.91885504


DFT components:
N(Alpha)           :        7.000002005160 electrons
N(Beta)            :        7.000002005160 electrons
N(Total)           :       14.000004010321 electrons
E(XC)              :      -10.713923777343 Eh       
DFET-embed. en.    :        0.000000000000 Eh       

---------------
SCF CONVERGENCE
---------------

  Last Energy change         ...   -3.3921e-11  Tolerance :   1.0000e-06
  Last MAX-Density change    ...    4.6697e-06  Tolerance :   1.0000e-05
  Last RMS-Density change    ...    2.6149e-07  Tolerance :   1.0000e-06
  Last DIIS Error            ...    3.8055e-07  Tolerance :   1.0000e-06

             **** THE GBW FILE WAS UPDATED (CO.gbw) ****
             **** DENSITY FILE WAS UPDATED (CO.scfp) ****
             **** ENERGY FILE WAS UPDATED (CO.en.tmp) ****
             **** THE GBW FILE WAS UPDATED (CO.gbw) ****
             **** DENSITY FILE WAS UPDATED (CO.scfp) ****
----------------
ORBITAL ENERGIES
----------------

  NO   OCC          E(Eh)            E(eV) 
   0   2.0000     -19.407217      -528.0972 
   1   2.0000     -10.439877      -284.0835 
   2   2.0000      -1.380492       -37.5651 
   3   2.0000      -0.877734       -23.8843 
   4   2.0000      -0.877734       -23.8843 
   5   2.0000      -0.622559       -16.9407 
   6   2.0000      -0.403139       -10.9700 
   7   0.0000       0.325594         8.8599 
   8   0.0000       0.325594         8.8599 
   9   0.0000       0.397897        10.8273 
  10   0.0000       0.614950        16.7336 
  11   0.0000       0.647746        17.6261 
  12   0.0000       0.647746        17.6261 
  13   0.0000       1.004692        27.3391 
  14   0.0000       1.120287        30.4846 
  15   0.0000       1.120287        30.4846 
  16   0.0000       1.490170        40.5496 
  17   0.0000       1.490174        40.5497 
  18   0.0000       1.765948        48.0539 
  19   0.0000       2.153152        58.5903 
  20   0.0000       2.319417        63.1145 
  21   0.0000       2.319417        63.1145 
  22   0.0000       2.452959        66.7484 
  23   0.0000       2.452960        66.7484 
  24   0.0000       3.644543        99.1731 
  25   0.0000       3.644543        99.1731 
  26   0.0000       3.696245       100.5799 
  27   0.0000       7.987161       217.3417 

                    ********************************
                    * MULLIKEN POPULATION ANALYSIS *
                    ********************************

-----------------------
MULLIKEN ATOMIC CHARGES
-----------------------
   0 C :   -0.615396
   1 O :    0.615396
Sum of atomic charges:    0.0000000

--------------------------------
MULLIKEN REDUCED ORBITAL CHARGES
--------------------------------
  0 C s       :     3.756186  s :     3.756186
      pz      :     1.353712  p :     2.766412
      px      :     0.706350
      py      :     0.706350
      dz2     :    -0.010029  d :     0.092798
      dxz     :     0.051414
      dyz     :     0.051414
      dx2y2   :     0.000000
      dxy     :     0.000000
  1 O s       :     3.335151  s :     3.335151
      pz      :     1.573758  p :     4.023299
      px      :     1.224771
      py      :     1.224771
      dz2     :    -0.008779  d :     0.026153
      dxz     :     0.017466
      dyz     :     0.017466
      dx2y2   :     0.000000
      dxy     :    -0.000000


                     *******************************
                     * LOEWDIN POPULATION ANALYSIS *
                     *******************************

----------------------
LOEWDIN ATOMIC CHARGES
----------------------
   0 C :   -0.393650
   1 O :    0.393650

-------------------------------
LOEWDIN REDUCED ORBITAL CHARGES
-------------------------------
  0 C s       :     3.240097  s :     3.240097
      pz      :     1.465942  p :     2.854122
      px      :     0.694090
      py      :     0.694090
      dz2     :     0.089702  d :     0.299431
      dxz     :     0.104864
      dyz     :     0.104864
      dx2y2   :     0.000000
      dxy     :     0.000000
  1 O s       :     3.234784  s :     3.234784
      pz      :     1.866559  p :     4.192862
      px      :     1.163152
      py      :     1.163152
      dz2     :     0.102916  d :     0.178704
      dxz     :     0.037894
      dyz     :     0.037894
      dx2y2   :     0.000000
      dxy     :     0.000000


                      *****************************
                      * MAYER POPULATION ANALYSIS *
                      *****************************

  NA   - Mulliken gross atomic population
  ZA   - Total nuclear charge
  QA   - Mulliken gross atomic charge
  VA   - Mayer's total valence
  BVA  - Mayer's bonded valence
  FA   - Mayer's free valence

  ATOM       NA         ZA         QA         VA         BVA        FA
  0 C      6.6154     6.0000    -0.6154     2.7732     2.7732     0.0000
  1 O      7.3846     8.0000     0.6154     2.7732     2.7732     0.0000

  Mayer bond orders larger than 0.100000
B(  0-C ,  1-O ) :   2.7732 

-------
TIMINGS
-------

Total SCF time: 0 days 0 hours 0 min 2 sec 

Total time                  ....       2.324 sec
Sum of individual times     ....       2.178 sec  ( 93.7%)

Fock matrix formation       ....       1.758 sec  ( 75.6%)
  XC integration            ....       0.824 sec  ( 46.9% of F)
    Basis function eval.    ....       0.160 sec  ( 19.5% of XC)
    Density eval.           ....       0.057 sec  (  6.9% of XC)
    XC-Functional eval.     ....       0.522 sec  ( 63.4% of XC)
    XC-Potential eval.      ....       0.049 sec  (  6.0% of XC)
Diagonalization             ....       0.003 sec  (  0.1%)
Density matrix formation    ....       0.000 sec  (  0.0%)
Population analysis         ....       0.001 sec  (  0.0%)
Initial guess               ....       0.109 sec  (  4.7%)
Orbital Transformation      ....       0.000 sec  (  0.0%)
Orbital Orthonormalization  ....       0.000 sec  (  0.0%)
DIIS solution               ....       0.000 sec  (  0.0%)
Grid generation             ....       0.307 sec  ( 13.2%)

-------------------------   --------------------
FINAL SINGLE POINT ENERGY      -110.818579184277
-------------------------   --------------------

Storing actual gbw-file in CO.001.gbw ... done

                            ***************************************
                            *     ORCA property calculations      *
                            ***************************************

                                    ---------------------
                                    Active property flags
                                    ---------------------
   (+) Dipole Moment


------------------------------------------------------------------------------
                       ORCA ELECTRIC PROPERTIES CALCULATION
------------------------------------------------------------------------------

Dipole Moment Calculation                       ... on
Quadrupole Moment Calculation                   ... off
Polarizability Calculation                      ... off
GBWName                                         ... CO.gbw
Electron density file                           ... CO.scfp
The origin for moment calculation is the CENTER OF MASS  = ( 0.000000,  0.000000  0.676886)

-------------
DIPOLE MOMENT
-------------
                                X             Y             Z
Electronic contribution:      0.00000       0.00000       0.58626
Nuclear contribution   :      0.00000       0.00000       0.00398
                        -----------------------------------------
Total Dipole Moment    :      0.00000       0.00000       0.59023
                        -----------------------------------------
Magnitude (a.u.)       :      0.59023
Magnitude (Debye)      :      1.50025



--------------------
Rotational spectrum 
--------------------
 
Rotational constants in cm-1:     0.000000     6.248336     6.248336 
Rotational constants in MHz :     0.000000 187320.412662 187320.412662 

 Dipole components along the rotational axes: 
x,y,z [a.u.] :     0.590232     0.000000     0.000000 
x,y,z [Debye]:     1.500250     0.000000     0.000000 

 

         *************************************************************
                                TRAJECTORY STEP   2
                  R  :   0.72710000
         *************************************************************
---------------------------------
CARTESIAN COORDINATES (ANGSTROEM)
---------------------------------
  C      0.000000    0.000000    0.000000
  O      0.000000    0.000000    0.727100

----------------------------
CARTESIAN COORDINATES (A.U.)
----------------------------
  NO LB      ZA    FRAG     MASS         X           Y           Z
   0 C     6.0000    0    12.011    0.000000    0.000000    0.000000
   1 O     8.0000    0    15.999    0.000000    0.000000    1.374020

--------------------------------
INTERNAL COORDINATES (ANGSTROEM)
--------------------------------
 C      0   0   0     0.000000000000     0.00000000     0.00000000
 O      1   0   0     0.727100000000     0.00000000     0.00000000

---------------------------
INTERNAL COORDINATES (A.U.)
---------------------------
 C      0   0   0     0.000000000000     0.00000000     0.00000000
 O      1   0   0     1.374019871974     0.00000000     0.00000000


Diagonalization of the overlap matrix:
Smallest eigenvalue                        ... 6.963e-03
Time for diagonalization                   ...    0.001 sec
Threshold for overlap eigenvalues          ... 1.000e-08
Number of eigenvalues below threshold      ... 0
Time for construction of square roots      ...    0.000 sec
Total time needed                          ...    0.001 sec

-------------------
DFT GRID GENERATION
-------------------

General Integration Accuracy     IntAcc      ...  4.670
Radial Grid Type                 RadialGrid  ... Gauss-Chebyshev
Angular Grid (max. acc.)         AngularGrid ... Lebedev-302
Angular grid pruning method      GridPruning ... 3 (G Style)
Weight generation scheme         WeightScheme... Becke
Basis function cutoff            BFCut       ...    1.0000e-10
Integration weight cutoff        WCut        ...    1.0000e-14
Grids for H and He will be reduced by one unit

# of grid points (after initial pruning)     ...  12424 (   0.0 sec)
# of grid points (after weights+screening)   ...  12387 (   0.0 sec)
nearest neighbour list constructed           ...    0.0 sec
Grid point re-assignment to atoms done       ...    0.0 sec
Grid point division into batches done        ...    0.1 sec
Reduced shell lists constructed in    0.1 sec

Total number of grid points                  ...    12387
Total number of batches                      ...      194
Average number of points per batch           ...       63
Average number of grid points per atom       ...     6194
Average number of shells per batch           ...     9.37 (78.12%)
Average number of basis functions per batch  ...    22.52 (80.44%)
Average number of large shells per batch     ...     8.84 (94.26%)
Average number of large basis fcns per batch ...    21.34 (94.74%)
Maximum spatial batch extension              ...  22.15, 22.15, 19.80 au
Average spatial batch extension              ...   4.24,  4.30,  3.65 au

Time for grid setup =    0.083 sec

--------------
SCF ITERATIONS
--------------
ITER       Energy         Delta-E        Max-DP      RMS-DP      [F,P]   Gradient Norm
               ***  Starting incremental Fock matrix formation  ***
                             ****Resetting KDIIS****
                             ****Turning on KDIIS(Cayley)****
  0   -112.0941420137   0.000000000000 0.01836757  0.00143882  0.0915273   0.076972387
  1   -112.0996322534  -0.005490239714 0.03092127  0.00242519  0.0830006   0.069459176
  2   -112.1078313602  -0.008199106726 0.04943737  0.00399551  0.0665913   0.055989224
  3   -112.1177889719  -0.009957611758 0.07157359  0.00594580  0.0401270   0.033573093
  4   -112.1233107798  -0.005521807887 0.00076526  0.00008314  0.0004382   0.000480465
  5   -112.1233121000  -0.000001320154 0.00034372  0.00001959  0.0000790   0.000100287
                          ***Energy convergence achieved***
  6   -112.1233121536  -0.000000053607 0.00004131  0.00000221  0.0000084   0.000006352
Warning: badly conditioned DIIS matrix, 1 vectors out of 5 destroyed
                           ***RMSP convergence achieved***
                           ***MAXP convergence achieved***
                    *** KDIIS BlockDiag ( 1.542 sec) ***

               *****************************************************
               *                     SUCCESS                       *
               *           SCF CONVERGED AFTER   7 CYCLES          *
               *****************************************************

Setting up the final grid:

General Integration Accuracy     IntAcc      ...  5.010
Radial Grid Type                 RadialGrid  ... Gauss-Chebyshev
Angular Grid (max. acc.)         AngularGrid ... Lebedev-434
Angular grid pruning method      GridPruning ... 3 (G Style)
Weight generation scheme         WeightScheme... Becke
Basis function cutoff            BFCut       ...    1.0000e-10
Integration weight cutoff        WCut        ...    1.0000e-14
Grids for H and He will be reduced by one unit

# of grid points (after initial pruning)     ...  21540 (   0.0 sec)
# of grid points (after weights+screening)   ...  21375 (   0.0 sec)
nearest neighbour list constructed           ...    0.0 sec
Grid point re-assignment to atoms done       ...    0.0 sec
Grid point division into batches done        ...    0.2 sec
Reduced shell lists constructed in    0.2 sec

Total number of grid points                  ...    21375
Total number of batches                      ...      335
Average number of points per batch           ...       63
Average number of grid points per atom       ...    10688
Average number of shells per batch           ...     9.23 (76.88%)
Average number of basis functions per batch  ...    22.11 (78.98%)
Average number of large shells per batch     ...     8.67 (93.97%)
Average number of large basis fcns per batch ...    20.91 (94.58%)
Maximum spatial batch extension              ...  19.91, 19.91, 17.34 au
Average spatial batch extension              ...   3.55,  3.57,  3.02 au

Final grid set up in    0.2 sec
Final integration                            ... done (   0.1 sec)
Change in XC energy                          ...    -0.000153152
Integrated number of electrons               ...    14.000003921
Previous integrated no of electrons          ...    13.999984308
Total Energy       :         -112.12346531 Eh           -3051.03460 eV
  Last Energy change         ...   -2.9036e-10  Tolerance :   1.0000e-06
  Last MAX-Density change    ...    7.1532e-06  Tolerance :   1.0000e-05
             **** THE GBW FILE WAS UPDATED (CO.gbw) ****
             **** DENSITY FILE WAS UPDATED (CO.scfp) ****
             **** ENERGY FILE WAS UPDATED (CO.en.tmp) ****
             **** THE GBW FILE WAS UPDATED (CO.gbw) ****
             **** DENSITY FILE WAS UPDATED (CO.scfp) ****
Total SCF time: 0 days 0 hours 0 min 1 sec 

-------------------------   --------------------
FINAL SINGLE POINT ENERGY      -112.123465306025
-------------------------   --------------------

Storing actual gbw-file in CO.002.gbw ... done

                            ***************************************
                            *     ORCA property calculations      *
                            ***************************************

                                    ---------------------
                                    Active property flags
                                    ---------------------
   (+) Dipole Moment


------------------------------------------------------------------------------
                       ORCA ELECTRIC PROPERTIES CALCULATION
------------------------------------------------------------------------------

Dipole Moment Calculation                       ... on
Quadrupole Moment Calculation                   ... off
Polarizability Calculation                      ... off
GBWName                                         ... CO.gbw
Electron density file                           ... CO.scfp
The origin for moment calculation is the CENTER OF MASS  = ( 0.000000,  0.000000  0.784825)

-------------
DIPOLE MOMENT
-------------
                                X             Y             Z
Electronic contribution:      0.00000       0.00000       0.51132
Nuclear contribution   :      0.00000       0.00000       0.00461
                        -----------------------------------------
Total Dipole Moment    :      0.00000       0.00000       0.51593
                        -----------------------------------------
Magnitude (a.u.)       :      0.51593
Magnitude (Debye)      :      1.31140



--------------------
Rotational spectrum 
--------------------
 
Rotational constants in cm-1:     0.000000     4.647824     4.647824 
Rotational constants in MHz :     0.000000 139338.271285 139338.271285 

 Dipole components along the rotational axes: 
x,y,z [a.u.] :     0.515932     0.000000     0.000000 
x,y,z [Debye]:     1.311395     0.000000     0.000000 

 

         *************************************************************
                                TRAJECTORY STEP   3
                  R  :   0.82710000
         *************************************************************
---------------------------------
CARTESIAN COORDINATES (ANGSTROEM)
---------------------------------
  C      0.000000    0.000000    0.000000
  O      0.000000    0.000000    0.827100

----------------------------
CARTESIAN COORDINATES (A.U.)
----------------------------
  NO LB      ZA    FRAG     MASS         X           Y           Z
   0 C     6.0000    0    12.011    0.000000    0.000000    0.000000
   1 O     8.0000    0    15.999    0.000000    0.000000    1.562992

--------------------------------
INTERNAL COORDINATES (ANGSTROEM)
--------------------------------
 C      0   0   0     0.000000000000     0.00000000     0.00000000
 O      1   0   0     0.827100000000     0.00000000     0.00000000

---------------------------
INTERNAL COORDINATES (A.U.)
---------------------------
 C      0   0   0     0.000000000000     0.00000000     0.00000000
 O      1   0   0     1.562992485366     0.00000000     0.00000000


Diagonalization of the overlap matrix:
Smallest eigenvalue                        ... 8.068e-03
Time for diagonalization                   ...    0.001 sec
Threshold for overlap eigenvalues          ... 1.000e-08
Number of eigenvalues below threshold      ... 0
Time for construction of square roots      ...    0.000 sec
Total time needed                          ...    0.001 sec

-------------------
DFT GRID GENERATION
-------------------

General Integration Accuracy     IntAcc      ...  4.670
Radial Grid Type                 RadialGrid  ... Gauss-Chebyshev
Angular Grid (max. acc.)         AngularGrid ... Lebedev-302
Angular grid pruning method      GridPruning ... 3 (G Style)
Weight generation scheme         WeightScheme... Becke
Basis function cutoff            BFCut       ...    1.0000e-10
Integration weight cutoff        WCut        ...    1.0000e-14
Grids for H and He will be reduced by one unit

# of grid points (after initial pruning)     ...  12424 (   0.0 sec)
# of grid points (after weights+screening)   ...  12389 (   0.0 sec)
nearest neighbour list constructed           ...    0.0 sec
Grid point re-assignment to atoms done       ...    0.0 sec
Grid point division into batches done        ...    0.1 sec
Reduced shell lists constructed in    0.1 sec

Total number of grid points                  ...    12389
Total number of batches                      ...      195
Average number of points per batch           ...       63
Average number of grid points per atom       ...     6194
Average number of shells per batch           ...     9.40 (78.32%)
Average number of basis functions per batch  ...    22.56 (80.58%)
Average number of large shells per batch     ...     8.81 (93.70%)
Average number of large basis fcns per batch ...    21.27 (94.26%)
Maximum spatial batch extension              ...  22.15, 22.15, 19.61 au
Average spatial batch extension              ...   4.21,  4.28,  3.65 au

Time for grid setup =    0.083 sec

--------------
SCF ITERATIONS
--------------
ITER       Energy         Delta-E        Max-DP      RMS-DP      [F,P]   Gradient Norm
               ***  Starting incremental Fock matrix formation  ***
                             ****Resetting KDIIS****
                             ****Turning on KDIIS(Cayley)****
  0   -112.7715989871   0.000000000000 0.00947108  0.00105714  0.0519292   0.053122644
  1   -112.7750946578  -0.003495670743 0.01606749  0.00175524  0.0463884   0.047500223
  2   -112.7798786848  -0.004784027017 0.02642977  0.00285613  0.0375110   0.038368595
  3   -112.7856885565  -0.005809871687 0.04012724  0.00432961  0.0229296   0.023095784
  4   -112.7889652737  -0.003276717144 0.00064153  0.00007081  0.0003637   0.000429537
                          ***Energy convergence achieved***
  5   -112.7889662492  -0.000000975561 0.00009952  0.00000714  0.0000391   0.000048332
Warning: badly conditioned DIIS matrix, 1 vectors out of 5 destroyed

            ***Energy convergence in two consecutive cycles with***
                    ***'reasonable' density convergence***
                       *** signaling convergence ***

                    *** KDIIS BlockDiag ( 1.386 sec) ***

               *****************************************************
               *                     SUCCESS                       *
               *           SCF CONVERGED AFTER   6 CYCLES          *
               *****************************************************

Setting up the final grid:

General Integration Accuracy     IntAcc      ...  5.010
Radial Grid Type                 RadialGrid  ... Gauss-Chebyshev
Angular Grid (max. acc.)         AngularGrid ... Lebedev-434
Angular grid pruning method      GridPruning ... 3 (G Style)
Weight generation scheme         WeightScheme... Becke
Basis function cutoff            BFCut       ...    1.0000e-10
Integration weight cutoff        WCut        ...    1.0000e-14
Grids for H and He will be reduced by one unit

# of grid points (after initial pruning)     ...  21540 (   0.0 sec)
# of grid points (after weights+screening)   ...  21393 (   0.0 sec)
nearest neighbour list constructed           ...    0.0 sec
Grid point re-assignment to atoms done       ...    0.0 sec
Grid point division into batches done        ...    0.2 sec
Reduced shell lists constructed in    0.2 sec

Total number of grid points                  ...    21393
Total number of batches                      ...      336
Average number of points per batch           ...       63
Average number of grid points per atom       ...    10696
Average number of shells per batch           ...     9.22 (76.83%)
Average number of basis functions per batch  ...    22.09 (78.90%)
Average number of large shells per batch     ...     8.64 (93.66%)
Average number of large basis fcns per batch ...    20.95 (94.83%)
Maximum spatial batch extension              ...  19.91, 19.91, 17.53 au
Average spatial batch extension              ...   3.57,  3.60,  3.03 au

Final grid set up in    0.2 sec
Final integration                            ... done (   0.1 sec)
Change in XC energy                          ...    -0.000247680
Integrated number of electrons               ...    14.000004255
Previous integrated no of electrons          ...    13.999994674
Total Energy       :         -112.78921394 Eh           -3069.15054 eV
  Last Energy change         ...   -1.2636e-08  Tolerance :   1.0000e-06
  Last MAX-Density change    ...    1.4186e-05  Tolerance :   1.0000e-05
             **** THE GBW FILE WAS UPDATED (CO.gbw) ****
             **** DENSITY FILE WAS UPDATED (CO.scfp) ****
             **** ENERGY FILE WAS UPDATED (CO.en.tmp) ****
             **** THE GBW FILE WAS UPDATED (CO.gbw) ****
             **** DENSITY FILE WAS UPDATED (CO.scfp) ****
Total SCF time: 0 days 0 hours 0 min 1 sec 

-------------------------   --------------------
FINAL SINGLE POINT ENERGY      -112.789213942000
-------------------------   --------------------

Storing actual gbw-file in CO.003.gbw ... done

                            ***************************************
                            *     ORCA property calculations      *
                            ***************************************

                                    ---------------------
                                    Active property flags
                                    ---------------------
   (+) Dipole Moment


------------------------------------------------------------------------------
                       ORCA ELECTRIC PROPERTIES CALCULATION
------------------------------------------------------------------------------

Dipole Moment Calculation                       ... on
Quadrupole Moment Calculation                   ... off
Polarizability Calculation                      ... off
GBWName                                         ... CO.gbw
Electron density file                           ... CO.scfp
The origin for moment calculation is the CENTER OF MASS  = ( 0.000000,  0.000000  0.892764)

-------------
DIPOLE MOMENT
-------------
                                X             Y             Z
Electronic contribution:      0.00000       0.00000       0.40892
Nuclear contribution   :      0.00000       0.00000       0.00525
                        -----------------------------------------
Total Dipole Moment    :      0.00000       0.00000       0.41417
                        -----------------------------------------
Magnitude (a.u.)       :      0.41417
Magnitude (Debye)      :      1.05273



--------------------
Rotational spectrum 
--------------------
 
Rotational constants in cm-1:     0.000000     3.591881     3.591881 
Rotational constants in MHz :     0.000000 107681.889057 107681.889057 

 Dipole components along the rotational axes: 
x,y,z [a.u.] :     0.414168     0.000000     0.000000 
x,y,z [Debye]:     1.052730     0.000000     0.000000 

 

         *************************************************************
                                TRAJECTORY STEP   4
                  R  :   0.92710000
         *************************************************************
---------------------------------
CARTESIAN COORDINATES (ANGSTROEM)
---------------------------------
  C      0.000000    0.000000    0.000000
  O      0.000000    0.000000    0.927100

----------------------------
CARTESIAN COORDINATES (A.U.)
----------------------------
  NO LB      ZA    FRAG     MASS         X           Y           Z
   0 C     6.0000    0    12.011    0.000000    0.000000    0.000000
   1 O     8.0000    0    15.999    0.000000    0.000000    1.751965

--------------------------------
INTERNAL COORDINATES (ANGSTROEM)
--------------------------------
 C      0   0   0     0.000000000000     0.00000000     0.00000000
 O      1   0   0     0.927100000000     0.00000000     0.00000000

---------------------------
INTERNAL COORDINATES (A.U.)
---------------------------
 C      0   0   0     0.000000000000     0.00000000     0.00000000
 O      1   0   0     1.751965098758     0.00000000     0.00000000


Diagonalization of the overlap matrix:
Smallest eigenvalue                        ... 9.711e-03
Time for diagonalization                   ...    0.001 sec
Threshold for overlap eigenvalues          ... 1.000e-08
Number of eigenvalues below threshold      ... 0
Time for construction of square roots      ...    0.000 sec
Total time needed                          ...    0.001 sec

-------------------
DFT GRID GENERATION
-------------------

General Integration Accuracy     IntAcc      ...  4.670
Radial Grid Type                 RadialGrid  ... Gauss-Chebyshev
Angular Grid (max. acc.)         AngularGrid ... Lebedev-302
Angular grid pruning method      GridPruning ... 3 (G Style)
Weight generation scheme         WeightScheme... Becke
Basis function cutoff            BFCut       ...    1.0000e-10
Integration weight cutoff        WCut        ...    1.0000e-14
Grids for H and He will be reduced by one unit

# of grid points (after initial pruning)     ...  12424 (   0.0 sec)
# of grid points (after weights+screening)   ...  12391 (   0.0 sec)
nearest neighbour list constructed           ...    0.0 sec
Grid point re-assignment to atoms done       ...    0.0 sec
Grid point division into batches done        ...    0.1 sec
Reduced shell lists constructed in    0.1 sec

Total number of grid points                  ...    12391
Total number of batches                      ...      195
Average number of points per batch           ...       63
Average number of grid points per atom       ...     6196
Average number of shells per batch           ...     9.32 (77.64%)
Average number of basis functions per batch  ...    22.35 (79.81%)
Average number of large shells per batch     ...     8.79 (94.30%)
Average number of large basis fcns per batch ...    21.26 (95.11%)
Maximum spatial batch extension              ...  22.15, 22.15, 19.42 au
Average spatial batch extension              ...   4.26,  4.28,  3.67 au

Time for grid setup =    0.083 sec

--------------
SCF ITERATIONS
--------------
ITER       Energy         Delta-E        Max-DP      RMS-DP      [F,P]   Gradient Norm
               ***  Starting incremental Fock matrix formation  ***
                             ****Resetting KDIIS****
                             ****Turning on KDIIS(Cayley)****
  0   -113.0964616750   0.000000000000 0.00732030  0.00078286  0.0442636   0.044451535
  1   -113.0990566139  -0.002594938891 0.01269975  0.00127216  0.0395498   0.039515680
  2   -113.1024698321  -0.003413218219 0.02014212  0.00206126  0.0318344   0.032034324
  3   -113.1066170357  -0.004147203542 0.03046679  0.00318989  0.0196769   0.019365555
  4   -113.1090314032  -0.002414367545 0.00041047  0.00004872  0.0002307   0.000256608
                          ***Energy convergence achieved***
  5   -113.1090317724  -0.000000369156 0.00003173  0.00000304  0.0000281   0.000027890
Warning: badly conditioned DIIS matrix, 1 vectors out of 5 destroyed
                           ***RMSP convergence achieved***

            ***Energy convergence in two consecutive cycles with***
                    ***'reasonable' density convergence***
                       *** signaling convergence ***

                    *** KDIIS BlockDiag ( 1.391 sec) ***

               *****************************************************
               *                     SUCCESS                       *
               *           SCF CONVERGED AFTER   6 CYCLES          *
               *****************************************************

Setting up the final grid:

General Integration Accuracy     IntAcc      ...  5.010
Radial Grid Type                 RadialGrid  ... Gauss-Chebyshev
Angular Grid (max. acc.)         AngularGrid ... Lebedev-434
Angular grid pruning method      GridPruning ... 3 (G Style)
Weight generation scheme         WeightScheme... Becke
Basis function cutoff            BFCut       ...    1.0000e-10
Integration weight cutoff        WCut        ...    1.0000e-14
Grids for H and He will be reduced by one unit

# of grid points (after initial pruning)     ...  21540 (   0.0 sec)
# of grid points (after weights+screening)   ...  21410 (   0.0 sec)
nearest neighbour list constructed           ...    0.0 sec
Grid point re-assignment to atoms done       ...    0.0 sec
Grid point division into batches done        ...    0.2 sec
Reduced shell lists constructed in    0.2 sec

Total number of grid points                  ...    21410
Total number of batches                      ...      335
Average number of points per batch           ...       63
Average number of grid points per atom       ...    10705
Average number of shells per batch           ...     9.20 (76.64%)
Average number of basis functions per batch  ...    22.04 (78.72%)
Average number of large shells per batch     ...     8.56 (93.07%)
Average number of large basis fcns per batch ...    20.78 (94.27%)
Maximum spatial batch extension              ...  19.91, 19.91, 17.72 au
Average spatial batch extension              ...   3.60,  3.63,  3.01 au

Final grid set up in    0.2 sec
Final integration                            ... done (   0.1 sec)
Change in XC energy                          ...    -0.000333333
Integrated number of electrons               ...    14.000000166
Previous integrated no of electrons          ...    14.000009129
Total Energy       :         -113.10936511 Eh           -3077.86230 eV
  Last Energy change         ...   -4.0132e-09  Tolerance :   1.0000e-06
  Last MAX-Density change    ...    1.1439e-05  Tolerance :   1.0000e-05
             **** THE GBW FILE WAS UPDATED (CO.gbw) ****
             **** DENSITY FILE WAS UPDATED (CO.scfp) ****
             **** ENERGY FILE WAS UPDATED (CO.en.tmp) ****
             **** THE GBW FILE WAS UPDATED (CO.gbw) ****
             **** DENSITY FILE WAS UPDATED (CO.scfp) ****
Total SCF time: 0 days 0 hours 0 min 1 sec 

-------------------------   --------------------
FINAL SINGLE POINT ENERGY      -113.109365109428
-------------------------   --------------------

Storing actual gbw-file in CO.004.gbw ... done

                            ***************************************
                            *     ORCA property calculations      *
                            ***************************************

                                    ---------------------
                                    Active property flags
                                    ---------------------
   (+) Dipole Moment


------------------------------------------------------------------------------
                       ORCA ELECTRIC PROPERTIES CALCULATION
------------------------------------------------------------------------------

Dipole Moment Calculation                       ... on
Quadrupole Moment Calculation                   ... off
Polarizability Calculation                      ... off
GBWName                                         ... CO.gbw
Electron density file                           ... CO.scfp
The origin for moment calculation is the CENTER OF MASS  = ( 0.000000,  0.000000  1.000703)

-------------
DIPOLE MOMENT
-------------
                                X             Y             Z
Electronic contribution:      0.00000      -0.00000       0.28829
Nuclear contribution   :      0.00000       0.00000       0.00588
                        -----------------------------------------
Total Dipole Moment    :      0.00000      -0.00000       0.29417
                        -----------------------------------------
Magnitude (a.u.)       :      0.29417
Magnitude (Debye)      :      0.74773



--------------------
Rotational spectrum 
--------------------
 
Rotational constants in cm-1:     0.000000     2.858807     2.858807 
Rotational constants in MHz :     0.000000 85704.878831 85704.878831 

 Dipole components along the rotational axes: 
x,y,z [a.u.] :     0.294173    -0.000000     0.000000 
x,y,z [Debye]:     0.747727    -0.000000     0.000000 

 

         *************************************************************
                                TRAJECTORY STEP   5
                  R  :   1.02710000
         *************************************************************
---------------------------------
CARTESIAN COORDINATES (ANGSTROEM)
---------------------------------
  C      0.000000    0.000000    0.000000
  O      0.000000    0.000000    1.027100

----------------------------
CARTESIAN COORDINATES (A.U.)
----------------------------
  NO LB      ZA    FRAG     MASS         X           Y           Z
   0 C     6.0000    0    12.011    0.000000    0.000000    0.000000
   1 O     8.0000    0    15.999    0.000000    0.000000    1.940938

--------------------------------
INTERNAL COORDINATES (ANGSTROEM)
--------------------------------
 C      0   0   0     0.000000000000     0.00000000     0.00000000
 O      1   0   0     1.027100000000     0.00000000     0.00000000

---------------------------
INTERNAL COORDINATES (A.U.)
---------------------------
 C      0   0   0     0.000000000000     0.00000000     0.00000000
 O      1   0   0     1.940937712151     0.00000000     0.00000000


Diagonalization of the overlap matrix:
Smallest eigenvalue                        ... 1.201e-02
Time for diagonalization                   ...    0.001 sec
Threshold for overlap eigenvalues          ... 1.000e-08
Number of eigenvalues below threshold      ... 0
Time for construction of square roots      ...    0.000 sec
Total time needed                          ...    0.001 sec

-------------------
DFT GRID GENERATION
-------------------

General Integration Accuracy     IntAcc      ...  4.670
Radial Grid Type                 RadialGrid  ... Gauss-Chebyshev
Angular Grid (max. acc.)         AngularGrid ... Lebedev-302
Angular grid pruning method      GridPruning ... 3 (G Style)
Weight generation scheme         WeightScheme... Becke
Basis function cutoff            BFCut       ...    1.0000e-10
Integration weight cutoff        WCut        ...    1.0000e-14
Grids for H and He will be reduced by one unit

# of grid points (after initial pruning)     ...  12424 (   0.0 sec)
# of grid points (after weights+screening)   ...  12392 (   0.0 sec)
nearest neighbour list constructed           ...    0.0 sec
Grid point re-assignment to atoms done       ...    0.0 sec
Grid point division into batches done        ...    0.1 sec
Reduced shell lists constructed in    0.1 sec

Total number of grid points                  ...    12392
Total number of batches                      ...      195
Average number of points per batch           ...       63
Average number of grid points per atom       ...     6196
Average number of shells per batch           ...     9.30 (77.47%)
Average number of basis functions per batch  ...    22.32 (79.70%)
Average number of large shells per batch     ...     8.66 (93.19%)
Average number of large basis fcns per batch ...    21.07 (94.42%)
Maximum spatial batch extension              ...  22.15, 22.15, 19.23 au
Average spatial batch extension              ...   4.27,  4.32,  3.69 au

Time for grid setup =    0.083 sec

--------------
SCF ITERATIONS
--------------
ITER       Energy         Delta-E        Max-DP      RMS-DP      [F,P]   Gradient Norm
               ***  Starting incremental Fock matrix formation  ***
                             ****Resetting KDIIS****
                             ****Turning on KDIIS(Cayley)****
  0   -113.2339859129   0.000000000000 0.00451916  0.00060163  0.0282096   0.038425730
  1   -113.2359547957  -0.001968882824 0.00775224  0.00098248  0.0242065   0.034121001
  2   -113.2385525435  -0.002597747778 0.01183268  0.00162611  0.0200445   0.027796599
  3   -113.2417435275  -0.003190983966 0.01769407  0.00258735  0.0119698   0.016893769
  4   -113.2436495825  -0.001906055021 0.00028119  0.00003581  0.0001539   0.000173330
                          ***Energy convergence achieved***
  5   -113.2436497749  -0.000000192450 0.00002244  0.00000226  0.0000158   0.000016869
Warning: badly conditioned DIIS matrix, 1 vectors out of 5 destroyed
                           ***RMSP convergence achieved***
                           ***MAXP convergence achieved***
                    *** KDIIS BlockDiag ( 1.392 sec) ***

               *****************************************************
               *                     SUCCESS                       *
               *           SCF CONVERGED AFTER   6 CYCLES          *
               *****************************************************

Setting up the final grid:

General Integration Accuracy     IntAcc      ...  5.010
Radial Grid Type                 RadialGrid  ... Gauss-Chebyshev
Angular Grid (max. acc.)         AngularGrid ... Lebedev-434
Angular grid pruning method      GridPruning ... 3 (G Style)
Weight generation scheme         WeightScheme... Becke
Basis function cutoff            BFCut       ...    1.0000e-10
Integration weight cutoff        WCut        ...    1.0000e-14
Grids for H and He will be reduced by one unit

# of grid points (after initial pruning)     ...  21540 (   0.0 sec)
# of grid points (after weights+screening)   ...  21424 (   0.0 sec)
nearest neighbour list constructed           ...    0.0 sec
Grid point re-assignment to atoms done       ...    0.0 sec
Grid point division into batches done        ...    0.2 sec
Reduced shell lists constructed in    0.2 sec

Total number of grid points                  ...    21424
Total number of batches                      ...      336
Average number of points per batch           ...       63
Average number of grid points per atom       ...    10712
Average number of shells per batch           ...     9.16 (76.34%)
Average number of basis functions per batch  ...    22.00 (78.56%)
Average number of large shells per batch     ...     8.48 (92.55%)
Average number of large basis fcns per batch ...    20.66 (93.93%)
Maximum spatial batch extension              ...  19.91, 19.91, 17.91 au
Average spatial batch extension              ...   3.58,  3.59,  3.09 au

Final grid set up in    0.2 sec
Final integration                            ... done (   0.1 sec)
Change in XC energy                          ...    -0.000279214
Integrated number of electrons               ...    13.999996485
Previous integrated no of electrons          ...    13.999996492
Total Energy       :         -113.24392899 Eh           -3081.52397 eV
  Last Energy change         ...   -1.5572e-09  Tolerance :   1.0000e-06
  Last MAX-Density change    ...    8.3965e-06  Tolerance :   1.0000e-05
             **** THE GBW FILE WAS UPDATED (CO.gbw) ****
             **** DENSITY FILE WAS UPDATED (CO.scfp) ****
             **** ENERGY FILE WAS UPDATED (CO.en.tmp) ****
             **** THE GBW FILE WAS UPDATED (CO.gbw) ****
             **** DENSITY FILE WAS UPDATED (CO.scfp) ****
Total SCF time: 0 days 0 hours 0 min 1 sec 

-------------------------   --------------------
FINAL SINGLE POINT ENERGY      -113.243928990795
-------------------------   --------------------

Storing actual gbw-file in CO.005.gbw ... done

                            ***************************************
                            *     ORCA property calculations      *
                            ***************************************

                                    ---------------------
                                    Active property flags
                                    ---------------------
   (+) Dipole Moment


------------------------------------------------------------------------------
                       ORCA ELECTRIC PROPERTIES CALCULATION
------------------------------------------------------------------------------

Dipole Moment Calculation                       ... on
Quadrupole Moment Calculation                   ... off
Polarizability Calculation                      ... off
GBWName                                         ... CO.gbw
Electron density file                           ... CO.scfp
The origin for moment calculation is the CENTER OF MASS  = ( 0.000000,  0.000000  1.108642)

-------------
DIPOLE MOMENT
-------------
                                X             Y             Z
Electronic contribution:      0.00000      -0.00000       0.15594
Nuclear contribution   :      0.00000       0.00000       0.00651
                        -----------------------------------------
Total Dipole Moment    :      0.00000      -0.00000       0.16246
                        -----------------------------------------
Magnitude (a.u.)       :      0.16246
Magnitude (Debye)      :      0.41293



--------------------
Rotational spectrum 
--------------------
 
Rotational constants in cm-1:     0.000000     2.329231     2.329231 
Rotational constants in MHz :     0.000000 69828.586179 69828.586179 

 Dipole components along the rotational axes: 
x,y,z [a.u.] :     0.162457    -0.000000     0.000000 
x,y,z [Debye]:     0.412932    -0.000000     0.000000 

 

         *************************************************************
                                TRAJECTORY STEP   6
                  R  :   1.12710000
         *************************************************************
---------------------------------
CARTESIAN COORDINATES (ANGSTROEM)
---------------------------------
  C      0.000000    0.000000    0.000000
  O      0.000000    0.000000    1.127100

----------------------------
CARTESIAN COORDINATES (A.U.)
----------------------------
  NO LB      ZA    FRAG     MASS         X           Y           Z
   0 C     6.0000    0    12.011    0.000000    0.000000    0.000000
   1 O     8.0000    0    15.999    0.000000    0.000000    2.129910

--------------------------------
INTERNAL COORDINATES (ANGSTROEM)
--------------------------------
 C      0   0   0     0.000000000000     0.00000000     0.00000000
 O      1   0   0     1.127100000000     0.00000000     0.00000000

---------------------------
INTERNAL COORDINATES (A.U.)
---------------------------
 C      0   0   0     0.000000000000     0.00000000     0.00000000
 O      1   0   0     2.129910325543     0.00000000     0.00000000


Diagonalization of the overlap matrix:
Smallest eigenvalue                        ... 1.508e-02
Time for diagonalization                   ...    0.001 sec
Threshold for overlap eigenvalues          ... 1.000e-08
Number of eigenvalues below threshold      ... 0
Time for construction of square roots      ...    0.000 sec
Total time needed                          ...    0.001 sec

-------------------
DFT GRID GENERATION
-------------------

General Integration Accuracy     IntAcc      ...  4.670
Radial Grid Type                 RadialGrid  ... Gauss-Chebyshev
Angular Grid (max. acc.)         AngularGrid ... Lebedev-302
Angular grid pruning method      GridPruning ... 3 (G Style)
Weight generation scheme         WeightScheme... Becke
Basis function cutoff            BFCut       ...    1.0000e-10
Integration weight cutoff        WCut        ...    1.0000e-14
Grids for H and He will be reduced by one unit

# of grid points (after initial pruning)     ...  12424 (   0.0 sec)
# of grid points (after weights+screening)   ...  12393 (   0.0 sec)
nearest neighbour list constructed           ...    0.0 sec
Grid point re-assignment to atoms done       ...    0.0 sec
Grid point division into batches done        ...    0.1 sec
Reduced shell lists constructed in    0.1 sec

Total number of grid points                  ...    12393
Total number of batches                      ...      195
Average number of points per batch           ...       63
Average number of grid points per atom       ...     6196
Average number of shells per batch           ...     9.31 (77.55%)
Average number of basis functions per batch  ...    22.35 (79.81%)
Average number of large shells per batch     ...     8.58 (92.21%)
Average number of large basis fcns per batch ...    20.99 (93.93%)
Maximum spatial batch extension              ...  22.15, 22.15, 19.04 au
Average spatial batch extension              ...   4.31,  4.29,  3.69 au

Time for grid setup =    0.083 sec

--------------
SCF ITERATIONS
--------------
ITER       Energy         Delta-E        Max-DP      RMS-DP      [F,P]   Gradient Norm
               ***  Starting incremental Fock matrix formation  ***
                             ****Resetting KDIIS****
                             ****Turning on KDIIS(Cayley)****
  0   -113.2716963157   0.000000000000 0.00447539  0.00052076  0.0265177   0.032626310
  1   -113.2731835512  -0.001487235510 0.00602174  0.00089003  0.0241159   0.028996129
  2   -113.2751920419  -0.002008490677 0.01119301  0.00152596  0.0191021   0.023768569
  3   -113.2777130652  -0.002521023302 0.01748719  0.00249363  0.0117350   0.014549589
  4   -113.2792593961  -0.001546330945 0.00024803  0.00003047  0.0000985   0.000141162
                          ***Energy convergence achieved***
  5   -113.2792595427  -0.000000146612 0.00003427  0.00000225  0.0000114   0.000012473
Warning: badly conditioned DIIS matrix, 1 vectors out of 5 destroyed
                           ***RMSP convergence achieved***
                           ***MAXP convergence achieved***
                    *** KDIIS BlockDiag ( 1.384 sec) ***

               *****************************************************
               *                     SUCCESS                       *
               *           SCF CONVERGED AFTER   6 CYCLES          *
               *****************************************************

Setting up the final grid:

General Integration Accuracy     IntAcc      ...  5.010
Radial Grid Type                 RadialGrid  ... Gauss-Chebyshev
Angular Grid (max. acc.)         AngularGrid ... Lebedev-434
Angular grid pruning method      GridPruning ... 3 (G Style)
Weight generation scheme         WeightScheme... Becke
Basis function cutoff            BFCut       ...    1.0000e-10
Integration weight cutoff        WCut        ...    1.0000e-14
Grids for H and He will be reduced by one unit

# of grid points (after initial pruning)     ...  21540 (   0.0 sec)
# of grid points (after weights+screening)   ...  21441 (   0.0 sec)
nearest neighbour list constructed           ...    0.0 sec
Grid point re-assignment to atoms done       ...    0.0 sec
Grid point division into batches done        ...    0.2 sec
Reduced shell lists constructed in    0.2 sec

Total number of grid points                  ...    21441
Total number of batches                      ...      336
Average number of points per batch           ...       63
Average number of grid points per atom       ...    10720
Average number of shells per batch           ...     9.13 (76.11%)
Average number of basis functions per batch  ...    21.99 (78.53%)
Average number of large shells per batch     ...     8.42 (92.24%)
Average number of large basis fcns per batch ...    20.57 (93.54%)
Maximum spatial batch extension              ...  19.91, 19.91, 17.05 au
Average spatial batch extension              ...   3.59,  3.57,  3.11 au

Final grid set up in    0.2 sec
Final integration                            ... done (   0.1 sec)
Change in XC energy                          ...    -0.000272463
Integrated number of electrons               ...    14.000000515
Previous integrated no of electrons          ...    13.999994301
Total Energy       :         -113.27953201 Eh           -3082.49278 eV
  Last Energy change         ...   -1.1315e-09  Tolerance :   1.0000e-06
  Last MAX-Density change    ...    6.9709e-06  Tolerance :   1.0000e-05
             **** THE GBW FILE WAS UPDATED (CO.gbw) ****
             **** DENSITY FILE WAS UPDATED (CO.scfp) ****
             **** ENERGY FILE WAS UPDATED (CO.en.tmp) ****
             **** THE GBW FILE WAS UPDATED (CO.gbw) ****
             **** DENSITY FILE WAS UPDATED (CO.scfp) ****
Total SCF time: 0 days 0 hours 0 min 1 sec 

-------------------------   --------------------
FINAL SINGLE POINT ENERGY      -113.279532006539
-------------------------   --------------------

Storing actual gbw-file in CO.006.gbw ... done

                            ***************************************
                            *     ORCA property calculations      *
                            ***************************************

                                    ---------------------
                                    Active property flags
                                    ---------------------
   (+) Dipole Moment


------------------------------------------------------------------------------
                       ORCA ELECTRIC PROPERTIES CALCULATION
------------------------------------------------------------------------------

Dipole Moment Calculation                       ... on
Quadrupole Moment Calculation                   ... off
Polarizability Calculation                      ... off
GBWName                                         ... CO.gbw
Electron density file                           ... CO.scfp
The origin for moment calculation is the CENTER OF MASS  = ( 0.000000,  0.000000  1.216581)

-------------
DIPOLE MOMENT
-------------
                                X             Y             Z
Electronic contribution:     -0.00000      -0.00000       0.01630
Nuclear contribution   :      0.00000       0.00000       0.00715
                        -----------------------------------------
Total Dipole Moment    :     -0.00000      -0.00000       0.02345
                        -----------------------------------------
Magnitude (a.u.)       :      0.02345
Magnitude (Debye)      :      0.05960



--------------------
Rotational spectrum 
--------------------
 
Rotational constants in cm-1:     0.000000     1.934252     1.934252 
Rotational constants in MHz :     0.000000 57987.422866 57987.422866 

 Dipole components along the rotational axes: 
x,y,z [a.u.] :     0.023447    -0.000000    -0.000000 
x,y,z [Debye]:     0.059598    -0.000000    -0.000000 

 

         *************************************************************
                                TRAJECTORY STEP   7
                  R  :   1.22710000
         *************************************************************
---------------------------------
CARTESIAN COORDINATES (ANGSTROEM)
---------------------------------
  C      0.000000    0.000000    0.000000
  O      0.000000    0.000000    1.227100

----------------------------
CARTESIAN COORDINATES (A.U.)
----------------------------
  NO LB      ZA    FRAG     MASS         X           Y           Z
   0 C     6.0000    0    12.011    0.000000    0.000000    0.000000
   1 O     8.0000    0    15.999    0.000000    0.000000    2.318883

--------------------------------
INTERNAL COORDINATES (ANGSTROEM)
--------------------------------
 C      0   0   0     0.000000000000     0.00000000     0.00000000
 O      1   0   0     1.227100000000     0.00000000     0.00000000

---------------------------
INTERNAL COORDINATES (A.U.)
---------------------------
 C      0   0   0     0.000000000000     0.00000000     0.00000000
 O      1   0   0     2.318882938935     0.00000000     0.00000000


Diagonalization of the overlap matrix:
Smallest eigenvalue                        ... 1.902e-02
Time for diagonalization                   ...    0.001 sec
Threshold for overlap eigenvalues          ... 1.000e-08
Number of eigenvalues below threshold      ... 0
Time for construction of square roots      ...    0.000 sec
Total time needed                          ...    0.001 sec

-------------------
DFT GRID GENERATION
-------------------

General Integration Accuracy     IntAcc      ...  4.670
Radial Grid Type                 RadialGrid  ... Gauss-Chebyshev
Angular Grid (max. acc.)         AngularGrid ... Lebedev-302
Angular grid pruning method      GridPruning ... 3 (G Style)
Weight generation scheme         WeightScheme... Becke
Basis function cutoff            BFCut       ...    1.0000e-10
Integration weight cutoff        WCut        ...    1.0000e-14
Grids for H and He will be reduced by one unit

# of grid points (after initial pruning)     ...  12424 (   0.0 sec)
# of grid points (after weights+screening)   ...  12394 (   0.0 sec)
nearest neighbour list constructed           ...    0.0 sec
Grid point re-assignment to atoms done       ...    0.0 sec
Grid point division into batches done        ...    0.1 sec
Reduced shell lists constructed in    0.1 sec

Total number of grid points                  ...    12394
Total number of batches                      ...      194
Average number of points per batch           ...       63
Average number of grid points per atom       ...     6197
Average number of shells per batch           ...     9.25 (77.09%)
Average number of basis functions per batch  ...    22.37 (79.89%)
Average number of large shells per batch     ...     8.52 (92.13%)
Average number of large basis fcns per batch ...    20.85 (93.21%)
Maximum spatial batch extension              ...  22.15, 26.79, 18.86 au
Average spatial batch extension              ...   4.33,  4.43,  3.64 au

Time for grid setup =    0.083 sec

--------------
SCF ITERATIONS
--------------
ITER       Energy         Delta-E        Max-DP      RMS-DP      [F,P]   Gradient Norm
               ***  Starting incremental Fock matrix formation  ***
                             ****Resetting KDIIS****
                             ****Turning on KDIIS(Cayley)****
  0   -113.2572306512   0.000000000000 0.00418166  0.00048072  0.0253851   0.027977185
  1   -113.2583892964  -0.001158645151 0.00649439  0.00084399  0.0236058   0.024870575
  2   -113.2599847941  -0.001595497715 0.01052830  0.00148291  0.0182125   0.020494314
  3   -113.2620369118  -0.002052117733 0.01787316  0.00242493  0.0112262   0.012628198
  4   -113.2633217179  -0.001284806091 0.00027212  0.00003145  0.0001463   0.000154019
                          ***Energy convergence achieved***
  5   -113.2633219321  -0.000000214170 0.00002871  0.00000256  0.0000156   0.000015328

            ***Energy convergence in two consecutive cycles with***
                    ***'reasonable' density convergence***
                       *** signaling convergence ***

                    *** KDIIS BlockDiag ( 1.375 sec) ***

               *****************************************************
               *                     SUCCESS                       *
               *           SCF CONVERGED AFTER   6 CYCLES          *
               *****************************************************

Setting up the final grid:

General Integration Accuracy     IntAcc      ...  5.010
Radial Grid Type                 RadialGrid  ... Gauss-Chebyshev
Angular Grid (max. acc.)         AngularGrid ... Lebedev-434
Angular grid pruning method      GridPruning ... 3 (G Style)
Weight generation scheme         WeightScheme... Becke
Basis function cutoff            BFCut       ...    1.0000e-10
Integration weight cutoff        WCut        ...    1.0000e-14
Grids for H and He will be reduced by one unit

# of grid points (after initial pruning)     ...  21540 (   0.0 sec)
# of grid points (after weights+screening)   ...  21442 (   0.0 sec)
nearest neighbour list constructed           ...    0.0 sec
Grid point re-assignment to atoms done       ...    0.0 sec
Grid point division into batches done        ...    0.2 sec
Reduced shell lists constructed in    0.2 sec

Total number of grid points                  ...    21442
Total number of batches                      ...      336
Average number of points per batch           ...       63
Average number of grid points per atom       ...    10721
Average number of shells per batch           ...     9.09 (75.74%)
Average number of basis functions per batch  ...    21.90 (78.22%)
Average number of large shells per batch     ...     8.36 (91.97%)
Average number of large basis fcns per batch ...    20.51 (93.63%)
Maximum spatial batch extension              ...  19.91, 19.91, 17.05 au
Average spatial batch extension              ...   3.57,  3.60,  3.12 au

Final grid set up in    0.2 sec
Final integration                            ... done (   0.1 sec)
Change in XC energy                          ...    -0.000256236
Integrated number of electrons               ...    14.000002074
Previous integrated no of electrons          ...    14.000004362
Total Energy       :         -113.26357817 Eh           -3082.05865 eV
  Last Energy change         ...   -2.3983e-09  Tolerance :   1.0000e-06
[...]
                          ***Energy convergence achieved***
  1   -112.7027952286  -0.000000062313 0.00023719  0.00001426  0.0002066   0.000117448
  2   -112.7027954466  -0.000000217979 0.00094455  0.00005674  0.0001624   0.000097215
  3   -112.7027960524  -0.000000605859 0.00172247  0.00010143  0.0000944   0.000056499
                           ***RMSP convergence achieved***
                           ***MAXP convergence achieved***
                    *** KDIIS BlockDiag ( 0.965 sec) ***

               *****************************************************
               *                     SUCCESS                       *
               *           SCF CONVERGED AFTER   4 CYCLES          *
               *****************************************************

Setting up the final grid:

General Integration Accuracy     IntAcc      ...  5.010
Radial Grid Type                 RadialGrid  ... Gauss-Chebyshev
Angular Grid (max. acc.)         AngularGrid ... Lebedev-434
Angular grid pruning method      GridPruning ... 3 (G Style)
Weight generation scheme         WeightScheme... Becke
Basis function cutoff            BFCut       ...    1.0000e-10
Integration weight cutoff        WCut        ...    1.0000e-14
Grids for H and He will be reduced by one unit

# of grid points (after initial pruning)     ...  21540 (   0.0 sec)
# of grid points (after weights+screening)   ...  21530 (   0.0 sec)
nearest neighbour list constructed           ...    0.0 sec
Grid point re-assignment to atoms done       ...    0.0 sec
Grid point division into batches done        ...    0.2 sec
Reduced shell lists constructed in    0.2 sec

Total number of grid points                  ...    21530
Total number of batches                      ...      337
Average number of points per batch           ...       63
Average number of grid points per atom       ...    10765
Average number of shells per batch           ...     6.20 (51.68%)
Average number of basis functions per batch  ...    14.43 (51.54%)
Average number of large shells per batch     ...     4.90 (79.01%)
Average number of large basis fcns per batch ...    11.69 (81.02%)
Maximum spatial batch extension              ...  19.91, 19.91, 18.52 au
Average spatial batch extension              ...   3.81,  3.77,  3.67 au

Final grid set up in    0.2 sec
Final integration                            ... done (   0.1 sec)
Change in XC energy                          ...    -0.000029743
Integrated number of electrons               ...    14.000003080
Previous integrated no of electrons          ...    13.999986976
Total Energy       :         -112.70282621 Eh           -3066.79981 eV
  Last Energy change         ...   -4.1297e-07  Tolerance :   1.0000e-06
  Last MAX-Density change    ...    9.3781e-06  Tolerance :   1.0000e-05
             **** THE GBW FILE WAS UPDATED (CO.gbw) ****
             **** DENSITY FILE WAS UPDATED (CO.scfp) ****
             **** ENERGY FILE WAS UPDATED (CO.en.tmp) ****
             **** THE GBW FILE WAS UPDATED (CO.gbw) ****
             **** DENSITY FILE WAS UPDATED (CO.scfp) ****
Total SCF time: 0 days 0 hours 0 min 1 sec 

-------------------------   --------------------
FINAL SINGLE POINT ENERGY      -112.702826208838
-------------------------   --------------------

Storing actual gbw-file in CO.045.gbw ... done

                            ***************************************
                            *     ORCA property calculations      *
                            ***************************************

                                    ---------------------
                                    Active property flags
                                    ---------------------
   (+) Dipole Moment


------------------------------------------------------------------------------
                       ORCA ELECTRIC PROPERTIES CALCULATION
------------------------------------------------------------------------------

Dipole Moment Calculation                       ... on
Quadrupole Moment Calculation                   ... off
Polarizability Calculation                      ... off
GBWName                                         ... CO.gbw
Electron density file                           ... CO.scfp
The origin for moment calculation is the CENTER OF MASS  = ( 0.000000,  0.000000  5.426204)

-------------
DIPOLE MOMENT
-------------
                                X             Y             Z
Electronic contribution:     -0.00000      -0.00000      -0.03845
Nuclear contribution   :      0.00000       0.00000       0.03188
                        -----------------------------------------
Total Dipole Moment    :     -0.00000      -0.00000      -0.00656
                        -----------------------------------------
Magnitude (a.u.)       :      0.00656
Magnitude (Debye)      :      0.01669



--------------------
Rotational spectrum 
--------------------
 
Rotational constants in cm-1:     0.000000     0.097231     0.097231 
Rotational constants in MHz :     0.000000  2914.899989  2914.899989 

 Dipole components along the rotational axes: 
x,y,z [a.u.] :    -0.006565    -0.000000    -0.000000 
x,y,z [Debye]:    -0.016686    -0.000000    -0.000000 

 

         *************************************************************
                                TRAJECTORY STEP  46
                  R  :   5.12710000
         *************************************************************
---------------------------------
CARTESIAN COORDINATES (ANGSTROEM)
---------------------------------
  C      0.000000    0.000000    0.000000
  O      0.000000    0.000000    5.127100

----------------------------
CARTESIAN COORDINATES (A.U.)
----------------------------
  NO LB      ZA    FRAG     MASS         X           Y           Z
   0 C     6.0000    0    12.011    0.000000    0.000000    0.000000
   1 O     8.0000    0    15.999    0.000000    0.000000    9.688815

--------------------------------
INTERNAL COORDINATES (ANGSTROEM)
--------------------------------
 C      0   0   0     0.000000000000     0.00000000     0.00000000
 O      1   0   0     5.127100000000     0.00000000     0.00000000

---------------------------
INTERNAL COORDINATES (A.U.)
---------------------------
 C      0   0   0     0.000000000000     0.00000000     0.00000000
 O      1   0   0     9.688814861228     0.00000000     0.00000000


Diagonalization of the overlap matrix:
Smallest eigenvalue                        ... 1.869e-01
Time for diagonalization                   ...    0.001 sec
Threshold for overlap eigenvalues          ... 1.000e-08
Number of eigenvalues below threshold      ... 0
Time for construction of square roots      ...    0.000 sec
Total time needed                          ...    0.001 sec

-------------------
DFT GRID GENERATION
-------------------

General Integration Accuracy     IntAcc      ...  4.670
Radial Grid Type                 RadialGrid  ... Gauss-Chebyshev
Angular Grid (max. acc.)         AngularGrid ... Lebedev-302
Angular grid pruning method      GridPruning ... 3 (G Style)
Weight generation scheme         WeightScheme... Becke
Basis function cutoff            BFCut       ...    1.0000e-10
Integration weight cutoff        WCut        ...    1.0000e-14
Grids for H and He will be reduced by one unit

# of grid points (after initial pruning)     ...  12424 (   0.0 sec)
# of grid points (after weights+screening)   ...  12415 (   0.0 sec)
nearest neighbour list constructed           ...    0.0 sec
Grid point re-assignment to atoms done       ...    0.0 sec
Grid point division into batches done        ...    0.1 sec
Reduced shell lists constructed in    0.1 sec

Total number of grid points                  ...    12415
Total number of batches                      ...      195
Average number of points per batch           ...       63
Average number of grid points per atom       ...     6208
Average number of shells per batch           ...     6.35 (52.89%)
Average number of basis functions per batch  ...    14.94 (53.35%)
Average number of large shells per batch     ...     5.15 (81.11%)
Average number of large basis fcns per batch ...    12.29 (82.27%)
Maximum spatial batch extension              ...  26.79, 20.64, 17.30 au
Average spatial batch extension              ...   4.50,  4.47,  4.23 au

Time for grid setup =    0.080 sec

--------------
SCF ITERATIONS
--------------
ITER       Energy         Delta-E        Max-DP      RMS-DP      [F,P]   Gradient Norm
               ***  Starting incremental Fock matrix formation  ***
                             ****Resetting KDIIS****
                             ****Turning on KDIIS(Cayley)****
  0   -112.7027574926   0.000000000000 0.00004797  0.00000257  0.0001828   0.000101673
                          ***Energy convergence achieved***
  1   -112.7027575311  -0.000000038495 0.00018086  0.00001076  0.0001662   0.000093635
  2   -112.7027576602  -0.000000129062 0.00068800  0.00004164  0.0001309   0.000077570
  3   -112.7027580081  -0.000000347979 0.00128033  0.00007569  0.0000758   0.000044737
                           ***RMSP convergence achieved***
                           ***MAXP convergence achieved***
                    *** KDIIS BlockDiag ( 0.966 sec) ***

               *****************************************************
               *                     SUCCESS                       *
               *           SCF CONVERGED AFTER   4 CYCLES          *
               *****************************************************

Setting up the final grid:

General Integration Accuracy     IntAcc      ...  5.010
Radial Grid Type                 RadialGrid  ... Gauss-Chebyshev
Angular Grid (max. acc.)         AngularGrid ... Lebedev-434
Angular grid pruning method      GridPruning ... 3 (G Style)
Weight generation scheme         WeightScheme... Becke
Basis function cutoff            BFCut       ...    1.0000e-10
Integration weight cutoff        WCut        ...    1.0000e-14
Grids for H and He will be reduced by one unit

# of grid points (after initial pruning)     ...  21540 (   0.0 sec)
# of grid points (after weights+screening)   ...  21530 (   0.0 sec)
nearest neighbour list constructed           ...    0.0 sec
Grid point re-assignment to atoms done       ...    0.0 sec
Grid point division into batches done        ...    0.2 sec
Reduced shell lists constructed in    0.2 sec

Total number of grid points                  ...    21530
Total number of batches                      ...      338
Average number of points per batch           ...       63
Average number of grid points per atom       ...    10765
Average number of shells per batch           ...     6.10 (50.84%)
Average number of basis functions per batch  ...    14.24 (50.84%)
Average number of large shells per batch     ...     4.88 (79.98%)
Average number of large basis fcns per batch ...    11.65 (81.85%)
Maximum spatial batch extension              ...  19.91, 19.91, 18.52 au
Average spatial batch extension              ...   3.79,  3.75,  3.65 au

Final grid set up in    0.2 sec
Final integration                            ... done (   0.1 sec)
Change in XC energy                          ...    -0.000033279
Integrated number of electrons               ...    14.000006938
Previous integrated no of electrons          ...    13.999975590
Total Energy       :         -112.70279153 Eh           -3066.79887 eV
  Last Energy change         ...   -2.4021e-07  Tolerance :   1.0000e-06
  Last MAX-Density change    ...    5.1280e-06  Tolerance :   1.0000e-05
             **** THE GBW FILE WAS UPDATED (CO.gbw) ****
             **** DENSITY FILE WAS UPDATED (CO.scfp) ****
             **** ENERGY FILE WAS UPDATED (CO.en.tmp) ****
             **** THE GBW FILE WAS UPDATED (CO.gbw) ****
             **** DENSITY FILE WAS UPDATED (CO.scfp) ****
Total SCF time: 0 days 0 hours 0 min 1 sec 

-------------------------   --------------------
FINAL SINGLE POINT ENERGY      -112.702791526924
-------------------------   --------------------

Storing actual gbw-file in CO.046.gbw ... done

                            ***************************************
                            *     ORCA property calculations      *
                            ***************************************

                                    ---------------------
                                    Active property flags
                                    ---------------------
   (+) Dipole Moment


------------------------------------------------------------------------------
                       ORCA ELECTRIC PROPERTIES CALCULATION
------------------------------------------------------------------------------

Dipole Moment Calculation                       ... on
Quadrupole Moment Calculation                   ... off
Polarizability Calculation                      ... off
GBWName                                         ... CO.gbw
Electron density file                           ... CO.scfp
The origin for moment calculation is the CENTER OF MASS  = ( 0.000000,  0.000000  5.534143)

-------------
DIPOLE MOMENT
-------------
                                X             Y             Z
Electronic contribution:      0.00000       0.00000      -0.03779
Nuclear contribution   :      0.00000       0.00000       0.03252
                        -----------------------------------------
Total Dipole Moment    :      0.00000       0.00000      -0.00527
                        -----------------------------------------
Magnitude (a.u.)       :      0.00527
Magnitude (Debye)      :      0.01340



--------------------
Rotational spectrum 
--------------------
 
Rotational constants in cm-1:     0.000000     0.093475     0.093475 
Rotational constants in MHz :     0.000000  2802.303255  2802.303255 

 Dipole components along the rotational axes: 
x,y,z [a.u.] :    -0.005272     0.000000     0.000000 
x,y,z [Debye]:    -0.013399     0.000000     0.000000 

 
                              **** TRAJECTORY DONE ***

                         SUMMARY OF THE CALCULATED SURFACE

------------------
TRAJECTORY RESULTS
------------------

Column   1: R

The Calculated Surface using the 'Actual Energy'
   0.62710000 -110.81857918
   0.72710000 -112.12346531
   0.82710000 -112.78921394
   0.92710000 -113.10936511
   1.02710000 -113.24392899
   1.12710000 -113.27953201
   1.22710000 -113.26357817
   1.32710000 -113.22231177
   1.42710000 -113.17022079
   1.52710000 -113.11508635
   1.62710000 -113.06100444
   1.72710000 -113.00998755
   1.82710000 -112.96276551
   1.92710000 -112.91967132
   2.02710000 -112.88067582
   2.12710000 -112.84582116
   2.22710000 -112.81555251
   2.32710000 -112.79105367
   2.42710000 -112.77304773
   2.52710000 -112.75992584
   2.62710000 -112.74998669
   2.72710000 -112.74213992
   2.82710000 -112.73567553
   2.92710000 -112.73023372
   3.02710000 -112.72561363
   3.12710000 -112.72165793
   3.22710000 -112.71825701
   3.32710000 -112.71535759
   3.42710000 -112.71289754
   3.52710000 -112.71082323
   3.62710000 -112.70909466
   3.72710000 -112.70767925
   3.82710000 -112.70653012
   3.92710000 -112.70561085
   4.02710000 -112.70488815
   4.12710000 -112.70432970
   4.22710000 -112.70391242
   4.32710000 -112.70360318
   4.42710000 -112.70337238
   4.52710000 -112.70320418
   4.62710000 -112.70308345
   4.72710000 -112.70299422
   4.82710000 -112.70292465
   4.92710000 -112.70286936
   5.02710000 -112.70282621
   5.12710000 -112.70279153

                        *******************************
                        *   FIT OF THE ACT-ENERGY PES *
                        *******************************
-------------------------------
POTENTIAL ENERGY SURFACE =   0
-------------------------------

Minimum found after 19 iterations
Equilibrium distance and its energy from the interpolated PES:
  Re      =   1.13633 Angstroem  (  2.14736 Bohr)
  E(Re)   =  -113.279737 Eh 
  dE/dR   = -2.326e-08 (-8.223e-02 CHEB)
  d2E/dR2 =    1.324806 (   3.565042 CHEB) (   2.143858 NUM)
  d3E/dR3 =   -3.959013 ( -14.215710 CHEB)

Spectroscopic constants:
  we =    2259.5 cm**-1 (based on SPLINE)
  we =    3706.5 cm**-1 (based on CHEB)
  we =    2874.3 cm**-1 (based on NUM)

Performing Morse fit ...
Morse-Fit Results:
 Te(adiabatic)   =   -6235.1 cm**-1         = -0.773 eV
 d2E/dR**2 (Morse)=      1.618437692 
 d3E/dR**3 (Morse)=     -5.630833967 
 d4E/dR**4 (Morse)=     15.237193749 
 E0               =   -113.308146345 Eh  RMS=7.98e-06
 Re               =   1.13188 Angstroem      =  2.13895 Bohr RMS=1.09e-05)
 De(Morse)        =  16.37215 eV             = 132050.3 cm**-1 RMS=1.19e-05
 D0(Morse)        =  16.21733 eV
 beta             =   1.15973 au          RMS=1.74e-05
 we               =   2497.4 cm**-1
 wexe             =     11.8 cm**-1
 Displacement   =   -0.0044 Angstroem      = -0.00840 Bohr

The Calculated Surface using the SCF energy
   0.62710000 -110.81857918
   0.72710000 -112.12346531
   0.82710000 -112.78921394
   0.92710000 -113.10936511
   1.02710000 -113.24392899
   1.12710000 -113.27953201
   1.22710000 -113.26357817
   1.32710000 -113.22231177
   1.42710000 -113.17022079
   1.52710000 -113.11508635
   1.62710000 -113.06100444
   1.72710000 -113.00998755
   1.82710000 -112.96276551
   1.92710000 -112.91967132
   2.02710000 -112.88067582
   2.12710000 -112.84582116
   2.22710000 -112.81555251
   2.32710000 -112.79105367
   2.42710000 -112.77304773
   2.52710000 -112.75992584
   2.62710000 -112.74998669
   2.72710000 -112.74213992
   2.82710000 -112.73567553
   2.92710000 -112.73023372
   3.02710000 -112.72561363
   3.12710000 -112.72165793
   3.22710000 -112.71825701
   3.32710000 -112.71535759
   3.42710000 -112.71289754
   3.52710000 -112.71082323
   3.62710000 -112.70909466
   3.72710000 -112.70767925
   3.82710000 -112.70653012
   3.92710000 -112.70561085
   4.02710000 -112.70488815
   4.12710000 -112.70432970
   4.22710000 -112.70391242
   4.32710000 -112.70360318
   4.42710000 -112.70337238
   4.52710000 -112.70320418
   4.62710000 -112.70308345
   4.72710000 -112.70299422
   4.82710000 -112.70292465
   4.92710000 -112.70286936
   5.02710000 -112.70282621
   5.12710000 -112.70279153

                        *******************************
                        *       FIT OF THE SCF PES    *
                        *******************************
-------------------------------
POTENTIAL ENERGY SURFACE =   0
-------------------------------

Minimum found after 19 iterations
Equilibrium distance and its energy from the interpolated PES:
  Re      =   1.13633 Angstroem  (  2.14736 Bohr)
  E(Re)   =  -113.279737 Eh 
  dE/dR   = -2.326e-08 (-8.223e-02 CHEB)
  d2E/dR2 =    1.324806 (   3.565042 CHEB) (   2.143858 NUM)
  d3E/dR3 =   -3.959013 ( -14.215710 CHEB)

Spectroscopic constants:
  we =    2259.5 cm**-1 (based on SPLINE)
  we =    3706.5 cm**-1 (based on CHEB)
  we =    2874.3 cm**-1 (based on NUM)

Performing Morse fit ...
Morse-Fit Results:
 Te(adiabatic)   =   -6235.1 cm**-1         = -0.773 eV
 d2E/dR**2 (Morse)=      1.618437692 
 d3E/dR**3 (Morse)=     -5.630833967 
 d4E/dR**4 (Morse)=     15.237193749 
 E0               =   -113.308146345 Eh  RMS=7.98e-06
 Re               =   1.13188 Angstroem      =  2.13895 Bohr RMS=1.09e-05)
 De(Morse)        =  16.37215 eV             = 132050.3 cm**-1 RMS=1.19e-05
 D0(Morse)        =  16.21733 eV
 beta             =   1.15973 au          RMS=1.74e-05
 we               =   2497.4 cm**-1
 wexe             =     11.8 cm**-1
 Displacement   =   -0.0044 Angstroem      = -0.00840 Bohr


Timings for individual modules:

Sum of individual times         ...       90.421 sec (=   1.507 min)
GTO integral calculation        ...       10.946 sec (=   0.182 min)  12.1 %
SCF iterations                  ...       79.475 sec (=   1.325 min)  87.9 %
                             ****ORCA TERMINATED NORMALLY****
TOTAL RUN TIME: 0 days 0 hours 1 minutes 36 seconds 264 msec
