
                                 *****************
                                 * O   R   C   A *
                                 *****************

           --- An Ab Initio, DFT and Semiempirical electronic structure package ---

                  #######################################################
                  #                        -***-                        #
                  #          Department of theory and spectroscopy      #
                  #               Directorship: Frank Neese             #
                  #        Max Planck Institute fuer Kohlenforschung    #
                  #                Kaiser Wilhelm Platz 1               #
                  #                 D-45470 Muelheim/Ruhr               #
                  #                      Germany                        #
                  #                                                     #
                  #                  All rights reserved                #
                  #                        -***-                        #
                  #######################################################


                         Program Version 4.2.0 -  RELEASE  -


 With contributions from (in alphabetic order):
   Daniel Aravena         : Magnetic Suceptibility
   Michael Atanasov       : Ab Initio Ligand Field Theory (pilot matlab implementation)
   Alexander A. Auer      : GIAO ZORA, VPT2
   Ute Becker             : Parallelization
   Giovanni Bistoni       : ED, misc. LED, open-shell LED, HFLED
   Martin Brehm           : Molecular dynamics
   Dmytro Bykov           : SCF Hessian
   Vijay G. Chilkuri      : MRCI spin determinant printing, contributions to CSF-ICE
   Dipayan Datta          : RHF DLPNO-CCSD density
   Achintya Kumar Dutta   : EOM-CC, STEOM-CC
   Dmitry Ganyushin       : Spin-Orbit,Spin-Spin,Magnetic field MRCI
   Miquel Garcia          : C-PCM Hessian, Gaussian charge scheme
   Yang Guo               : DLPNO-NEVPT2, CIM, IAO-localization
   Andreas Hansen         : Spin unrestricted coupled pair/coupled cluster methods
   Benjamin Helmich-Paris : CASSCF linear response (MC-RPA)
   Lee Huntington         : MR-EOM, pCC
   Robert Izsak           : Overlap fitted RIJCOSX, COSX-SCS-MP3, EOM
   Christian Kollmar      : KDIIS, OOCD, Brueckner-CCSD(T), CCSD density
   Simone Kossmann        : Meta GGA functionals, TD-DFT gradient, OOMP2, MP2 Hessian
   Martin Krupicka        : AUTO-CI
   Lucas Lang             : DCDCAS
   Dagmar Lenk            : GEPOL surface, SMD
   Dimitrios Liakos       : Extrapolation schemes; Compound Job, initial MDCI parallelization
   Dimitrios Manganas     : Further ROCIS development; embedding schemes
   Dimitrios Pantazis     : SARC Basis sets
   Taras Petrenko         : DFT Hessian,TD-DFT gradient, ASA, ECA, R-Raman, ABS, FL, XAS/XES, NRVS
   Peter Pinski           : DLPNO-MP2, DLPNO-MP2 Gradient
   Christoph Reimann      : Effective Core Potentials
   Marius Retegan         : Local ZFS, SOC
   Christoph Riplinger    : Optimizer, TS searches, QM/MM, DLPNO-CCSD(T), (RO)-DLPNO pert. Triples
   Tobias Risthaus        : Range-separated hybrids, TD-DFT gradient, RPA, STAB
   Michael Roemelt        : Original ROCIS implementation
   Masaaki Saitow         : Open-shell DLPNO-CCSD energy and density
   Barbara Sandhoefer     : DKH picture change effects
   Avijit Sen             : IP-ROCIS
   Kantharuban Sivalingam : CASSCF convergence, NEVPT2, FIC-MRCI
   Bernardo de Souza      : ESD, SOC TD-DFT
   Georgi Stoychev        : AutoAux, RI-MP2 NMR
   Willem Van den Heuvel  : Paramagnetic NMR
   Boris Wezisla          : Elementary symmetry handling
   Frank Wennmohs         : Technical directorship


 We gratefully acknowledge several colleagues who have allowed us to
 interface, adapt or use parts of their codes:
   Stefan Grimme, W. Hujo, H. Kruse,             : VdW corrections, initial TS optimization,
                  C. Bannwarth                     DFT functionals, gCP, sTDA/sTD-DF
   Ed Valeev, F. Pavosevic, A. Kumar             : LibInt (2-el integral package), F12 methods
   Garnet Chan, S. Sharma, J. Yang, R. Olivares  : DMRG
   Ulf Ekstrom                                   : XCFun DFT Library
   Mihaly Kallay                                 : mrcc  (arbitrary order and MRCC methods)
   Andreas Klamt, Michael Diedenhofen            : otool_cosmo (COSMO solvation model)
   Jiri Pittner, Ondrej Demel                    : Mk-CCSD
   Frank Weinhold                                : gennbo (NPA and NBO analysis)
   Christopher J. Cramer and Donald G. Truhlar   : smd solvation model
   Lars Goerigk                                  : TD-DFT with DH, B97 family of functionals
   V. Asgeirsson, H. Jonsson                     : NEB implementation
   FAccTs GmbH                                   : IRC, NEB, NEB-TS, Multilevel, MM, QM/MM, CI optimization
   S Lehtola, MJT Oliveira, MAL Marques          : LibXC Library


 Your calculation uses the libint2 library for the computation of 2-el integrals
 For citations please refer to: http://libint.valeyev.net

 Your ORCA version has been built with support for libXC version: 4.2.3
 For citations please refer to: https://tddft.org/programs/libxc/

 This ORCA versions uses:
   CBLAS   interface :  Fast vector & matrix operations
   LAPACKE interface :  Fast linear algebra routines
   SCALAPACK package :  Parallel linear algebra routines


XCFun DFT library Copyright 2009-2010 Ulf Ekstrom and contributors.
See http://admol.org/xcfun for more information. This is free soft-
ware; see the source code for copying conditions. There is ABSOLUTELY
NO WARRANTY; not even for MERCHANTABILITY or FITNESS FOR A PARTICULAR
PURPOSE. For details see the documentation. Scientific users of this 
library should cite U. Ekstrom, L. Visscher, R. Bast, A. J. Thorvald-
sen and K. Ruud; J.Chem.Theor.Comp. 2010, DOI: 10.1021/ct100117s
XCFun Version 0.99 
----- Orbital basis set information -----
Your calculation utilizes the basis: 6-31G(d)
   H-He, Li-Ne : W. J. Hehre, R. Ditchfield and J.A. Pople, J. Chem. Phys. 56, 2257 (1972).
                 Note: He and Ne are unpublished basis sets taken from the Gaussian program.
                 Note: Li and B from J. D. Dill and J. A. Pople, J. Chem. Phys. 62, 2921 (1975).
   Na - Ar     : M. M. Francl, W. J. Pietro, W. J. Hehre, J. S. Binkley, M. S. Gordon, 
                 D. J. DeFrees and J. A. Pople, J. Chem. Phys. 77, 3654 (1982).
   K - Zn      : V. A. Rassolov, J. A. Pople, M. A. Ratner, and T. L. Windus, J. Chem. Phys. 109, 1223 (1998).

================================================================================
                                        WARNINGS
                       Please study these warnings very carefully!
================================================================================


INFO   : the flag for use of LIBINT has been found!

================================================================================
                                       INPUT FILE
================================================================================
NAME = gly-gly.inp
|  1> ! wB97X 6-31G(d)  KDIIS NOSOSCF VerySlowConv Grid4
|  2> %paras
|  3> R=0.83724,5.33724,46
|  4> end
|  5> * int 0 1
|  6>  N  0  0  0  0 0 0
|  7>  C  1  0  0  1.45534 0 0
|  8>  C  2  1  0  1.51938  111.04843 0
|  9>  O  3  2  1  1.22573  122.36988 198.86400
| 10>  H  2  1  3  1.09516  108.63454 116.98175
| 11>  H  2  1  3  1.09999  114.96760 237.25779
| 12>  H  1  2  3  1.01539  110.30864  75.70402
| 13>  H  1  2  3  1.01331  110.56907 194.50553
| 14>  N  3  2  1  {R}      114.23572  20.16221
| 15>  C  9  3  2  1.44978  123.48397 185.06417
| 16>  C 10  9  3  1.54620  113.21767 287.54520
| 17>  O 11 10  9  1.19803  121.80556 239.30000
| 18>  H 10  9  3  1.09795  109.06786  46.79225
| 19>  H 10  9  3  1.08933  109.13556 166.37548
| 20>  H  9  3  2  1.01099  116.46823   1.30185
| 21>  O 11 10  9  1.31882  114.82224  60.62897
| 22>  H 16 11 10  0.99623  112.52129 355.72700
| 23> *
| 24> 
| 25>                          ****END OF INPUT****
================================================================================

                       ******************************
                       * Parameter Scan Calculation *
                       ******************************

Trajectory settings:
    -> SCF surface will be mapped

There are 1 parameter(s) to be scanned
             R: range=   0.83724000 ..   5.33724000  steps=   46
There will be   46 energy evaluations


         *************************************************************
                                TRAJECTORY STEP   1
                  R  :   0.83724000
         *************************************************************
---------------------------------
CARTESIAN COORDINATES (ANGSTROEM)
---------------------------------
  N      0.000000    0.000000    0.000000
  C      1.455340    0.000000    0.000000
  C      2.001036    1.418003    0.000000
  O      3.151019    1.678601   -0.334724
  H      1.805277   -0.470833    0.924790
  H      1.919652   -0.539342   -0.838751
  H     -0.352419    0.235145   -0.922781
  H     -0.356013   -0.918469    0.237627
  N      1.455623    1.996147    0.263145
  C      1.727849    3.420010    0.243927
  C      2.746408    3.860452    1.320628
  O      2.466586    4.665166    2.162893
  H      2.150130    3.691311   -0.732581
  H      0.797081    3.963672    0.401222
  H      0.546994    1.659983    0.552087
  O      3.937617    3.304183    1.216361
  H      3.979118    2.624727    0.488974

----------------------------
CARTESIAN COORDINATES (A.U.)
----------------------------
  NO LB      ZA    FRAG     MASS         X           Y           Z
   0 N     7.0000    0    14.007    0.000000    0.000000    0.000000
   1 C     6.0000    0    12.011    2.750194    0.000000    0.000000
   2 C     6.0000    0    12.011    3.781410    2.679637    0.000000
   3 O     8.0000    0    15.999    5.954564    3.172096   -0.632537
   4 H     1.0000    0     1.008    3.411479   -0.889745    1.747599
   5 H     1.0000    0     1.008    3.627617   -1.019208   -1.585009
   6 H     1.0000    0     1.008   -0.665975    0.444360   -1.743803
   7 H     1.0000    0     1.008   -0.672766   -1.735655    0.449050
   8 N     7.0000    0    14.007    2.750729    3.772171    0.497272
   9 C     6.0000    0    12.011    3.265162    6.462882    0.460956
  10 C     6.0000    0    12.011    5.189959    7.295196    2.495625
  11 O     8.0000    0    15.999    4.661173    8.815886    4.087275
  12 H     1.0000    0     1.008    4.063156    6.975566   -1.384378
  13 H     1.0000    0     1.008    1.506264    7.490254    0.758200
  14 H     1.0000    0     1.008    1.033669    3.136913    1.043293
  15 O     8.0000    0    15.999    7.441018    6.244001    2.298589
  16 H     1.0000    0     1.008    7.519443    4.960015    0.924027

--------------------------------
INTERNAL COORDINATES (ANGSTROEM)
--------------------------------
 N      0   0   0     0.000000000000     0.00000000     0.00000000
 C      1   0   0     1.455340000000     0.00000000     0.00000000
 C      2   1   0     1.519380000000   111.04843000     0.00000000
 O      3   2   1     1.225730000000   122.36988000   198.86400000
 H      2   1   3     1.095160000000   108.63454000   116.98175000
 H      2   1   3     1.099990000000   114.96760000   237.25779000
 H      1   2   3     1.015390000000   110.30864000    75.70402000
 H      1   2   3     1.013310000000   110.56907000   194.50553000
 N      3   2   1     0.837240000000   114.23572000    20.16221000
 C      9   3   2     1.449780000000   123.48397000   185.06417000
 C     10   9   3     1.546200000000   113.21767000   287.54520000
 O     11  10   9     1.198030000000   121.80556000   239.30000000
 H     10   9   3     1.097950000000   109.06786000    46.79225000
 H     10   9   3     1.089330000000   109.13556000   166.37548000
 H      9   3   2     1.010990000000   116.46823000     1.30185000
 O     11  10   9     1.318820000000   114.82224000    60.62897000
 H     16  11  10     0.996230000000   112.52129000   355.72700000

---------------------------
INTERNAL COORDINATES (A.U.)
---------------------------
 N      0   0   0     0.000000000000     0.00000000     0.00000000
 C      1   0   0     2.750194031741     0.00000000     0.00000000
 C      2   1   0     2.871212093357   111.04843000     0.00000000
 O      3   2   1     2.316294014131   122.36988000   198.86400000
 H      2   1   3     2.069552472825   108.63454000   116.98175000
 H      2   1   3     2.078679850052   114.96760000   237.25779000
 H      1   2   3     1.918809019122   110.30864000    75.70402000
 H      1   2   3     1.914878388764   110.56907000   194.50553000
 N      3   2   1     1.582154308364   114.23572000    20.16221000
 C      9   3   2     2.739687154436   123.48397000   185.06417000
 C     10   9   3     2.921894548269   113.21767000   287.54520000
 O     11  10   9     2.263948600222   121.80556000   239.30000000
 H     10   9   3     2.074824808739   109.06786000    46.79225000
 H     10   9   3     2.058535369464   109.13556000   166.37548000
 H      9   3   2     1.910494224133   116.46823000     1.30185000
 O     11  10   9     2.492208619938   114.82224000    60.62897000
 H     16  11  10     1.882601866396   112.52129000   355.72700000

---------------------
BASIS SET INFORMATION
---------------------
There are 4 groups of distinct atoms

 Group   1 Type N   : 10s4p1d contracted to 3s2p1d pattern {631/31/1}
 Group   2 Type C   : 10s4p1d contracted to 3s2p1d pattern {631/31/1}
 Group   3 Type O   : 10s4p1d contracted to 3s2p1d pattern {631/31/1}
 Group   4 Type H   : 4s contracted to 2s pattern {31}

Atom   0N    basis set group =>   1
Atom   1C    basis set group =>   2
Atom   2C    basis set group =>   2
Atom   3O    basis set group =>   3
Atom   4H    basis set group =>   4
Atom   5H    basis set group =>   4
Atom   6H    basis set group =>   4
Atom   7H    basis set group =>   4
Atom   8N    basis set group =>   1
Atom   9C    basis set group =>   2
Atom  10C    basis set group =>   2
Atom  11O    basis set group =>   3
Atom  12H    basis set group =>   4
Atom  13H    basis set group =>   4
Atom  14H    basis set group =>   4
Atom  15O    basis set group =>   3
Atom  16H    basis set group =>   4
------------------------------------------------------------------------------
                           ORCA GTO INTEGRAL CALCULATION
------------------------------------------------------------------------------

                         BASIS SET STATISTICS AND STARTUP INFO

 # of primitive gaussian shells          ...  167
 # of primitive gaussian functions       ...  275
 # of contracted shells                  ...   70
 # of contracted basis functions         ...  142
 Highest angular momentum                ...    2
 Maximum contraction depth               ...    6
 Integral package used                   ... LIBINT
 Integral threshhold            Thresh   ...  1.000e-10
 Primitive cut-off              TCut     ...  1.000e-11


------------------------------ INTEGRAL EVALUATION ----------------------------


 * One electron integrals 
 Pre-screening matrix                    ... done
 Shell pair data                         ... done (   0.001 sec)

-------------------------------------------------------------------------------
                                 ORCA SCF
-------------------------------------------------------------------------------

------------
SCF SETTINGS
------------
Hamiltonian:
 Density Functional     Method          .... DFT(GTOs)
 Exchange Functional    Exchange        .... WB97X
 Correlation Functional Correlation     .... WB97X
 Gradients option       PostSCFGGA      .... off
 Hybrid DFT is turned on
   Fraction HF Exchange ScalHFX         ....  0.157706
   Scaling of DF-GGA-X  ScalDFX         ....  0.000000
   Scaling of DF-GGA-C  ScalDFC         ....  1.000000
   Scaling of DF-LDA-C  ScalLDAC        ....  1.000000
   Perturbative correction              ....  0.000000
   Density functional embedding theory  .... OFF
 Long-range corrected/Screened/Range-Separated Hybrid DFT is turned on
   Amount of maximum screened exact exchange              ....  0.842294
   Range separation parameter mu (erf(mu*r12)/r12)        ....  0.300000


General Settings:
 Integral files         IntName         .... gly-gly
 Hartree-Fock type      HFTyp           .... RHF
 Total Charge           Charge          ....    0
 Multiplicity           Mult            ....    1
 Number of Electrons    NEL             ....   70
 Basis Dimension        Dim             ....  142
 Nuclear Repulsion      ENuc            ....    498.6346935671 Eh

Convergence Acceleration:
 DIIS                   CNVDIIS         .... on
   Start iteration      DIISMaxIt       ....     0
   Startup error        DIISStart       ....  0.200000
   # of expansion vecs  DIISMaxEq       ....     5
   Bias factor          DIISBfac        ....   1.050
   Max. coefficient     DIISMaxC        ....  10.000
 Newton-Raphson         CNVNR           .... off
 SOSCF                  CNVSOSCF        .... off
 Level Shifting         CNVShift        .... off
 Zerner damping         CNVZerner       .... off
 Static damping         CNVDamp         .... off
 Fernandez-Rico         CNVRico         .... off

SCF Procedure:
 Maximum # iterations   MaxIter         ....   125
 SCF integral mode      SCFMode         .... Direct
   Integral package                     .... LIBINT
 Reset frequency        DirectResetFreq ....    20
 Integral Threshold     Thresh          ....  1.000e-10 Eh
 Primitive CutOff       TCut            ....  1.000e-11 Eh

Convergence Tolerance:
 Convergence Check Mode ConvCheckMode   .... All-Criteria
 Convergence forced     ConvForced      .... 0
 Energy Change          TolE            ....  1.000e-06 Eh
 Max Density Change     TolMaxP         ....  1.000e-05
 RMS Density Change     TolRMSP         ....  1.000e-06
 DIIS Error             TolErr          ....  1.000e-06


Diagonalization of the overlap matrix:
Smallest eigenvalue                        ... 9.969e-04
Time for diagonalization                   ...    0.081 sec
Threshold for overlap eigenvalues          ... 1.000e-08
Number of eigenvalues below threshold      ... 0
Time for construction of square roots      ...    0.001 sec
Total time needed                          ...    0.082 sec

-------------------
DFT GRID GENERATION
-------------------

General Integration Accuracy     IntAcc      ...  4.670
Radial Grid Type                 RadialGrid  ... Gauss-Chebyshev
Angular Grid (max. acc.)         AngularGrid ... Lebedev-302
Angular grid pruning method      GridPruning ... 3 (G Style)
Weight generation scheme         WeightScheme... Becke
Basis function cutoff            BFCut       ...    1.0000e-10
Integration weight cutoff        WCut        ...    1.0000e-14
Grids for H and He will be reduced by one unit

# of grid points (after initial pruning)     ...  83060 (   0.0 sec)
# of grid points (after weights+screening)   ...  75477 (   0.2 sec)
nearest neighbour list constructed           ...    0.0 sec
Grid point re-assignment to atoms done       ...    0.0 sec
Grid point division into batches done        ...    0.3 sec
Reduced shell lists constructed in    0.7 sec

Total number of grid points                  ...    75477
Total number of batches                      ...     1189
Average number of points per batch           ...       63
Average number of grid points per atom       ...     4440
Average number of shells per batch           ...    43.19 (61.70%)
Average number of basis functions per batch  ...    89.16 (62.79%)
Average number of large shells per batch     ...    32.33 (74.87%)
Average number of large basis fcns per batch ...    66.97 (75.11%)
Maximum spatial batch extension              ...  20.56, 19.40, 25.75 au
Average spatial batch extension              ...   2.41,  2.40,  2.47 au

Time for grid setup =    0.861 sec

------------------------------
INITIAL GUESS: MODEL POTENTIAL
------------------------------
Loading Hartree-Fock densities                     ... done
Calculating cut-offs                               ... done
Setting up the integral package                    ... done
Initializing the effective Hamiltonian             ... done
Starting the Coulomb interaction                   ... done (   0.1 sec)
Reading the grid                                   ... done
Mapping shells                                     ... done
Starting the XC term evaluation                    ... done (   0.6 sec)
  promolecular density results
     # of electrons  =     69.995971232
     EX              =    -60.739007883
     EC              =     -2.396458011
     EX+EC           =    -63.135465894
Transforming the Hamiltonian                       ... done (   0.0 sec)
Diagonalizing the Hamiltonian                      ... done (   0.0 sec)
Back transforming the eigenvectors                 ... done (   0.0 sec)
Now organizing SCF variables                       ... done
                      ------------------
                      INITIAL GUESS DONE (   1.6 sec)
                      ------------------
--------------
SCF ITERATIONS
--------------
ITER       Energy         Delta-E        Max-DP      RMS-DP      [F,P]   Gradient Norm
               ***  Starting incremental Fock matrix formation  ***
                             ****Resetting KDIIS****
                             ****Turning on KDIIS(Cayley)****
  0   -491.0845103641   0.000000000000 0.03439250  0.00144071  0.1051004   0.122292222
  1   -491.2257478684  -0.141237504323 0.03600609  0.00153233  0.0891835   0.099345476
  2   -491.3238681660  -0.098120297622 0.04873190  0.00235391  0.0712020   0.080508426
  3   -491.4371559707  -0.113287804699 0.07771619  0.00358772  0.0456061   0.049941128
  4   -491.5080786815  -0.070922710801 0.00342412  0.00018610  0.0040233   0.003160404
  5   -491.5084074434  -0.000328761872 0.00875484  0.00036128  0.0018888   0.001862046
  6   -491.5085757265  -0.000168283147 0.00213898  0.00005305  0.0007334   0.000859412
  7   -491.5085953340  -0.000019607484 0.00050900  0.00001685  0.0001400   0.000197012
  8   -491.5085964142  -0.000001080177 0.00050895  0.00001200  0.0001204   0.000073232
                          ***Energy convergence achieved***
  9   -491.5085966090  -0.000000194799 0.00010156  0.00000361  0.0000405   0.000043753
 10   -491.5085966599  -0.000000050953 0.00016149  0.00000343  0.0000283   0.000016683
                           ***RMSP convergence achieved***

            ***Energy convergence in two consecutive cycles with***
                    ***'reasonable' density convergence***
                       *** signaling convergence ***

                    *** KDIIS BlockDiag (67.407 sec) ***

               *****************************************************
               *                     SUCCESS                       *
               *           SCF CONVERGED AFTER  11 CYCLES          *
               *****************************************************

Setting up the final grid:

General Integration Accuracy     IntAcc      ...  5.010
Radial Grid Type                 RadialGrid  ... Gauss-Chebyshev
Angular Grid (max. acc.)         AngularGrid ... Lebedev-434
Angular grid pruning method      GridPruning ... 3 (G Style)
Weight generation scheme         WeightScheme... Becke
Basis function cutoff            BFCut       ...    1.0000e-10
Integration weight cutoff        WCut        ...    1.0000e-14
Grids for H and He will be reduced by one unit

# of grid points (after initial pruning)     ... 150034 (   0.0 sec)
# of grid points (after weights+screening)   ... 136050 (   0.3 sec)
nearest neighbour list constructed           ...    0.0 sec
Grid point re-assignment to atoms done       ...    0.0 sec
Grid point division into batches done        ...    0.9 sec
Reduced shell lists constructed in    1.6 sec

Total number of grid points                  ...   136050
Total number of batches                      ...     2134
Average number of points per batch           ...       63
Average number of grid points per atom       ...     8003
Average number of shells per batch           ...    41.89 (59.85%)
Average number of basis functions per batch  ...    86.34 (60.80%)
Average number of large shells per batch     ...    31.15 (74.35%)
Average number of large basis fcns per batch ...    64.43 (74.62%)
Maximum spatial batch extension              ...  20.30, 22.15, 22.96 au
Average spatial batch extension              ...   1.97,  1.98,  2.02 au

Final grid set up in    1.9 sec
Final integration                            ... done (   1.7 sec)
Change in XC energy                          ...    -0.001190237
Integrated number of electrons               ...    69.999981912
Previous integrated no of electrons          ...    69.999861004

----------------
TOTAL SCF ENERGY
----------------

Total Energy       :         -491.50978691 Eh          -13374.66126 eV

Components:
Nuclear Repulsion  :          498.63469357 Eh           13568.53982 eV
Electronic Energy  :         -990.14448048 Eh          -26943.20108 eV
One Electron Energy:        -1658.49894368 Eh          -45130.05063 eV
Two Electron Energy:          668.35446320 Eh           18186.84955 eV

Virial components:
Potential Energy   :         -984.90975068 Eh          -26800.75684 eV
Kinetic Energy     :          493.39996377 Eh           13426.09558 eV
Virial Ratio       :            1.99616908


DFT components:
N(Alpha)           :       34.999990956089 electrons
N(Beta)            :       34.999990956089 electrons
N(Total)           :       69.999981912177 electrons
E(XC)              :      -45.789594000897 Eh       
DFET-embed. en.    :        0.000000000000 Eh       

---------------
SCF CONVERGENCE
---------------

  Last Energy change         ...   -1.3202e-08  Tolerance :   1.0000e-06
  Last MAX-Density change    ...    1.9226e-05  Tolerance :   1.0000e-05
  Last RMS-Density change    ...    6.0411e-07  Tolerance :   1.0000e-06
  Last DIIS Error            ...    4.6794e-06  Tolerance :   1.0000e-06

             **** THE GBW FILE WAS UPDATED (gly-gly.gbw) ****
             **** DENSITY FILE WAS UPDATED (gly-gly.scfp) ****
             **** ENERGY FILE WAS UPDATED (gly-gly.en.tmp) ****
             **** THE GBW FILE WAS UPDATED (gly-gly.gbw) ****
             **** DENSITY FILE WAS UPDATED (gly-gly.scfp) ****
----------------
ORBITAL ENERGIES
----------------

  NO   OCC          E(Eh)            E(eV) 
   0   2.0000     -19.208784      -522.6976 
   1   2.0000     -19.180491      -521.9277 
   2   2.0000     -19.129657      -520.5444 
   3   2.0000     -14.471297      -393.7840 
   4   2.0000     -14.443096      -393.0166 
   5   2.0000     -10.386555      -282.6325 
   6   2.0000     -10.345683      -281.5203 
   7   2.0000     -10.323522      -280.9173 
   8   2.0000     -10.309713      -280.5415 
   9   2.0000      -1.314772       -35.7768 
  10   2.0000      -1.203491       -32.7486 
  11   2.0000      -1.125470       -30.6256 
  12   2.0000      -1.101732       -29.9797 
  13   2.0000      -1.061766       -28.8921 
  14   2.0000      -0.941989       -25.6328 
  15   2.0000      -0.850591       -23.1458 
  16   2.0000      -0.781533       -21.2666 
  17   2.0000      -0.740274       -20.1439 
  18   2.0000      -0.720408       -19.6033 
  19   2.0000      -0.699705       -19.0400 
  20   2.0000      -0.645099       -17.5540 
  21   2.0000      -0.619790       -16.8653 
  22   2.0000      -0.596218       -16.2239 
  23   2.0000      -0.571763       -15.5585 
  24   2.0000      -0.552095       -15.0233 
  25   2.0000      -0.531999       -14.4764 
  26   2.0000      -0.527962       -14.3666 
  27   2.0000      -0.508279       -13.8310 
  28   2.0000      -0.459867       -12.5136 
  29   2.0000      -0.443534       -12.0692 
  30   2.0000      -0.408154       -11.1064 
  31   2.0000      -0.393124       -10.6974 
  32   2.0000      -0.364253        -9.9118 
  33   2.0000      -0.354887        -9.6570 
  34   2.0000      -0.335567        -9.1312 
  35   0.0000       0.117597         3.2000 
  36   0.0000       0.141071         3.8387 
  37   0.0000       0.179711         4.8902 
  38   0.0000       0.193888         5.2759 
  39   0.0000       0.205620         5.5952 
  40   0.0000       0.223656         6.0860 
  41   0.0000       0.242931         6.6105 
  42   0.0000       0.249693         6.7945 
  43   0.0000       0.265544         7.2258 
  44   0.0000       0.286330         7.7914 
  45   0.0000       0.306057         8.3282 
  46   0.0000       0.307665         8.3720 
  47   0.0000       0.363275         9.8852 
  48   0.0000       0.377561        10.2740 
  49   0.0000       0.431356        11.7378 
  50   0.0000       0.451361        12.2822 
  51   0.0000       0.478684        13.0257 
  52   0.0000       0.527813        14.3625 
  53   0.0000       0.547235        14.8910 
  54   0.0000       0.603941        16.4341 
  55   0.0000       0.641615        17.4592 
  56   0.0000       0.655436        17.8353 
  57   0.0000       0.660887        17.9836 
  58   0.0000       0.695269        18.9192 
  59   0.0000       0.702478        19.1154 
  60   0.0000       0.753879        20.5141 
  61   0.0000       0.769113        20.9286 
  62   0.0000       0.794917        21.6308 
  63   0.0000       0.810165        22.0457 
  64   0.0000       0.842128        22.9155 
  65   0.0000       0.864803        23.5325 
  66   0.0000       0.876765        23.8580 
  67   0.0000       0.895168        24.3588 
  68   0.0000       0.916854        24.9489 
  69   0.0000       0.931959        25.3599 
  70   0.0000       0.962852        26.2005 
  71   0.0000       0.966022        26.2868 
  72   0.0000       0.979322        26.6487 
  73   0.0000       1.000265        27.2186 
  74   0.0000       1.015618        27.6364 
  75   0.0000       1.022977        27.8366 
  76   0.0000       1.039635        28.2899 
  77   0.0000       1.050379        28.5823 
  78   0.0000       1.069134        29.0926 
  79   0.0000       1.090647        29.6780 
  80   0.0000       1.144778        31.1510 
  81   0.0000       1.172713        31.9112 
  82   0.0000       1.185685        32.2641 
  83   0.0000       1.201683        32.6995 
  84   0.0000       1.238750        33.7081 
  85   0.0000       1.279735        34.8234 
  86   0.0000       1.316041        35.8113 
  87   0.0000       1.362646        37.0795 
  88   0.0000       1.394063        37.9344 
  89   0.0000       1.435878        39.0722 
  90   0.0000       1.484750        40.4021 
  91   0.0000       1.515289        41.2331 
  92   0.0000       1.539537        41.8929 
  93   0.0000       1.572224        42.7824 
  94   0.0000       1.605765        43.6951 
  95   0.0000       1.658323        45.1253 
  96   0.0000       1.691911        46.0392 
  97   0.0000       1.741742        47.3952 
  98   0.0000       1.750823        47.6423 
  99   0.0000       1.795789        48.8659 
 100   0.0000       1.808678        49.2166 
 101   0.0000       1.856304        50.5126 
 102   0.0000       1.883709        51.2583 
 103   0.0000       1.906560        51.8801 
 104   0.0000       1.914833        52.1053 
 105   0.0000       1.940893        52.8144 
 106   0.0000       1.964984        53.4699 
 107   0.0000       1.976972        53.7961 
 108   0.0000       2.008071        54.6424 
 109   0.0000       2.038798        55.4785 
 110   0.0000       2.088672        56.8356 
 111   0.0000       2.107929        57.3597 
 112   0.0000       2.111912        57.4680 
 113   0.0000       2.137161        58.1551 
 114   0.0000       2.157548        58.7099 
 115   0.0000       2.175969        59.2111 
 116   0.0000       2.193996        59.7017 
 117   0.0000       2.210324        60.1460 
 118   0.0000       2.289303        62.2951 
 119   0.0000       2.311294        62.8935 
 120   0.0000       2.377836        64.7042 
 121   0.0000       2.418181        65.8020 
 122   0.0000       2.450010        66.6681 
 123   0.0000       2.518573        68.5338 
 124   0.0000       2.553349        69.4801 
 125   0.0000       2.581428        70.2442 
 126   0.0000       2.612260        71.0832 
 127   0.0000       2.744876        74.6919 
 128   0.0000       2.769214        75.3541 
 129   0.0000       2.793278        76.0090 
 130   0.0000       2.834586        77.1330 
 131   0.0000       2.858346        77.7795 
 132   0.0000       2.906018        79.0768 
 133   0.0000       2.970676        80.8362 
 134   0.0000       3.026315        82.3502 
 135   0.0000       3.122246        84.9606 
 136   0.0000       3.161743        86.0354 
 137   0.0000       3.225937        87.7822 
 138   0.0000       3.272643        89.0531 
 139   0.0000       3.447328        93.8066 
 140   0.0000       3.721909       101.2783 
 141   0.0000       5.377519       146.3297 

                    ********************************
                    * MULLIKEN POPULATION ANALYSIS *
                    ********************************

-----------------------
MULLIKEN ATOMIC CHARGES
-----------------------
   0 N :   -0.793493
   1 C :   -0.306645
   2 C :    0.247176
   3 O :   -0.656000
   4 H :    0.202172
   5 H :    0.188077
   6 H :    0.337799
   7 H :    0.357133
   8 N :   -0.013119
   9 C :   -0.360530
  10 C :    0.541623
  11 O :   -0.413521
  12 H :    0.231957
  13 H :    0.192028
  14 H :    0.358083
  15 O :   -0.585313
  16 H :    0.472573
Sum of atomic charges:   -0.0000000

--------------------------------
MULLIKEN REDUCED ORBITAL CHARGES
--------------------------------
  0 N s       :     3.636321  s :     3.636321
      pz      :     1.449684  p :     4.124501
      px      :     1.203424
      py      :     1.471393
      dz2     :     0.011151  d :     0.032670
      dxz     :     0.005695
      dyz     :     0.000936
      dx2y2   :     0.009295
      dxy     :     0.005593
  1 C s       :     3.236183  s :     3.236183
      pz      :     1.160644  p :     3.017464
      px      :     0.778137
      py      :     1.078683
      dz2     :     0.009178  d :     0.052998
      dxz     :     0.011265
      dyz     :     0.007595
      dx2y2   :     0.013746
      dxy     :     0.011213
  2 C s       :     2.916934  s :     2.916934
      pz      :     0.835578  p :     2.659078
      px      :     0.918583
      py      :     0.904918
      dz2     :     0.020367  d :     0.176812
      dxz     :     0.037158
      dyz     :     0.019401
      dx2y2   :     0.055044
      dxy     :     0.044842
  3 O s       :     3.810289  s :     3.810289
      pz      :     1.697061  p :     4.822230
      px      :     1.353911
      py      :     1.771258
      dz2     :     0.002878  d :     0.023480
      dxz     :     0.007392
      dyz     :     0.001277
      dx2y2   :     0.007486
      dxy     :     0.004448
  4 H s       :     0.797828  s :     0.797828
  5 H s       :     0.811923  s :     0.811923
  6 H s       :     0.662201  s :     0.662201
  7 H s       :     0.642867  s :     0.642867
  8 N s       :     3.300076  s :     3.300076
      pz      :     1.328132  p :     3.641116
      px      :     1.235808
      py      :     1.077176
      dz2     :     0.006180  d :     0.071927
      dxz     :     0.007919
      dyz     :     0.012577
      dx2y2   :     0.033330
      dxy     :     0.011920
  9 C s       :     3.270141  s :     3.270141
      pz      :     1.135607  p :     3.038888
      px      :     1.106896
      py      :     0.796384
      dz2     :     0.010886  d :     0.051501
      dxz     :     0.007812
      dyz     :     0.006814
      dx2y2   :     0.013880
      dxy     :     0.012110
 10 C s       :     2.963778  s :     2.963778
      pz      :     0.808836  p :     2.359558
      px      :     0.763081
      py      :     0.787641
      dz2     :     0.026353  d :     0.135041
      dxz     :     0.033239
      dyz     :     0.015989
      dx2y2   :     0.027573
      dxy     :     0.031887
 11 O s       :     3.821482  s :     3.821482
      pz      :     1.428404  p :     4.562678
      px      :     1.744006
      py      :     1.390268
      dz2     :     0.008675  d :     0.029361
      dxz     :     0.004711
      dyz     :     0.007307
      dx2y2   :     0.005124
      dxy     :     0.003545
 12 H s       :     0.768043  s :     0.768043
 13 H s       :     0.807972  s :     0.807972
 14 H s       :     0.641917  s :     0.641917
 15 O s       :     3.826153  s :     3.826153
      pz      :     1.673042  p :     4.733036
      px      :     1.464631
      py      :     1.595364
      dz2     :     0.004022  d :     0.026123
      dxz     :     0.003880
      dyz     :     0.006678
      dx2y2   :     0.006908
      dxy     :     0.004634
 16 H s       :     0.527427  s :     0.527427


                     *******************************
                     * LOEWDIN POPULATION ANALYSIS *
                     *******************************

----------------------
LOEWDIN ATOMIC CHARGES
----------------------
   0 N :   -0.474434
   1 C :   -0.191723
   2 C :   -0.165610
   3 O :   -0.398769
   4 H :    0.152675
   5 H :    0.138490
   6 H :    0.242195
   7 H :    0.255385
   8 N :    0.091948
   9 C :   -0.184172
  10 C :    0.114142
  11 O :   -0.222430
  12 H :    0.173446
  13 H :    0.146453
  14 H :    0.288154
  15 O :   -0.310733
  16 H :    0.344981

-------------------------------
LOEWDIN REDUCED ORBITAL CHARGES
-------------------------------
  0 N s       :     3.249891  s :     3.249891
      pz      :     1.455439  p :     4.163096
      px      :     1.255883
      py      :     1.451773
      dz2     :     0.016966  d :     0.061448
      dxz     :     0.012674
      dyz     :     0.001970
      dx2y2   :     0.018034
      dxy     :     0.011804
  1 C s       :     2.927208  s :     2.927208
      pz      :     1.148061  p :     3.152997
      px      :     0.930323
      py      :     1.074613
      dz2     :     0.017893  d :     0.111518
      dxz     :     0.022640
      dyz     :     0.014232
      dx2y2   :     0.030839
      dxy     :     0.025915
  2 C s       :     2.687652  s :     2.687652
      pz      :     0.858043  p :     2.969004
      px      :     1.051545
      py      :     1.059416
      dz2     :     0.059338  d :     0.508954
      dxz     :     0.103965
      dyz     :     0.048833
      dx2y2   :     0.178305
      dxy     :     0.118514
  3 O s       :     3.497212  s :     3.497212
      pz      :     1.680437  p :     4.847072
      px      :     1.413093
      py      :     1.753542
      dz2     :     0.006548  d :     0.054486
      dxz     :     0.014801
      dyz     :     0.002804
      dx2y2   :     0.016607
      dxy     :     0.013725
  4 H s       :     0.847325  s :     0.847325
  5 H s       :     0.861510  s :     0.861510
  6 H s       :     0.757805  s :     0.757805
  7 H s       :     0.744615  s :     0.744615
  8 N s       :     2.909696  s :     2.909696
      pz      :     1.267752  p :     3.745519
      px      :     1.267719
      py      :     1.210048
      dz2     :     0.021597  d :     0.252836
      dxz     :     0.029952
      dyz     :     0.034033
      dx2y2   :     0.115864
      dxy     :     0.051390
  9 C s       :     2.935672  s :     2.935672
      pz      :     1.141372  p :     3.145675
      px      :     1.118022
      py      :     0.886280
      dz2     :     0.020733  d :     0.102825
      dxz     :     0.016183
      dyz     :     0.014140
      dx2y2   :     0.026567
      dxy     :     0.025202
 10 C s       :     2.842877  s :     2.842877
      pz      :     0.929551  p :     2.727801
      px      :     0.916955
      py      :     0.881294
      dz2     :     0.058723  d :     0.315181
      dxz     :     0.077780
      dyz     :     0.039239
      dx2y2   :     0.061433
      dxy     :     0.078006
 11 O s       :     3.539501  s :     3.539501
      pz      :     1.474510  p :     4.625240
      px      :     1.723268
      py      :     1.427461
      dz2     :     0.013183  d :     0.057689
      dxz     :     0.008382
      dyz     :     0.020024
      dx2y2   :     0.008994
      dxy     :     0.007106
 12 H s       :     0.826554  s :     0.826554
 13 H s       :     0.853547  s :     0.853547
 14 H s       :     0.711846  s :     0.711846
 15 O s       :     3.501684  s :     3.501684
      pz      :     1.654706  p :     4.756443
      px      :     1.523707
      py      :     1.578030
      dz2     :     0.008152  d :     0.052606
      dxz     :     0.007236
      dyz     :     0.010960
      dx2y2   :     0.015457
      dxy     :     0.010802
 16 H s       :     0.655019  s :     0.655019


                      *****************************
                      * MAYER POPULATION ANALYSIS *
                      *****************************

  NA   - Mulliken gross atomic population
  ZA   - Total nuclear charge
  QA   - Mulliken gross atomic charge
  VA   - Mayer's total valence
  BVA  - Mayer's bonded valence
  FA   - Mayer's free valence

  ATOM       NA         ZA         QA         VA         BVA        FA
  0 N      7.7935     7.0000    -0.7935     2.7992     2.7992    -0.0000
  1 C      6.3066     6.0000    -0.3066     3.7504     3.7504     0.0000
  2 C      5.7528     6.0000     0.2472     4.0674     4.0674    -0.0000
  3 O      8.6560     8.0000    -0.6560     1.8748     1.8748    -0.0000
  4 H      0.7978     1.0000     0.2022     0.9237     0.9237    -0.0000
  5 H      0.8119     1.0000     0.1881     0.9340     0.9340     0.0000
  6 H      0.6622     1.0000     0.3378     0.8455     0.8455     0.0000
  7 H      0.6429     1.0000     0.3571     0.8422     0.8422     0.0000
  8 N      7.0131     7.0000    -0.0131     3.4196     3.4196    -0.0000
  9 C      6.3605     6.0000    -0.3605     3.7251     3.7251    -0.0000
 10 C      5.4584     6.0000     0.5416     4.0830     4.0830    -0.0000
 11 O      8.4135     8.0000    -0.4135     2.1183     2.1183     0.0000
 12 H      0.7680     1.0000     0.2320     0.9220     0.9220    -0.0000
 13 H      0.8080     1.0000     0.1920     0.9326     0.9326    -0.0000
 14 H      0.6419     1.0000     0.3581     0.8533     0.8533    -0.0000
 15 O      8.5853     8.0000    -0.5853     1.8983     1.8983    -0.0000
 16 H      0.5274     1.0000     0.4726     0.7960     0.7960    -0.0000

  Mayer bond orders larger than 0.100000
B(  0-N ,  1-C ) :   0.9811 B(  0-N ,  6-H ) :   0.8512 B(  0-N ,  7-H ) :   0.8442 
B(  0-N , 14-H ) :   0.1380 B(  1-C ,  2-C ) :   0.8684 B(  1-C ,  4-H ) :   0.9303 
B(  1-C ,  5-H ) :   0.9314 B(  2-C ,  3-O ) :   1.5036 B(  2-C ,  8-N ) :   1.7676 
B(  3-O , 16-H ) :   0.1794 B(  8-N ,  9-C ) :   0.8987 B(  8-N , 14-H ) :   0.7325 
B(  9-C , 10-C ) :   0.9180 B(  9-C , 12-H ) :   0.9111 B(  9-C , 13-H ) :   0.9264 
B( 10-C , 11-O ) :   1.9732 B( 10-C , 15-O ) :   1.1933 B( 15-O , 16-H ) :   0.5897 


-------
TIMINGS
-------

Total SCF time: 0 days 0 hours 1 min 11 sec 

Total time                  ....      71.057 sec
Sum of individual times     ....      70.812 sec  ( 99.7%)

Fock matrix formation       ....      67.228 sec  ( 94.6%)
  XC integration            ....      12.290 sec  ( 18.3% of F)
    Basis function eval.    ....       3.885 sec  ( 31.6% of XC)
    Density eval.           ....       1.955 sec  ( 15.9% of XC)
    XC-Functional eval.     ....       4.080 sec  ( 33.2% of XC)
    XC-Potential eval.      ....       2.017 sec  ( 16.4% of XC)
Diagonalization             ....       0.021 sec  (  0.0%)
Density matrix formation    ....       0.004 sec  (  0.0%)
Population analysis         ....       0.003 sec  (  0.0%)
Initial guess               ....       0.764 sec  (  1.1%)
Orbital Transformation      ....       0.000 sec  (  0.0%)
Orbital Orthonormalization  ....       0.000 sec  (  0.0%)
DIIS solution               ....       0.000 sec  (  0.0%)
Grid generation             ....       2.793 sec  (  3.9%)

-------------------------   --------------------
FINAL SINGLE POINT ENERGY      -491.509786909916
-------------------------   --------------------

Storing actual gbw-file in gly-gly.001.gbw ... done

                            ***************************************
                            *     ORCA property calculations      *
                            ***************************************

                                    ---------------------
                                    Active property flags
                                    ---------------------
   (+) Dipole Moment


------------------------------------------------------------------------------
                       ORCA ELECTRIC PROPERTIES CALCULATION
------------------------------------------------------------------------------

Dipole Moment Calculation                       ... on
Quadrupole Moment Calculation                   ... off
Polarizability Calculation                      ... off
GBWName                                         ... gly-gly.gbw
Electron density file                           ... gly-gly.scfp
The origin for moment calculation is the CENTER OF MASS  = ( 3.991905,  4.249813  1.019800)

-------------
DIPOLE MOMENT
-------------
                                X             Y             Z
Electronic contribution:      3.74135       5.35247       2.64740
Nuclear contribution   :     -5.98098      -7.23708      -3.92999
                        -----------------------------------------
Total Dipole Moment    :     -2.23962      -1.88461      -1.28260
                        -----------------------------------------
Magnitude (a.u.)       :      3.19574
Magnitude (Debye)      :      8.12292



--------------------
Rotational spectrum 
--------------------
 
Rotational constants in cm-1:     0.133488     0.033556     0.029373 
Rotational constants in MHz :  4001.875286  1005.981585   880.569208 

 Dipole components along the rotational axes: 
x,y,z [a.u.] :    -3.001527    -0.918949    -0.599248 
x,y,z [Debye]:    -7.629274    -2.335784    -1.523167 

 

         *************************************************************
                                TRAJECTORY STEP   2
                  R  :   0.93724000
         *************************************************************
---------------------------------
CARTESIAN COORDINATES (ANGSTROEM)
---------------------------------
  N      0.000000    0.000000    0.000000
  C      1.455340    0.000000    0.000000
  C      2.001036    1.418003    0.000000
  O      3.151019    1.678601   -0.334724
  H      1.805277   -0.470833    0.924790
  H      1.919652   -0.539342   -0.838751
  H     -0.352419    0.235145   -0.922781
  H     -0.356013   -0.918469    0.237627
  N      1.390479    2.065200    0.294575
  C      1.662705    3.489063    0.275358
  C      2.681264    3.929505    1.352058
  O      2.401442    4.734220    2.194323
  H      2.084986    3.760364   -0.701151
  H      0.731937    4.032725    0.432652
  H      0.481850    1.729036    0.583517
  O      3.872473    3.373237    1.247791
  H      3.913974    2.693780    0.520404

----------------------------
CARTESIAN COORDINATES (A.U.)
----------------------------
  NO LB      ZA    FRAG     MASS         X           Y           Z
   0 N     7.0000    0    14.007    0.000000    0.000000    0.000000
   1 C     6.0000    0    12.011    2.750194    0.000000    0.000000
   2 C     6.0000    0    12.011    3.781410    2.679637    0.000000
   3 O     8.0000    0    15.999    5.954564    3.172096   -0.632537
   4 H     1.0000    0     1.008    3.411479   -0.889745    1.747599
   5 H     1.0000    0     1.008    3.627617   -1.019208   -1.585009
   6 H     1.0000    0     1.008   -0.665975    0.444360   -1.743803
   7 H     1.0000    0     1.008   -0.672766   -1.735655    0.449050
   8 N     7.0000    0    14.007    2.627625    3.902663    0.556666
   9 C     6.0000    0    12.011    3.142057    6.593374    0.520350
  10 C     6.0000    0    12.011    5.066854    7.425689    2.555019
  11 O     8.0000    0    15.999    4.538068    8.946378    4.146670
  12 H     1.0000    0     1.008    3.940052    7.106058   -1.324984
  13 H     1.0000    0     1.008    1.383160    7.620746    0.817594
  14 H     1.0000    0     1.008    0.910564    3.267405    1.102687
  15 O     8.0000    0    15.999    7.317914    6.374493    2.357983
  16 H     1.0000    0     1.008    7.396339    5.090507    0.983422

--------------------------------
INTERNAL COORDINATES (ANGSTROEM)
--------------------------------
 N      0   0   0     0.000000000000     0.00000000     0.00000000
 C      1   0   0     1.455340000000     0.00000000     0.00000000
 C      2   1   0     1.519380000000   111.04843000     0.00000000
 O      3   2   1     1.225730000000   122.36988000   198.86400000
 H      2   1   3     1.095160000000   108.63454000   116.98175000
 H      2   1   3     1.099990000000   114.96760000   237.25779000
 H      1   2   3     1.015390000000   110.30864000    75.70402000
 H      1   2   3     1.013310000000   110.56907000   194.50553000
 N      3   2   1     0.937240000000   114.23572000    20.16221000
 C      9   3   2     1.449780000000   123.48397000   185.06417000
 C     10   9   3     1.546200000000   113.21767000   287.54520000
 O     11  10   9     1.198030000000   121.80556000   239.30000000
 H     10   9   3     1.097950000000   109.06786000    46.79225000
 H     10   9   3     1.089330000000   109.13556000   166.37548000
 H      9   3   2     1.010990000000   116.46823000     1.30185000
 O     11  10   9     1.318820000000   114.82224000    60.62897000
 H     16  11  10     0.996230000000   112.52129000   355.72700000

---------------------------
INTERNAL COORDINATES (A.U.)
---------------------------
 N      0   0   0     0.000000000000     0.00000000     0.00000000
 C      1   0   0     2.750194031741     0.00000000     0.00000000
 C      2   1   0     2.871212093357   111.04843000     0.00000000
 O      3   2   1     2.316294014131   122.36988000   198.86400000
 H      2   1   3     2.069552472825   108.63454000   116.98175000
 H      2   1   3     2.078679850052   114.96760000   237.25779000
 H      1   2   3     1.918809019122   110.30864000    75.70402000
 H      1   2   3     1.914878388764   110.56907000   194.50553000
 N      3   2   1     1.771126921756   114.23572000    20.16221000
 C      9   3   2     2.739687154436   123.48397000   185.06417000
 C     10   9   3     2.921894548269   113.21767000   287.54520000
 O     11  10   9     2.263948600222   121.80556000   239.30000000
 H     10   9   3     2.074824808739   109.06786000    46.79225000
 H     10   9   3     2.058535369464   109.13556000   166.37548000
 H      9   3   2     1.910494224133   116.46823000     1.30185000
 O     11  10   9     2.492208619938   114.82224000    60.62897000
 H     16  11  10     1.882601866396   112.52129000   355.72700000


Diagonalization of the overlap matrix:
Smallest eigenvalue                        ... 1.347e-03
Time for diagonalization                   ...    0.004 sec
Threshold for overlap eigenvalues          ... 1.000e-08
Number of eigenvalues below threshold      ... 0
Time for construction of square roots      ...    0.001 sec
Total time needed                          ...    0.004 sec

-------------------
DFT GRID GENERATION
-------------------

General Integration Accuracy     IntAcc      ...  4.670
Radial Grid Type                 RadialGrid  ... Gauss-Chebyshev
Angular Grid (max. acc.)         AngularGrid ... Lebedev-302
Angular grid pruning method      GridPruning ... 3 (G Style)
Weight generation scheme         WeightScheme... Becke
Basis function cutoff            BFCut       ...    1.0000e-10
Integration weight cutoff        WCut        ...    1.0000e-14
Grids for H and He will be reduced by one unit

# of grid points (after initial pruning)     ...  83060 (   0.0 sec)
# of grid points (after weights+screening)   ...  75557 (   0.2 sec)
nearest neighbour list constructed           ...    0.0 sec
Grid point re-assignment to atoms done       ...    0.0 sec
Grid point division into batches done        ...    0.3 sec
Reduced shell lists constructed in    0.6 sec

Total number of grid points                  ...    75557
Total number of batches                      ...     1189
Average number of points per batch           ...       63
Average number of grid points per atom       ...     4445
Average number of shells per batch           ...    42.92 (61.32%)
Average number of basis functions per batch  ...    88.57 (62.37%)
Average number of large shells per batch     ...    32.02 (74.61%)
Average number of large basis fcns per batch ...    66.30 (74.86%)
Maximum spatial batch extension              ...  20.26, 19.40, 21.16 au
Average spatial batch extension              ...   2.42,  2.38,  2.47 au

Time for grid setup =    0.855 sec

--------------
SCF ITERATIONS
--------------
ITER       Energy         Delta-E        Max-DP      RMS-DP      [F,P]   Gradient Norm
               ***  Starting incremental Fock matrix formation  ***
                             ****Resetting KDIIS****
                             ****Turning on KDIIS(Cayley)****
  0   -491.9020072979   0.000000000000 0.01848576  0.00043115  0.0249853   0.020390478
  1   -491.9048354874  -0.002828189518 0.02857675  0.00070812  0.0221407   0.018120362
  2   -491.9087030731  -0.003867585739 0.03827157  0.00110858  0.0183411   0.014856033
  3   -491.9138729744  -0.005169901262 0.05071993  0.00159837  0.0112558   0.008976744
  4   -491.9169295362  -0.003056561820 0.00123833  0.00004735  0.0002918   0.000347383
  5   -491.9169347012  -0.000005164954 0.00036689  0.00001478  0.0001226   0.000135151
                          ***Energy convergence achieved***
  6   -491.9169353011  -0.000000599970 0.00023008  0.00000636  0.0000547   0.000066235

            ***Energy convergence in two consecutive cycles with***
                    ***'reasonable' density convergence***
                       *** signaling convergence ***

                    *** KDIIS BlockDiag (44.057 sec) ***

               *****************************************************
               *                     SUCCESS                       *
               *           SCF CONVERGED AFTER   7 CYCLES          *
               *****************************************************

Setting up the final grid:

General Integration Accuracy     IntAcc      ...  5.010
Radial Grid Type                 RadialGrid  ... Gauss-Chebyshev
Angular Grid (max. acc.)         AngularGrid ... Lebedev-434
Angular grid pruning method      GridPruning ... 3 (G Style)
Weight generation scheme         WeightScheme... Becke
Basis function cutoff            BFCut       ...    1.0000e-10
Integration weight cutoff        WCut        ...    1.0000e-14
Grids for H and He will be reduced by one unit

# of grid points (after initial pruning)     ... 150034 (   0.0 sec)
# of grid points (after weights+screening)   ... 136196 (   0.3 sec)
nearest neighbour list constructed           ...    0.0 sec
Grid point re-assignment to atoms done       ...    0.0 sec
Grid point division into batches done        ...    0.9 sec
Reduced shell lists constructed in    1.6 sec

Total number of grid points                  ...   136196
Total number of batches                      ...     2135
Average number of points per batch           ...       63
Average number of grid points per atom       ...     8012
Average number of shells per batch           ...    41.69 (59.55%)
Average number of basis functions per batch  ...    85.88 (60.48%)
Average number of large shells per batch     ...    30.84 (73.97%)
Average number of large basis fcns per batch ...    63.71 (74.18%)
Maximum spatial batch extension              ...  19.91, 22.13, 22.06 au
Average spatial batch extension              ...   1.96,  1.98,  2.02 au

Final grid set up in    1.9 sec
Final integration                            ... done (   1.7 sec)
Change in XC energy                          ...    -0.001172159
Integrated number of electrons               ...    69.999996590
Previous integrated no of electrons          ...    69.999877134
Total Energy       :         -491.91810759 Eh          -13385.77223 eV
  Last Energy change         ...   -1.3102e-07  Tolerance :   1.0000e-06
  Last MAX-Density change    ...    6.2749e-05  Tolerance :   1.0000e-05
             **** THE GBW FILE WAS UPDATED (gly-gly.gbw) ****
             **** DENSITY FILE WAS UPDATED (gly-gly.scfp) ****
             **** ENERGY FILE WAS UPDATED (gly-gly.en.tmp) ****
             **** THE GBW FILE WAS UPDATED (gly-gly.gbw) ****
             **** DENSITY FILE WAS UPDATED (gly-gly.scfp) ****
Total SCF time: 0 days 0 hours 0 min 47 sec 

-------------------------   --------------------
FINAL SINGLE POINT ENERGY      -491.918107591374
-------------------------   --------------------

Storing actual gbw-file in gly-gly.002.gbw ... done

                            ***************************************
                            *     ORCA property calculations      *
                            ***************************************

                                    ---------------------
                                    Active property flags
                                    ---------------------
   (+) Dipole Moment


------------------------------------------------------------------------------
                       ORCA ELECTRIC PROPERTIES CALCULATION
------------------------------------------------------------------------------

Dipole Moment Calculation                       ... on
Quadrupole Moment Calculation                   ... off
Polarizability Calculation                      ... off
GBWName                                         ... gly-gly.gbw
Electron density file                           ... gly-gly.scfp
The origin for moment calculation is the CENTER OF MASS  = ( 3.922899,  4.322960  1.053093)

-------------
DIPOLE MOMENT
-------------
                                X             Y             Z
Electronic contribution:      3.79826       5.41612       2.65789
Nuclear contribution   :     -5.95163      -7.26819      -3.94415
                        -----------------------------------------
Total Dipole Moment    :     -2.15337      -1.85206      -1.28626
                        -----------------------------------------
Magnitude (a.u.)       :      3.11795
Magnitude (Debye)      :      7.92520



--------------------
Rotational spectrum 
--------------------
 
Rotational constants in cm-1:     0.129996     0.033034     0.028810 
Rotational constants in MHz :  3897.193161   990.325955   863.702873 

 Dipole components along the rotational axes: 
x,y,z [a.u.] :    -2.912631    -0.932103    -0.607767 
x,y,z [Debye]:    -7.403319    -2.369219    -1.544821 

 

         *************************************************************
                                TRAJECTORY STEP   3
                  R  :   1.03724000
         *************************************************************
---------------------------------
CARTESIAN COORDINATES (ANGSTROEM)
---------------------------------
  N      0.000000    0.000000    0.000000
  C      1.455340    0.000000    0.000000
  C      2.001036    1.418003    0.000000
  O      3.151019    1.678601   -0.334724
  H      1.805277   -0.470833    0.924790
  H      1.919652   -0.539342   -0.838751
  H     -0.352419    0.235145   -0.922781
  H     -0.356013   -0.918469    0.237627
  N      1.325335    2.134254    0.326005
  C      1.597561    3.558117    0.306788
  C      2.616120    3.998559    1.383488
  O      2.336298    4.803273    2.225753
  H      2.019842    3.829418   -0.669721
  H      0.666792    4.101779    0.464082
  H      0.416706    1.798090    0.614947
  O      3.807329    3.442290    1.279221
  H      3.848830    2.762834    0.551834

----------------------------
CARTESIAN COORDINATES (A.U.)
----------------------------
  NO LB      ZA    FRAG     MASS         X           Y           Z
   0 N     7.0000    0    14.007    0.000000    0.000000    0.000000
   1 C     6.0000    0    12.011    2.750194    0.000000    0.000000
   2 C     6.0000    0    12.011    3.781410    2.679637    0.000000
   3 O     8.0000    0    15.999    5.954564    3.172096   -0.632537
   4 H     1.0000    0     1.008    3.411479   -0.889745    1.747599
   5 H     1.0000    0     1.008    3.627617   -1.019208   -1.585009
   6 H     1.0000    0     1.008   -0.665975    0.444360   -1.743803
   7 H     1.0000    0     1.008   -0.672766   -1.735655    0.449050
   8 N     7.0000    0    14.007    2.504520    4.033155    0.616061
   9 C     6.0000    0    12.011    3.018953    6.723866    0.579744
  10 C     6.0000    0    12.011    4.943749    7.556181    2.614414
  11 O     8.0000    0    15.999    4.414963    9.076871    4.206064
  12 H     1.0000    0     1.008    3.816947    7.236551   -1.265590
  13 H     1.0000    0     1.008    1.260055    7.751238    0.876989
  14 H     1.0000    0     1.008    0.787460    3.397897    1.162081
  15 O     8.0000    0    15.999    7.194809    6.504986    2.417377
  16 H     1.0000    0     1.008    7.273234    5.221000    1.042816

--------------------------------
INTERNAL COORDINATES (ANGSTROEM)
--------------------------------
 N      0   0   0     0.000000000000     0.00000000     0.00000000
 C      1   0   0     1.455340000000     0.00000000     0.00000000
 C      2   1   0     1.519380000000   111.04843000     0.00000000
 O      3   2   1     1.225730000000   122.36988000   198.86400000
 H      2   1   3     1.095160000000   108.63454000   116.98175000
 H      2   1   3     1.099990000000   114.96760000   237.25779000
 H      1   2   3     1.015390000000   110.30864000    75.70402000
 H      1   2   3     1.013310000000   110.56907000   194.50553000
 N      3   2   1     1.037240000000   114.23572000    20.16221000
 C      9   3   2     1.449780000000   123.48397000   185.06417000
 C     10   9   3     1.546200000000   113.21767000   287.54520000
 O     11  10   9     1.198030000000   121.80556000   239.30000000
 H     10   9   3     1.097950000000   109.06786000    46.79225000
 H     10   9   3     1.089330000000   109.13556000   166.37548000
 H      9   3   2     1.010990000000   116.46823000     1.30185000
 O     11  10   9     1.318820000000   114.82224000    60.62897000
 H     16  11  10     0.996230000000   112.52129000   355.72700000

---------------------------
INTERNAL COORDINATES (A.U.)
---------------------------
 N      0   0   0     0.000000000000     0.00000000     0.00000000
 C      1   0   0     2.750194031741     0.00000000     0.00000000
 C      2   1   0     2.871212093357   111.04843000     0.00000000
 O      3   2   1     2.316294014131   122.36988000   198.86400000
 H      2   1   3     2.069552472825   108.63454000   116.98175000
 H      2   1   3     2.078679850052   114.96760000   237.25779000
 H      1   2   3     1.918809019122   110.30864000    75.70402000
 H      1   2   3     1.914878388764   110.56907000   194.50553000
 N      3   2   1     1.960099535148   114.23572000    20.16221000
 C      9   3   2     2.739687154436   123.48397000   185.06417000
 C     10   9   3     2.921894548269   113.21767000   287.54520000
 O     11  10   9     2.263948600222   121.80556000   239.30000000
 H     10   9   3     2.074824808739   109.06786000    46.79225000
 H     10   9   3     2.058535369464   109.13556000   166.37548000
 H      9   3   2     1.910494224133   116.46823000     1.30185000
 O     11  10   9     2.492208619938   114.82224000    60.62897000
 H     16  11  10     1.882601866396   112.52129000   355.72700000


Diagonalization of the overlap matrix:
Smallest eigenvalue                        ... 1.826e-03
Time for diagonalization                   ...    0.004 sec
Threshold for overlap eigenvalues          ... 1.000e-08
Number of eigenvalues below threshold      ... 0
Time for construction of square roots      ...    0.001 sec
Total time needed                          ...    0.004 sec

-------------------
DFT GRID GENERATION
-------------------

General Integration Accuracy     IntAcc      ...  4.670
Radial Grid Type                 RadialGrid  ... Gauss-Chebyshev
Angular Grid (max. acc.)         AngularGrid ... Lebedev-302
Angular grid pruning method      GridPruning ... 3 (G Style)
Weight generation scheme         WeightScheme... Becke
Basis function cutoff            BFCut       ...    1.0000e-10
Integration weight cutoff        WCut        ...    1.0000e-14
Grids for H and He will be reduced by one unit

# of grid points (after initial pruning)     ...  83060 (   0.0 sec)
# of grid points (after weights+screening)   ...  75636 (   0.2 sec)
nearest neighbour list constructed           ...    0.0 sec
Grid point re-assignment to atoms done       ...    0.0 sec
Grid point division into batches done        ...    0.3 sec
Reduced shell lists constructed in    0.7 sec

Total number of grid points                  ...    75636
Total number of batches                      ...     1192
Average number of points per batch           ...       63
Average number of grid points per atom       ...     4449
Average number of shells per batch           ...    42.74 (61.06%)
Average number of basis functions per batch  ...    88.16 (62.09%)
Average number of large shells per batch     ...    31.65 (74.04%)
Average number of large basis fcns per batch ...    65.47 (74.26%)
Maximum spatial batch extension              ...  22.31, 21.46, 21.06 au
Average spatial batch extension              ...   2.42,  2.40,  2.50 au

Time for grid setup =    0.862 sec

--------------
SCF ITERATIONS
--------------
ITER       Energy         Delta-E        Max-DP      RMS-DP      [F,P]   Gradient Norm
               ***  Starting incremental Fock matrix formation  ***
                             ****Resetting KDIIS****
                             ****Turning on KDIIS(Cayley)****
  0   -492.1266469885   0.000000000000 0.00828312  0.00024612  0.0200758   0.017116982
  1   -492.1287018085  -0.002054819986 0.01388567  0.00042595  0.0178158   0.015231977
  2   -492.1315840507  -0.002882242193 0.02280013  0.00070467  0.0147600   0.012507503
  3   -492.1354337897  -0.003849739001 0.03463874  0.00106667  0.0090487   0.007555651
  4   -492.1377197695  -0.002285979823 0.00131163  0.00004116  0.0002717   0.000289928
  5   -492.1377237361  -0.000003966539 0.00034132  0.00001282  0.0001194   0.000122877
                          ***Energy convergence achieved***
  6   -492.1377242228  -0.000000486741 0.00013624  0.00000494  0.0000589   0.000060175

            ***Energy convergence in two consecutive cycles with***
                    ***'reasonable' density convergence***
                       *** signaling convergence ***

                    *** KDIIS BlockDiag (43.189 sec) ***

               *****************************************************
               *                     SUCCESS                       *
               *           SCF CONVERGED AFTER   7 CYCLES          *
               *****************************************************

Setting up the final grid:

General Integration Accuracy     IntAcc      ...  5.010
Radial Grid Type                 RadialGrid  ... Gauss-Chebyshev
Angular Grid (max. acc.)         AngularGrid ... Lebedev-434
Angular grid pruning method      GridPruning ... 3 (G Style)
Weight generation scheme         WeightScheme... Becke
Basis function cutoff            BFCut       ...    1.0000e-10
Integration weight cutoff        WCut        ...    1.0000e-14
Grids for H and He will be reduced by one unit

# of grid points (after initial pruning)     ... 150034 (   0.0 sec)
# of grid points (after weights+screening)   ... 136350 (   0.3 sec)
nearest neighbour list constructed           ...    0.0 sec
Grid point re-assignment to atoms done       ...    0.0 sec
Grid point division into batches done        ...    0.9 sec
Reduced shell lists constructed in    1.6 sec

Total number of grid points                  ...   136350
Total number of batches                      ...     2139
Average number of points per batch           ...       63
Average number of grid points per atom       ...     8021
Average number of shells per batch           ...    41.43 (59.19%)
Average number of basis functions per batch  ...    85.31 (60.08%)
Average number of large shells per batch     ...    30.53 (73.68%)
Average number of large basis fcns per batch ...    63.01 (73.86%)
Maximum spatial batch extension              ...  20.36, 22.20, 22.15 au
Average spatial batch extension              ...   1.97,  1.97,  2.01 au

Final grid set up in    1.9 sec
Final integration                            ... done (   1.7 sec)
Change in XC energy                          ...    -0.001167309
Integrated number of electrons               ...    70.000012960
Previous integrated no of electrons          ...    69.999924769
Total Energy       :         -492.13889165 Eh          -13391.78007 eV
  Last Energy change         ...   -1.1314e-07  Tolerance :   1.0000e-06
  Last MAX-Density change    ...    6.3546e-05  Tolerance :   1.0000e-05
             **** THE GBW FILE WAS UPDATED (gly-gly.gbw) ****
             **** DENSITY FILE WAS UPDATED (gly-gly.scfp) ****
             **** ENERGY FILE WAS UPDATED (gly-gly.en.tmp) ****
             **** THE GBW FILE WAS UPDATED (gly-gly.gbw) ****
             **** DENSITY FILE WAS UPDATED (gly-gly.scfp) ****
Total SCF time: 0 days 0 hours 0 min 46 sec 

-------------------------   --------------------
FINAL SINGLE POINT ENERGY      -492.138891645213
-------------------------   --------------------

Storing actual gbw-file in gly-gly.003.gbw ... done

                            ***************************************
                            *     ORCA property calculations      *
                            ***************************************

                                    ---------------------
                                    Active property flags
                                    ---------------------
   (+) Dipole Moment


------------------------------------------------------------------------------
                       ORCA ELECTRIC PROPERTIES CALCULATION
------------------------------------------------------------------------------

Dipole Moment Calculation                       ... on
Quadrupole Moment Calculation                   ... off
Polarizability Calculation                      ... off
GBWName                                         ... gly-gly.gbw
Electron density file                           ... gly-gly.scfp
The origin for moment calculation is the CENTER OF MASS  = ( 3.853893,  4.396108  1.086386)

-------------
DIPOLE MOMENT
-------------
                                X             Y             Z
Electronic contribution:      3.86688       5.45073       2.65983
Nuclear contribution   :     -5.92229      -7.29929      -3.95830
                        -----------------------------------------
Total Dipole Moment    :     -2.05542      -1.84856      -1.29847
                        -----------------------------------------
Magnitude (a.u.)       :      3.05417
Magnitude (Debye)      :      7.76308



--------------------
Rotational spectrum 
--------------------
 
Rotational constants in cm-1:     0.126654     0.032489     0.028238 
Rotational constants in MHz :  3796.993278   973.990573   846.540897 

 Dipole components along the rotational axes: 
x,y,z [a.u.] :    -2.848079    -0.919126    -0.609584 
x,y,z [Debye]:    -7.239241    -2.336232    -1.549440 

 

         *************************************************************
                                TRAJECTORY STEP   4
                  R  :   1.13724000
         *************************************************************
---------------------------------
CARTESIAN COORDINATES (ANGSTROEM)
---------------------------------
  N      0.000000    0.000000    0.000000
  C      1.455340    0.000000    0.000000
  C      2.001036    1.418003    0.000000
  O      3.151019    1.678601   -0.334724
  H      1.805277   -0.470833    0.924790
  H      1.919652   -0.539342   -0.838751
  H     -0.352419    0.235145   -0.922781
  H     -0.356013   -0.918469    0.237627
  N      1.260191    2.203307    0.357435
  C      1.532417    3.627170    0.338218
  C      2.550975    4.067612    1.414918
  O      2.271154    4.872327    2.257183
  H      1.954697    3.898471   -0.638291
  H      0.601648    4.170832    0.495512
  H      0.351562    1.867143    0.646377
  O      3.742185    3.511344    1.310651
  H      3.783686    2.831888    0.583264

----------------------------
CARTESIAN COORDINATES (A.U.)
----------------------------
  NO LB      ZA    FRAG     MASS         X           Y           Z
   0 N     7.0000    0    14.007    0.000000    0.000000    0.000000
   1 C     6.0000    0    12.011    2.750194    0.000000    0.000000
   2 C     6.0000    0    12.011    3.781410    2.679637    0.000000
   3 O     8.0000    0    15.999    5.954564    3.172096   -0.632537
   4 H     1.0000    0     1.008    3.411479   -0.889745    1.747599
   5 H     1.0000    0     1.008    3.627617   -1.019208   -1.585009
   6 H     1.0000    0     1.008   -0.665975    0.444360   -1.743803
   7 H     1.0000    0     1.008   -0.672766   -1.735655    0.449050
   8 N     7.0000    0    14.007    2.381416    4.163648    0.675455
   9 C     6.0000    0    12.011    2.895848    6.854359    0.639139
  10 C     6.0000    0    12.011    4.820645    7.686673    2.673808
  11 O     8.0000    0    15.999    4.291859    9.207363    4.265458
  12 H     1.0000    0     1.008    3.693843    7.367043   -1.206195
  13 H     1.0000    0     1.008    1.136951    7.881731    0.936383
  14 H     1.0000    0     1.008    0.664355    3.528390    1.221475
  15 O     8.0000    0    15.999    7.071704    6.635478    2.476772
  16 H     1.0000    0     1.008    7.150130    5.351492    1.102210

--------------------------------
INTERNAL COORDINATES (ANGSTROEM)
--------------------------------
 N      0   0   0     0.000000000000     0.00000000     0.00000000
 C      1   0   0     1.455340000000     0.00000000     0.00000000
 C      2   1   0     1.519380000000   111.04843000     0.00000000
 O      3   2   1     1.225730000000   122.36988000   198.86400000
 H      2   1   3     1.095160000000   108.63454000   116.98175000
 H      2   1   3     1.099990000000   114.96760000   237.25779000
 H      1   2   3     1.015390000000   110.30864000    75.70402000
 H      1   2   3     1.013310000000   110.56907000   194.50553000
 N      3   2   1     1.137240000000   114.23572000    20.16221000
 C      9   3   2     1.449780000000   123.48397000   185.06417000
 C     10   9   3     1.546200000000   113.21767000   287.54520000
 O     11  10   9     1.198030000000   121.80556000   239.30000000
 H     10   9   3     1.097950000000   109.06786000    46.79225000
 H     10   9   3     1.089330000000   109.13556000   166.37548000
 H      9   3   2     1.010990000000   116.46823000     1.30185000
 O     11  10   9     1.318820000000   114.82224000    60.62897000
 H     16  11  10     0.996230000000   112.52129000   355.72700000

---------------------------
INTERNAL COORDINATES (A.U.)
---------------------------
 N      0   0   0     0.000000000000     0.00000000     0.00000000
 C      1   0   0     2.750194031741     0.00000000     0.00000000
 C      2   1   0     2.871212093357   111.04843000     0.00000000
 O      3   2   1     2.316294014131   122.36988000   198.86400000
 H      2   1   3     2.069552472825   108.63454000   116.98175000
 H      2   1   3     2.078679850052   114.96760000   237.25779000
 H      1   2   3     1.918809019122   110.30864000    75.70402000
 H      1   2   3     1.914878388764   110.56907000   194.50553000
 N      3   2   1     2.149072148541   114.23572000    20.16221000
 C      9   3   2     2.739687154436   123.48397000   185.06417000
 C     10   9   3     2.921894548269   113.21767000   287.54520000
 O     11  10   9     2.263948600222   121.80556000   239.30000000
 H     10   9   3     2.074824808739   109.06786000    46.79225000
 H     10   9   3     2.058535369464   109.13556000   166.37548000
 H      9   3   2     1.910494224133   116.46823000     1.30185000
 O     11  10   9     2.492208619938   114.82224000    60.62897000
 H     16  11  10     1.882601866396   112.52129000   355.72700000


Diagonalization of the overlap matrix:
Smallest eigenvalue                        ... 2.432e-03
Time for diagonalization                   ...    0.004 sec
Threshold for overlap eigenvalues          ... 1.000e-08
Number of eigenvalues below threshold      ... 0
Time for construction of square roots      ...    0.001 sec
Total time needed                          ...    0.004 sec

-------------------
DFT GRID GENERATION
-------------------

General Integration Accuracy     IntAcc      ...  4.670
Radial Grid Type                 RadialGrid  ... Gauss-Chebyshev
Angular Grid (max. acc.)         AngularGrid ... Lebedev-302
Angular grid pruning method      GridPruning ... 3 (G Style)
Weight generation scheme         WeightScheme... Becke
Basis function cutoff            BFCut       ...    1.0000e-10
Integration weight cutoff        WCut        ...    1.0000e-14
Grids for H and He will be reduced by one unit

# of grid points (after initial pruning)     ...  83060 (   0.0 sec)
# of grid points (after weights+screening)   ...  75742 (   0.2 sec)
nearest neighbour list constructed           ...    0.0 sec
Grid point re-assignment to atoms done       ...    0.0 sec
Grid point division into batches done        ...    0.3 sec
Reduced shell lists constructed in    0.6 sec

Total number of grid points                  ...    75742
Total number of batches                      ...     1192
Average number of points per batch           ...       63
Average number of grid points per atom       ...     4455
Average number of shells per batch           ...    42.45 (60.64%)
Average number of basis functions per batch  ...    87.49 (61.61%)
Average number of large shells per batch     ...    31.31 (73.75%)
Average number of large basis fcns per batch ...    64.77 (74.03%)
Maximum spatial batch extension              ...  21.90, 21.99, 21.51 au
Average spatial batch extension              ...   2.44,  2.41,  2.49 au

Time for grid setup =    0.858 sec

--------------
SCF ITERATIONS
--------------
ITER       Energy         Delta-E        Max-DP      RMS-DP      [F,P]   Gradient Norm
               ***  Starting incremental Fock matrix formation  ***
                             ****Resetting KDIIS****
                             ****Turning on KDIIS(Cayley)****
  0   -492.2417774440   0.000000000000 0.00466066  0.00015656  0.0137812   0.014267515
  1   -492.2432680503  -0.001490606317 0.00788026  0.00028144  0.0122528   0.012729816
  2   -492.2454290296  -0.002160979249 0.01301514  0.00048678  0.0101657   0.010482557
  3   -492.2483299091  -0.002900879518 0.02138106  0.00075257  0.0062226   0.006333697
  4   -492.2500607818  -0.001730872744 0.00098970  0.00003514  0.0002029   0.000242975
  5   -492.2500638907  -0.000003108848 0.00030636  0.00001042  0.0000923   0.000117965
                          ***Energy convergence achieved***
  6   -492.2500643016  -0.000000410957 0.00013351  0.00000445  0.0000532   0.000057291

            ***Energy convergence in two consecutive cycles with***
                    ***'reasonable' density convergence***
                       *** signaling convergence ***

                    *** KDIIS BlockDiag (42.165 sec) ***

               *****************************************************
               *                     SUCCESS                       *
               *           SCF CONVERGED AFTER   7 CYCLES          *
[...]
Weight generation scheme         WeightScheme... Becke
Basis function cutoff            BFCut       ...    1.0000e-10
Integration weight cutoff        WCut        ...    1.0000e-14
Grids for H and He will be reduced by one unit

# of grid points (after initial pruning)     ... 150034 (   0.0 sec)
# of grid points (after weights+screening)   ... 140534 (   0.3 sec)
nearest neighbour list constructed           ...    0.0 sec
Grid point re-assignment to atoms done       ...    0.0 sec
Grid point division into batches done        ...    1.0 sec
Reduced shell lists constructed in    1.5 sec

Total number of grid points                  ...   140534
Total number of batches                      ...     2206
Average number of points per batch           ...       63
Average number of grid points per atom       ...     8267
Average number of shells per batch           ...    28.08 (40.11%)
Average number of basis functions per batch  ...    57.55 (40.53%)
Average number of large shells per batch     ...    20.95 (74.62%)
Average number of large basis fcns per batch ...    43.42 (75.46%)
Maximum spatial batch extension              ...  20.65, 22.11, 21.29 au
Average spatial batch extension              ...   2.15,  2.14,  2.17 au

Final grid set up in    1.9 sec
Final integration                            ... done (   1.3 sec)
Change in XC energy                          ...    -0.001502763
Integrated number of electrons               ...    70.000007636
Previous integrated no of electrons          ...    69.999975732
Total Energy       :         -491.99362762 Eh          -13387.82723 eV
  Last Energy change         ...   -7.0330e-08  Tolerance :   1.0000e-06
  Last MAX-Density change    ...    6.9880e-05  Tolerance :   1.0000e-05
             **** THE GBW FILE WAS UPDATED (gly-gly.gbw) ****
             **** DENSITY FILE WAS UPDATED (gly-gly.scfp) ****
             **** ENERGY FILE WAS UPDATED (gly-gly.en.tmp) ****
             **** THE GBW FILE WAS UPDATED (gly-gly.gbw) ****
             **** DENSITY FILE WAS UPDATED (gly-gly.scfp) ****
Total SCF time: 0 days 0 hours 0 min 20 sec 

-------------------------   --------------------
FINAL SINGLE POINT ENERGY      -491.993627621579
-------------------------   --------------------

Storing actual gbw-file in gly-gly.045.gbw ... done

                            ***************************************
                            *     ORCA property calculations      *
                            ***************************************

                                    ---------------------
                                    Active property flags
                                    ---------------------
   (+) Dipole Moment


------------------------------------------------------------------------------
                       ORCA ELECTRIC PROPERTIES CALCULATION
------------------------------------------------------------------------------

Dipole Moment Calculation                       ... on
Quadrupole Moment Calculation                   ... off
Polarizability Calculation                      ... off
GBWName                                         ... gly-gly.gbw
Electron density file                           ... gly-gly.scfp
The origin for moment calculation is the CENTER OF MASS  = ( 0.955643,  7.468289  2.484704)

-------------
DIPOLE MOMENT
-------------
                                X             Y             Z
Electronic contribution:      4.69671       5.47583       2.65236
Nuclear contribution   :     -4.68999      -8.60554      -4.55285
                        -----------------------------------------
Total Dipole Moment    :      0.00672      -3.12971      -1.90049
                        -----------------------------------------
Magnitude (a.u.)       :      3.66156
Magnitude (Debye)      :      9.30694



--------------------
Rotational spectrum 
--------------------
 
Rotational constants in cm-1:     0.078678     0.011040     0.010007 
Rotational constants in MHz :  2358.700240   330.957577   299.991801 

 Dipole components along the rotational axes: 
x,y,z [a.u.] :    -3.497654     0.947528    -0.524991 
x,y,z [Debye]:    -8.890329     2.408426    -1.334422 

 

         *************************************************************
                                TRAJECTORY STEP  46
                  R  :   5.33724000
         *************************************************************
---------------------------------
CARTESIAN COORDINATES (ANGSTROEM)
---------------------------------
  N      0.000000    0.000000    0.000000
  C      1.455340    0.000000    0.000000
  C      2.001036    1.418003    0.000000
  O      3.151019    1.678601   -0.334724
  H      1.805277   -0.470833    0.924790
  H      1.919652   -0.539342   -0.838751
  H     -0.352419    0.235145   -0.922781
  H     -0.356013   -0.918469    0.237627
  N     -1.475862    5.103557    1.677498
  C     -1.203636    6.527420    1.658280
  C     -0.185077    6.967862    2.734981
  O     -0.464899    7.772577    3.577246
  H     -0.781355    6.798721    0.681772
  H     -2.134404    7.071082    1.815575
  H     -2.384491    4.767393    1.966440
  O      1.006132    6.411594    2.630714
  H      1.047633    5.732138    1.903327

----------------------------
CARTESIAN COORDINATES (A.U.)
----------------------------
  NO LB      ZA    FRAG     MASS         X           Y           Z
   0 N     7.0000    0    14.007    0.000000    0.000000    0.000000
   1 C     6.0000    0    12.011    2.750194    0.000000    0.000000
   2 C     6.0000    0    12.011    3.781410    2.679637    0.000000
   3 O     8.0000    0    15.999    5.954564    3.172096   -0.632537
   4 H     1.0000    0     1.008    3.411479   -0.889745    1.747599
   5 H     1.0000    0     1.008    3.627617   -1.019208   -1.585009
   6 H     1.0000    0     1.008   -0.665975    0.444360   -1.743803
   7 H     1.0000    0     1.008   -0.672766   -1.735655    0.449050
   8 N     7.0000    0    14.007   -2.788975    9.644326    3.170012
   9 C     6.0000    0    12.011   -2.274542   12.335037    3.133696
  10 C     6.0000    0    12.011   -0.349746   13.167351    5.168365
  11 O     8.0000    0    15.999   -0.878532   14.688041    6.760015
  12 H     1.0000    0     1.008   -1.476548   12.847721    1.288362
  13 H     1.0000    0     1.008   -4.033440   13.362409    3.430940
  14 H     1.0000    0     1.008   -4.506035    9.009068    3.716032
  15 O     8.0000    0    15.999    1.901314   12.116156    4.971328
  16 H     1.0000    0     1.008    1.979739   10.832170    3.596767

--------------------------------
INTERNAL COORDINATES (ANGSTROEM)
--------------------------------
 N      0   0   0     0.000000000000     0.00000000     0.00000000
 C      1   0   0     1.455340000000     0.00000000     0.00000000
 C      2   1   0     1.519380000000   111.04843000     0.00000000
 O      3   2   1     1.225730000000   122.36988000   198.86400000
 H      2   1   3     1.095160000000   108.63454000   116.98175000
 H      2   1   3     1.099990000000   114.96760000   237.25779000
 H      1   2   3     1.015390000000   110.30864000    75.70402000
 H      1   2   3     1.013310000000   110.56907000   194.50553000
 N      3   2   1     5.337240000000   114.23572000    20.16221000
 C      9   3   2     1.449780000000   123.48397000   185.06417000
 C     10   9   3     1.546200000000   113.21767000   287.54520000
 O     11  10   9     1.198030000000   121.80556000   239.30000000
 H     10   9   3     1.097950000000   109.06786000    46.79225000
 H     10   9   3     1.089330000000   109.13556000   166.37548000
 H      9   3   2     1.010990000000   116.46823000     1.30185000
 O     11  10   9     1.318820000000   114.82224000    60.62897000
 H     16  11  10     0.996230000000   112.52129000   355.72700000

---------------------------
INTERNAL COORDINATES (A.U.)
---------------------------
 N      0   0   0     0.000000000000     0.00000000     0.00000000
 C      1   0   0     2.750194031741     0.00000000     0.00000000
 C      2   1   0     2.871212093357   111.04843000     0.00000000
 O      3   2   1     2.316294014131   122.36988000   198.86400000
 H      2   1   3     2.069552472825   108.63454000   116.98175000
 H      2   1   3     2.078679850052   114.96760000   237.25779000
 H      1   2   3     1.918809019122   110.30864000    75.70402000
 H      1   2   3     1.914878388764   110.56907000   194.50553000
 N      3   2   1    10.085921911010   114.23572000    20.16221000
 C      9   3   2     2.739687154436   123.48397000   185.06417000
 C     10   9   3     2.921894548269   113.21767000   287.54520000
 O     11  10   9     2.263948600222   121.80556000   239.30000000
 H     10   9   3     2.074824808739   109.06786000    46.79225000
 H     10   9   3     2.058535369464   109.13556000   166.37548000
 H      9   3   2     1.910494224133   116.46823000     1.30185000
 O     11  10   9     2.492208619938   114.82224000    60.62897000
 H     16  11  10     1.882601866396   112.52129000   355.72700000


Diagonalization of the overlap matrix:
Smallest eigenvalue                        ... 5.527e-03
Time for diagonalization                   ...    0.004 sec
Threshold for overlap eigenvalues          ... 1.000e-08
Number of eigenvalues below threshold      ... 0
Time for construction of square roots      ...    0.001 sec
Total time needed                          ...    0.004 sec

-------------------
DFT GRID GENERATION
-------------------

General Integration Accuracy     IntAcc      ...  4.670
Radial Grid Type                 RadialGrid  ... Gauss-Chebyshev
Angular Grid (max. acc.)         AngularGrid ... Lebedev-302
Angular grid pruning method      GridPruning ... 3 (G Style)
Weight generation scheme         WeightScheme... Becke
Basis function cutoff            BFCut       ...    1.0000e-10
Integration weight cutoff        WCut        ...    1.0000e-14
Grids for H and He will be reduced by one unit

# of grid points (after initial pruning)     ...  83060 (   0.0 sec)
# of grid points (after weights+screening)   ...  77982 (   0.2 sec)
nearest neighbour list constructed           ...    0.0 sec
Grid point re-assignment to atoms done       ...    0.0 sec
Grid point division into batches done        ...    0.3 sec
Reduced shell lists constructed in    0.6 sec

Total number of grid points                  ...    77982
Total number of batches                      ...     1228
Average number of points per batch           ...       63
Average number of grid points per atom       ...     4587
Average number of shells per batch           ...    28.88 (41.25%)
Average number of basis functions per batch  ...    59.31 (41.77%)
Average number of large shells per batch     ...    21.70 (75.16%)
Average number of large basis fcns per batch ...    45.06 (75.99%)
Maximum spatial batch extension              ...  22.94, 18.04, 20.67 au
Average spatial batch extension              ...   2.61,  2.61,  2.67 au

Time for grid setup =    0.794 sec

--------------
SCF ITERATIONS
--------------
ITER       Energy         Delta-E        Max-DP      RMS-DP      [F,P]   Gradient Norm
               ***  Starting incremental Fock matrix formation  ***
                             ****Resetting KDIIS****
                             ****Turning on KDIIS(Cayley)****
  0   -491.9912569244   0.000000000000 0.00007472  0.00000301  0.0002589   0.000105272
                          ***Energy convergence achieved***
  1   -491.9912571092  -0.000000184807 0.00015803  0.00000625  0.0002365   0.000095391
  2   -491.9912574297  -0.000000320492 0.00032112  0.00001185  0.0001916   0.000081344
  3   -491.9912579540  -0.000000524226 0.00055721  0.00002013  0.0001128   0.000048693

            ***Energy convergence in two consecutive cycles with***
                    ***'reasonable' density convergence***
                       *** signaling convergence ***

                    *** KDIIS BlockDiag (14.525 sec) ***

               *****************************************************
               *                     SUCCESS                       *
               *           SCF CONVERGED AFTER   4 CYCLES          *
               *****************************************************

Setting up the final grid:

General Integration Accuracy     IntAcc      ...  5.010
Radial Grid Type                 RadialGrid  ... Gauss-Chebyshev
Angular Grid (max. acc.)         AngularGrid ... Lebedev-434
Angular grid pruning method      GridPruning ... 3 (G Style)
Weight generation scheme         WeightScheme... Becke
Basis function cutoff            BFCut       ...    1.0000e-10
Integration weight cutoff        WCut        ...    1.0000e-14
Grids for H and He will be reduced by one unit

# of grid points (after initial pruning)     ... 150034 (   0.0 sec)
# of grid points (after weights+screening)   ... 140595 (   0.3 sec)
nearest neighbour list constructed           ...    0.0 sec
Grid point re-assignment to atoms done       ...    0.0 sec
Grid point division into batches done        ...    1.0 sec
Reduced shell lists constructed in    1.5 sec

Total number of grid points                  ...   140595
Total number of batches                      ...     2205
Average number of points per batch           ...       63
Average number of grid points per atom       ...     8270
Average number of shells per batch           ...    27.85 (39.78%)
Average number of basis functions per batch  ...    57.16 (40.25%)
Average number of large shells per batch     ...    20.90 (75.05%)
Average number of large basis fcns per batch ...    43.35 (75.83%)
Maximum spatial batch extension              ...  20.65, 22.12, 21.10 au
Average spatial batch extension              ...   2.16,  2.15,  2.19 au

Final grid set up in    1.8 sec
Final integration                            ... done (   1.3 sec)
Change in XC energy                          ...    -0.001503049
Integrated number of electrons               ...    70.000007739
Previous integrated no of electrons          ...    69.999974885
Total Energy       :         -491.99276142 Eh          -13387.80366 eV
  Last Energy change         ...   -4.2026e-07  Tolerance :   1.0000e-06
  Last MAX-Density change    ...    7.9392e-05  Tolerance :   1.0000e-05
             **** THE GBW FILE WAS UPDATED (gly-gly.gbw) ****
             **** DENSITY FILE WAS UPDATED (gly-gly.scfp) ****
             **** ENERGY FILE WAS UPDATED (gly-gly.en.tmp) ****
             **** THE GBW FILE WAS UPDATED (gly-gly.gbw) ****
             **** DENSITY FILE WAS UPDATED (gly-gly.scfp) ****
Total SCF time: 0 days 0 hours 0 min 17 sec 

-------------------------   --------------------
FINAL SINGLE POINT ENERGY      -491.992761422977
-------------------------   --------------------

Storing actual gbw-file in gly-gly.046.gbw ... done

                            ***************************************
                            *     ORCA property calculations      *
                            ***************************************

                                    ---------------------
                                    Active property flags
                                    ---------------------
   (+) Dipole Moment


------------------------------------------------------------------------------
                       ORCA ELECTRIC PROPERTIES CALCULATION
------------------------------------------------------------------------------

Dipole Moment Calculation                       ... on
Quadrupole Moment Calculation                   ... off
Polarizability Calculation                      ... off
GBWName                                         ... gly-gly.gbw
Electron density file                           ... gly-gly.scfp
The origin for moment calculation is the CENTER OF MASS  = ( 0.886637,  7.541436  2.517998)

-------------
DIPOLE MOMENT
-------------
                                X             Y             Z
Electronic contribution:      4.68965       5.48513       2.65691
Nuclear contribution   :     -4.66065      -8.63664      -4.56701
                        -----------------------------------------
Total Dipole Moment    :      0.02900      -3.15152      -1.91010
                        -----------------------------------------
Magnitude (a.u.)       :      3.68529
Magnitude (Debye)      :      9.36727



--------------------
Rotational spectrum 
--------------------
 
Rotational constants in cm-1:     0.078446     0.010763     0.009775 
Rotational constants in MHz :  2351.760786   322.657015   293.050085 

 Dipole components along the rotational axes: 
x,y,z [a.u.] :     3.519548    -0.958495    -0.524833 
x,y,z [Debye]:     8.945981    -2.436300    -1.334019 

 
                              **** TRAJECTORY DONE ***

                         SUMMARY OF THE CALCULATED SURFACE

------------------
TRAJECTORY RESULTS
------------------

Column   1: R

The Calculated Surface using the 'Actual Energy'
   0.83724000 -491.50978691
   0.93724000 -491.91810759
   1.03724000 -492.13889165
   1.13724000 -492.25136778
   1.23724000 -492.30115291
   1.33724000 -492.31498313
   1.43724000 -492.30873341
   1.53724000 -492.29177659
   1.63724000 -492.26972829
   1.73724000 -492.24588603
   1.83724000 -492.22204688
   1.93724000 -492.19919007
   2.03724000 -492.17777230
   2.13724000 -492.15802338
   2.23724000 -492.13995883
   2.33724000 -492.12349153
   2.43724000 -492.10849625
   2.53724000 -492.09489503
   2.63724000 -492.08260375
   2.73724000 -492.07154078
   2.83724000 -492.06174213
   2.93724000 -492.05329584
   3.03724000 -492.04613892
   3.13724000 -492.04008965
   3.23724000 -492.03490455
   3.33724000 -492.03037188
   3.43724000 -492.02635611
   3.53724000 -492.02278216
   3.63724000 -492.01956941
   3.73724000 -492.01665678
   3.83724000 -492.01401925
   3.93724000 -492.01162734
   4.03724000 -492.00945669
   4.13724000 -492.00749081
   4.23724000 -492.00570233
   4.33724000 -492.00406205
   4.43724000 -492.00255853
   4.53724000 -492.00116987
   4.63724000 -491.99988033
   4.73724000 -491.99867773
   4.83724000 -491.99755115
   4.93724000 -491.99648983
   5.03724000 -491.99548702
   5.13724000 -491.99453443
   5.23724000 -491.99362762
   5.33724000 -491.99276142

The Calculated Surface using the SCF energy
   0.83724000 -491.50978691
   0.93724000 -491.91810759
   1.03724000 -492.13889165
   1.13724000 -492.25136778
   1.23724000 -492.30115291
   1.33724000 -492.31498313
   1.43724000 -492.30873341
   1.53724000 -492.29177659
   1.63724000 -492.26972829
   1.73724000 -492.24588603
   1.83724000 -492.22204688
   1.93724000 -492.19919007
   2.03724000 -492.17777230
   2.13724000 -492.15802338
   2.23724000 -492.13995883
   2.33724000 -492.12349153
   2.43724000 -492.10849625
   2.53724000 -492.09489503
   2.63724000 -492.08260375
   2.73724000 -492.07154078
   2.83724000 -492.06174213
   2.93724000 -492.05329584
   3.03724000 -492.04613892
   3.13724000 -492.04008965
   3.23724000 -492.03490455
   3.33724000 -492.03037188
   3.43724000 -492.02635611
   3.53724000 -492.02278216
   3.63724000 -492.01956941
   3.73724000 -492.01665678
   3.83724000 -492.01401925
   3.93724000 -492.01162734
   4.03724000 -492.00945669
   4.13724000 -492.00749081
   4.23724000 -492.00570233
   4.33724000 -492.00406205
   4.43724000 -492.00255853
   4.53724000 -492.00116987
   4.63724000 -491.99988033
   4.73724000 -491.99867773
   4.83724000 -491.99755115
   4.93724000 -491.99648983
   5.03724000 -491.99548702
   5.13724000 -491.99453443
   5.23724000 -491.99362762
   5.33724000 -491.99276142


Timings for individual modules:

Sum of individual times         ...     1719.643 sec (=  28.661 min)
GTO integral calculation        ...       12.194 sec (=   0.203 min)   0.7 %
SCF iterations                  ...     1707.449 sec (=  28.457 min)  99.3 %
                             ****ORCA TERMINATED NORMALLY****
TOTAL RUN TIME: 0 days 0 hours 28 minutes 45 seconds 492 msec
