
                                 *****************
                                 * O   R   C   A *
                                 *****************

           --- An Ab Initio, DFT and Semiempirical electronic structure package ---

                  #######################################################
                  #                        -***-                        #
                  #          Department of theory and spectroscopy      #
                  #               Directorship: Frank Neese             #
                  #        Max Planck Institute fuer Kohlenforschung    #
                  #                Kaiser Wilhelm Platz 1               #
                  #                 D-45470 Muelheim/Ruhr               #
                  #                      Germany                        #
                  #                                                     #
                  #                  All rights reserved                #
                  #                        -***-                        #
                  #######################################################


                         Program Version 4.2.0 -  RELEASE  -


 With contributions from (in alphabetic order):
   Daniel Aravena         : Magnetic Suceptibility
   Michael Atanasov       : Ab Initio Ligand Field Theory (pilot matlab implementation)
   Alexander A. Auer      : GIAO ZORA, VPT2
   Ute Becker             : Parallelization
   Giovanni Bistoni       : ED, misc. LED, open-shell LED, HFLED
   Martin Brehm           : Molecular dynamics
   Dmytro Bykov           : SCF Hessian
   Vijay G. Chilkuri      : MRCI spin determinant printing, contributions to CSF-ICE
   Dipayan Datta          : RHF DLPNO-CCSD density
   Achintya Kumar Dutta   : EOM-CC, STEOM-CC
   Dmitry Ganyushin       : Spin-Orbit,Spin-Spin,Magnetic field MRCI
   Miquel Garcia          : C-PCM Hessian, Gaussian charge scheme
   Yang Guo               : DLPNO-NEVPT2, CIM, IAO-localization
   Andreas Hansen         : Spin unrestricted coupled pair/coupled cluster methods
   Benjamin Helmich-Paris : CASSCF linear response (MC-RPA)
   Lee Huntington         : MR-EOM, pCC
   Robert Izsak           : Overlap fitted RIJCOSX, COSX-SCS-MP3, EOM
   Christian Kollmar      : KDIIS, OOCD, Brueckner-CCSD(T), CCSD density
   Simone Kossmann        : Meta GGA functionals, TD-DFT gradient, OOMP2, MP2 Hessian
   Martin Krupicka        : AUTO-CI
   Lucas Lang             : DCDCAS
   Dagmar Lenk            : GEPOL surface, SMD
   Dimitrios Liakos       : Extrapolation schemes; Compound Job, initial MDCI parallelization
   Dimitrios Manganas     : Further ROCIS development; embedding schemes
   Dimitrios Pantazis     : SARC Basis sets
   Taras Petrenko         : DFT Hessian,TD-DFT gradient, ASA, ECA, R-Raman, ABS, FL, XAS/XES, NRVS
   Peter Pinski           : DLPNO-MP2, DLPNO-MP2 Gradient
   Christoph Reimann      : Effective Core Potentials
   Marius Retegan         : Local ZFS, SOC
   Christoph Riplinger    : Optimizer, TS searches, QM/MM, DLPNO-CCSD(T), (RO)-DLPNO pert. Triples
   Tobias Risthaus        : Range-separated hybrids, TD-DFT gradient, RPA, STAB
   Michael Roemelt        : Original ROCIS implementation
   Masaaki Saitow         : Open-shell DLPNO-CCSD energy and density
   Barbara Sandhoefer     : DKH picture change effects
   Avijit Sen             : IP-ROCIS
   Kantharuban Sivalingam : CASSCF convergence, NEVPT2, FIC-MRCI
   Bernardo de Souza      : ESD, SOC TD-DFT
   Georgi Stoychev        : AutoAux, RI-MP2 NMR
   Willem Van den Heuvel  : Paramagnetic NMR
   Boris Wezisla          : Elementary symmetry handling
   Frank Wennmohs         : Technical directorship


 We gratefully acknowledge several colleagues who have allowed us to
 interface, adapt or use parts of their codes:
   Stefan Grimme, W. Hujo, H. Kruse,             : VdW corrections, initial TS optimization,
                  C. Bannwarth                     DFT functionals, gCP, sTDA/sTD-DF
   Ed Valeev, F. Pavosevic, A. Kumar             : LibInt (2-el integral package), F12 methods
   Garnet Chan, S. Sharma, J. Yang, R. Olivares  : DMRG
   Ulf Ekstrom                                   : XCFun DFT Library
   Mihaly Kallay                                 : mrcc  (arbitrary order and MRCC methods)
   Andreas Klamt, Michael Diedenhofen            : otool_cosmo (COSMO solvation model)
   Jiri Pittner, Ondrej Demel                    : Mk-CCSD
   Frank Weinhold                                : gennbo (NPA and NBO analysis)
   Christopher J. Cramer and Donald G. Truhlar   : smd solvation model
   Lars Goerigk                                  : TD-DFT with DH, B97 family of functionals
   V. Asgeirsson, H. Jonsson                     : NEB implementation
   FAccTs GmbH                                   : IRC, NEB, NEB-TS, Multilevel, MM, QM/MM, CI optimization
   S Lehtola, MJT Oliveira, MAL Marques          : LibXC Library


 Your calculation uses the libint2 library for the computation of 2-el integrals
 For citations please refer to: http://libint.valeyev.net

 Your ORCA version has been built with support for libXC version: 4.2.3
 For citations please refer to: https://tddft.org/programs/libxc/

 This ORCA versions uses:
   CBLAS   interface :  Fast vector & matrix operations
   LAPACKE interface :  Fast linear algebra routines
   SCALAPACK package :  Parallel linear algebra routines


XCFun DFT library Copyright 2009-2010 Ulf Ekstrom and contributors.
See http://admol.org/xcfun for more information. This is free soft-
ware; see the source code for copying conditions. There is ABSOLUTELY
NO WARRANTY; not even for MERCHANTABILITY or FITNESS FOR A PARTICULAR
PURPOSE. For details see the documentation. Scientific users of this 
library should cite U. Ekstrom, L. Visscher, R. Bast, A. J. Thorvald-
sen and K. Ruud; J.Chem.Theor.Comp. 2010, DOI: 10.1021/ct100117s
XCFun Version 0.99 
----- Orbital basis set information -----
Your calculation utilizes the basis: 6-31G(d)
   H-He, Li-Ne : W. J. Hehre, R. Ditchfield and J.A. Pople, J. Chem. Phys. 56, 2257 (1972).
                 Note: He and Ne are unpublished basis sets taken from the Gaussian program.
                 Note: Li and B from J. D. Dill and J. A. Pople, J. Chem. Phys. 62, 2921 (1975).
   Na - Ar     : M. M. Francl, W. J. Pietro, W. J. Hehre, J. S. Binkley, M. S. Gordon, 
                 D. J. DeFrees and J. A. Pople, J. Chem. Phys. 77, 3654 (1982).
   K - Zn      : V. A. Rassolov, J. A. Pople, M. A. Ratner, and T. L. Windus, J. Chem. Phys. 109, 1223 (1998).

================================================================================
                                        WARNINGS
                       Please study these warnings very carefully!
================================================================================


INFO   : the flag for use of LIBINT has been found!

================================================================================
                                       INPUT FILE
================================================================================
NAME = H2.inp
|  1> ! wB97X 6-31G(d)  KDIIS NOSOSCF VerySlowConv Grid4
|  2> %paras
|  3> R= 0.2772,4.772,46
|  4> end
|  5> * xyz 0  1
|  6> H 0 0 0
|  7> H 0 0 {R}
|  8> *
|  9> 
| 10>                          ****END OF INPUT****
================================================================================

                       ******************************
                       * Parameter Scan Calculation *
                       ******************************

Trajectory settings:
    -> SCF surface will be mapped

There are 1 parameter(s) to be scanned
             R: range=   0.27720000 ..   4.77200000  steps=   46
There will be   46 energy evaluations


         *************************************************************
                                TRAJECTORY STEP   1
                  R  :   0.27720000
         *************************************************************
---------------------------------
CARTESIAN COORDINATES (ANGSTROEM)
---------------------------------
  H      0.000000    0.000000    0.000000
  H      0.000000    0.000000    0.277200

----------------------------
CARTESIAN COORDINATES (A.U.)
----------------------------
  NO LB      ZA    FRAG     MASS         X           Y           Z
   0 H     1.0000    0     1.008    0.000000    0.000000    0.000000
   1 H     1.0000    0     1.008    0.000000    0.000000    0.523832

--------------------------------
INTERNAL COORDINATES (ANGSTROEM)
--------------------------------
 H      0   0   0     0.000000000000     0.00000000     0.00000000
 H      1   0   0     0.277200000000     0.00000000     0.00000000

---------------------------
INTERNAL COORDINATES (A.U.)
---------------------------
 H      0   0   0     0.000000000000     0.00000000     0.00000000
 H      1   0   0     0.523832084323     0.00000000     0.00000000

---------------------
BASIS SET INFORMATION
---------------------
There are 1 groups of distinct atoms

 Group   1 Type H   : 4s contracted to 2s pattern {31}

Atom   0H    basis set group =>   1
Atom   1H    basis set group =>   1
------------------------------------------------------------------------------
                           ORCA GTO INTEGRAL CALCULATION
------------------------------------------------------------------------------

                         BASIS SET STATISTICS AND STARTUP INFO

 # of primitive gaussian shells          ...    8
 # of primitive gaussian functions       ...    8
 # of contracted shells                  ...    4
 # of contracted basis functions         ...    4
 Highest angular momentum                ...    0
 Maximum contraction depth               ...    3
 Integral package used                   ... LIBINT
 Integral threshhold            Thresh   ...  1.000e-10
 Primitive cut-off              TCut     ...  1.000e-11


------------------------------ INTEGRAL EVALUATION ----------------------------


 * One electron integrals 
 Pre-screening matrix                    ... done
 Shell pair data                         ... done (   0.000 sec)

-------------------------------------------------------------------------------
                                 ORCA SCF
-------------------------------------------------------------------------------

------------
SCF SETTINGS
------------
Hamiltonian:
 Density Functional     Method          .... DFT(GTOs)
 Exchange Functional    Exchange        .... WB97X
 Correlation Functional Correlation     .... WB97X
 Gradients option       PostSCFGGA      .... off
 Hybrid DFT is turned on
   Fraction HF Exchange ScalHFX         ....  0.157706
   Scaling of DF-GGA-X  ScalDFX         ....  0.000000
   Scaling of DF-GGA-C  ScalDFC         ....  1.000000
   Scaling of DF-LDA-C  ScalLDAC        ....  1.000000
   Perturbative correction              ....  0.000000
   Density functional embedding theory  .... OFF
 Long-range corrected/Screened/Range-Separated Hybrid DFT is turned on
   Amount of maximum screened exact exchange              ....  0.842294
   Range separation parameter mu (erf(mu*r12)/r12)        ....  0.300000


General Settings:
 Integral files         IntName         .... H2
 Hartree-Fock type      HFTyp           .... RHF
 Total Charge           Charge          ....    0
 Multiplicity           Mult            ....    1
 Number of Electrons    NEL             ....    2
 Basis Dimension        Dim             ....    4
 Nuclear Repulsion      ENuc            ....      1.9090086880 Eh

Convergence Acceleration:
 DIIS                   CNVDIIS         .... on
   Start iteration      DIISMaxIt       ....     0
   Startup error        DIISStart       ....  0.200000
   # of expansion vecs  DIISMaxEq       ....     5
   Bias factor          DIISBfac        ....   1.050
   Max. coefficient     DIISMaxC        ....  10.000
 Newton-Raphson         CNVNR           .... off
 SOSCF                  CNVSOSCF        .... off
 Level Shifting         CNVShift        .... off
 Zerner damping         CNVZerner       .... off
 Static damping         CNVDamp         .... off
 Fernandez-Rico         CNVRico         .... off

SCF Procedure:
 Maximum # iterations   MaxIter         ....   125
 SCF integral mode      SCFMode         .... Direct
   Integral package                     .... LIBINT
 Reset frequency        DirectResetFreq ....    20
 Integral Threshold     Thresh          ....  1.000e-10 Eh
 Primitive CutOff       TCut            ....  1.000e-11 Eh

Convergence Tolerance:
 Convergence Check Mode ConvCheckMode   .... All-Criteria
 Convergence forced     ConvForced      .... 0
 Energy Change          TolE            ....  1.000e-06 Eh
 Max Density Change     TolMaxP         ....  1.000e-05
 RMS Density Change     TolRMSP         ....  1.000e-06
 DIIS Error             TolErr          ....  1.000e-06


Diagonalization of the overlap matrix:
Smallest eigenvalue                        ... 1.638e-02
Time for diagonalization                   ...    0.000 sec
Threshold for overlap eigenvalues          ... 1.000e-08
Number of eigenvalues below threshold      ... 0
Time for construction of square roots      ...    0.000 sec
Total time needed                          ...    0.001 sec

-------------------
DFT GRID GENERATION
-------------------

General Integration Accuracy     IntAcc      ...  4.670
Radial Grid Type                 RadialGrid  ... Gauss-Chebyshev
Angular Grid (max. acc.)         AngularGrid ... Lebedev-302
Angular grid pruning method      GridPruning ... 3 (G Style)
Weight generation scheme         WeightScheme... Becke
Basis function cutoff            BFCut       ...    1.0000e-10
Integration weight cutoff        WCut        ...    1.0000e-14
Grids for H and He will be reduced by one unit

# of grid points (after initial pruning)     ...   6788 (   0.0 sec)
# of grid points (after weights+screening)   ...   6750 (   0.0 sec)
nearest neighbour list constructed           ...    0.0 sec
Grid point re-assignment to atoms done       ...    0.0 sec
Grid point division into batches done        ...    0.0 sec
Reduced shell lists constructed in    0.0 sec

Total number of grid points                  ...     6750
Total number of batches                      ...      106
Average number of points per batch           ...       63
Average number of grid points per atom       ...     3375
Average number of shells per batch           ...     3.71 (92.76%)
Average number of basis functions per batch  ...     3.71 (92.76%)
Average number of large shells per batch     ...     3.62 (97.48%)
Average number of large basis fcns per batch ...     3.62 (97.48%)
Maximum spatial batch extension              ...  15.43, 15.43, 13.36 au
Average spatial batch extension              ...   3.73,  3.64,  3.09 au

Time for grid setup =    0.024 sec

------------------------------
INITIAL GUESS: MODEL POTENTIAL
------------------------------
Loading Hartree-Fock densities                     ... done
Calculating cut-offs                               ... done
Setting up the integral package                    ... done
Initializing the effective Hamiltonian             ... done
Starting the Coulomb interaction                   ... done (   0.0 sec)
Reading the grid                                   ... done
Mapping shells                                     ... done
Starting the XC term evaluation                    ... done (   0.0 sec)
  promolecular density results
     # of electrons  =      1.999019967
     EX              =     -0.600112263
     EC              =     -0.042187857
     EX+EC           =     -0.642300120
Transforming the Hamiltonian                       ... done (   0.0 sec)
Diagonalizing the Hamiltonian                      ... done (   0.0 sec)
Back transforming the eigenvectors                 ... done (   0.0 sec)
Now organizing SCF variables                       ... done
                      ------------------
                      INITIAL GUESS DONE (   0.1 sec)
                      ------------------
--------------
SCF ITERATIONS
--------------
ITER       Energy         Delta-E        Max-DP      RMS-DP      [F,P]   Gradient Norm
               ***  Starting incremental Fock matrix formation  ***
                             ****Resetting KDIIS****
                             ****Turning on KDIIS(Cayley)****
  0     -0.5548875357   0.000000000000 0.00745609  0.00347225  0.0926905   0.092690501
  1     -0.5576665208  -0.002778985175 0.01414739  0.00656059  0.0842749   0.084274878
Warning: badly conditioned DIIS matrix, 1 vectors out of 3 destroyed
  2     -0.5622240265  -0.004557505633 0.02256264  0.01040132  0.0680316   0.068031564
Warning: badly conditioned DIIS matrix, 1 vectors out of 3 destroyed
  3     -0.5674918516  -0.005267825115 0.03357212  0.01538972  0.0413864   0.041386396
Warning: badly conditioned DIIS matrix, 1 vectors out of 3 destroyed
  4     -0.5705197255  -0.003027873928 0.00005564  0.00002548  0.0000700   0.000069982
Warning: badly conditioned DIIS matrix, 1 vectors out of 3 destroyed
                          ***Energy convergence achieved***
                           ***RMSP convergence achieved***
                           ***MAXP convergence achieved***
                    *** KDIIS BlockDiag ( 0.790 sec) ***

               *****************************************************
               *                     SUCCESS                       *
               *           SCF CONVERGED AFTER   5 CYCLES          *
               *****************************************************

Setting up the final grid:

General Integration Accuracy     IntAcc      ...  5.010
Radial Grid Type                 RadialGrid  ... Gauss-Chebyshev
Angular Grid (max. acc.)         AngularGrid ... Lebedev-434
Angular grid pruning method      GridPruning ... 3 (G Style)
Weight generation scheme         WeightScheme... Becke
Basis function cutoff            BFCut       ...    1.0000e-10
Integration weight cutoff        WCut        ...    1.0000e-14
Grids for H and He will be reduced by one unit

# of grid points (after initial pruning)     ...  13384 (   0.0 sec)
# of grid points (after weights+screening)   ...  13316 (   0.0 sec)
nearest neighbour list constructed           ...    0.0 sec
Grid point re-assignment to atoms done       ...    0.0 sec
Grid point division into batches done        ...    0.1 sec
Reduced shell lists constructed in    0.1 sec

Total number of grid points                  ...    13316
Total number of batches                      ...      210
Average number of points per batch           ...       63
Average number of grid points per atom       ...     6658
Average number of shells per batch           ...     3.65 (91.23%)
Average number of basis functions per batch  ...     3.65 (91.23%)
Average number of large shells per batch     ...     3.56 (97.53%)
Average number of large basis fcns per batch ...     3.56 (97.53%)
Maximum spatial batch extension              ...  15.01, 15.01, 13.35 au
Average spatial batch extension              ...   3.19,  3.17,  2.55 au

Final grid set up in    0.1 sec
Final integration                            ... done (   0.1 sec)
Change in XC energy                          ...     0.000003304
Integrated number of electrons               ...     1.999999728
Previous integrated no of electrons          ...     1.999998311

----------------
TOTAL SCF ENERGY
----------------

Total Energy       :           -0.57051643 Eh             -15.52454 eV

Components:
Nuclear Repulsion  :            1.90900869 Eh              51.94677 eV
Electronic Energy  :           -2.47952512 Eh             -67.47131 eV
One Electron Energy:           -3.31844455 Eh             -90.29947 eV
Two Electron Energy:            0.83891943 Eh              22.82816 eV

Virial components:
Potential Energy   :           -2.43262511 Eh             -66.19509 eV
Kinetic Energy     :            1.86210868 Eh              50.67055 eV
Virial Ratio       :            1.30638192


DFT components:
N(Alpha)           :        0.999999864047 electrons
N(Beta)            :        0.999999864047 electrons
N(Total)           :        1.999999728093 electrons
E(XC)              :       -0.506649821893 Eh       
DFET-embed. en.    :        0.000000000000 Eh       

---------------
SCF CONVERGENCE
---------------

  Last Energy change         ...   -8.5094e-09  Tolerance :   1.0000e-06
  Last MAX-Density change    ...    1.1685e-07  Tolerance :   1.0000e-05
  Last RMS-Density change    ...    5.3346e-08  Tolerance :   1.0000e-06
  Last DIIS Error            ...    1.4684e-07  Tolerance :   1.0000e-06

             **** THE GBW FILE WAS UPDATED (H2.gbw) ****
             **** DENSITY FILE WAS UPDATED (H2.scfp) ****
             **** ENERGY FILE WAS UPDATED (H2.en.tmp) ****
             **** THE GBW FILE WAS UPDATED (H2.gbw) ****
             **** DENSITY FILE WAS UPDATED (H2.scfp) ****
----------------
ORBITAL ENERGIES
----------------

  NO   OCC          E(Eh)            E(eV) 
   0   2.0000      -0.671213       -18.2646 
   1   0.0000       0.331474         9.0199 
   2   0.0000       0.550382        14.9767 
   3   0.0000       2.381897        64.8147 

                    ********************************
                    * MULLIKEN POPULATION ANALYSIS *
                    ********************************

-----------------------
MULLIKEN ATOMIC CHARGES
-----------------------
   0 H :    0.000000
   1 H :   -0.000000
Sum of atomic charges:    0.0000000

--------------------------------
MULLIKEN REDUCED ORBITAL CHARGES
--------------------------------
  0 H s       :     1.000000  s :     1.000000
  1 H s       :     1.000000  s :     1.000000


                     *******************************
                     * LOEWDIN POPULATION ANALYSIS *
                     *******************************

----------------------
LOEWDIN ATOMIC CHARGES
----------------------
   0 H :    0.000000
   1 H :   -0.000000

-------------------------------
LOEWDIN REDUCED ORBITAL CHARGES
-------------------------------
  0 H s       :     1.000000  s :     1.000000
  1 H s       :     1.000000  s :     1.000000


                      *****************************
                      * MAYER POPULATION ANALYSIS *
                      *****************************

  NA   - Mulliken gross atomic population
  ZA   - Total nuclear charge
  QA   - Mulliken gross atomic charge
  VA   - Mayer's total valence
  BVA  - Mayer's bonded valence
  FA   - Mayer's free valence

  ATOM       NA         ZA         QA         VA         BVA        FA
  0 H      1.0000     1.0000     0.0000     1.0000     1.0000     0.0000
  1 H      1.0000     1.0000    -0.0000     1.0000     1.0000     0.0000

  Mayer bond orders larger than 0.100000
B(  0-H ,  1-H ) :   1.0000 

-------
TIMINGS
-------

Total SCF time: 0 days 0 hours 0 min 0 sec 

Total time                  ....       0.932 sec
Sum of individual times     ....       0.792 sec  ( 85.0%)

Fock matrix formation       ....       0.597 sec  ( 64.0%)
  XC integration            ....       0.248 sec  ( 41.6% of F)
    Basis function eval.    ....       0.019 sec  (  7.6% of XC)
    Density eval.           ....       0.012 sec  (  5.0% of XC)
    XC-Functional eval.     ....       0.202 sec  ( 81.4% of XC)
    XC-Potential eval.      ....       0.003 sec  (  1.3% of XC)
Diagonalization             ....       0.001 sec  (  0.1%)
Density matrix formation    ....       0.000 sec  (  0.0%)
Population analysis         ....       0.000 sec  (  0.0%)
Initial guess               ....       0.091 sec  (  9.7%)
Orbital Transformation      ....       0.000 sec  (  0.0%)
Orbital Orthonormalization  ....       0.000 sec  (  0.0%)
DIIS solution               ....       0.000 sec  (  0.0%)
Grid generation             ....       0.103 sec  ( 11.1%)

-------------------------   --------------------
FINAL SINGLE POINT ENERGY        -0.570516430505
-------------------------   --------------------

Storing actual gbw-file in H2.001.gbw ... done

                            ***************************************
                            *     ORCA property calculations      *
                            ***************************************

                                    ---------------------
                                    Active property flags
                                    ---------------------
   (+) Dipole Moment


------------------------------------------------------------------------------
                       ORCA ELECTRIC PROPERTIES CALCULATION
------------------------------------------------------------------------------

Dipole Moment Calculation                       ... on
Quadrupole Moment Calculation                   ... off
Polarizability Calculation                      ... off
GBWName                                         ... H2.gbw
Electron density file                           ... H2.scfp
The origin for moment calculation is the CENTER OF MASS  = ( 0.000000,  0.000000  0.261916)

-------------
DIPOLE MOMENT
-------------
                                X             Y             Z
Electronic contribution:     -0.00000      -0.00000      -0.00000
Nuclear contribution   :      0.00000       0.00000       0.00000
                        -----------------------------------------
Total Dipole Moment    :      0.00000       0.00000      -0.00000
                        -----------------------------------------
Magnitude (a.u.)       :      0.00000
Magnitude (Debye)      :      0.00000



--------------------
Rotational spectrum 
--------------------
 
Rotational constants in cm-1:     0.000000   435.291225   435.291225 
Rotational constants in MHz :     0.000000 13049702.639596 13049702.639596 

 Dipole components along the rotational axes: 
x,y,z [a.u.] :    -0.000000     0.000000     0.000000 
x,y,z [Debye]:    -0.000000     0.000000     0.000000 

 

         *************************************************************
                                TRAJECTORY STEP   2
                  R  :   0.37708444
         *************************************************************
---------------------------------
CARTESIAN COORDINATES (ANGSTROEM)
---------------------------------
  H      0.000000    0.000000    0.000000
  H      0.000000    0.000000    0.377084

----------------------------
CARTESIAN COORDINATES (A.U.)
----------------------------
  NO LB      ZA    FRAG     MASS         X           Y           Z
   0 H     1.0000    0     1.008    0.000000    0.000000    0.000000
   1 H     1.0000    0     1.008    0.000000    0.000000    0.712586

--------------------------------
INTERNAL COORDINATES (ANGSTROEM)
--------------------------------
 H      0   0   0     0.000000000000     0.00000000     0.00000000
 H      1   0   0     0.377084444444     0.00000000     0.00000000

---------------------------
INTERNAL COORDINATES (A.U.)
---------------------------
 H      0   0   0     0.000000000000     0.00000000     0.00000000
 H      1   0   0     0.712586329362     0.00000000     0.00000000


Diagonalization of the overlap matrix:
Smallest eigenvalue                        ... 2.944e-02
Time for diagonalization                   ...    0.000 sec
Threshold for overlap eigenvalues          ... 1.000e-08
Number of eigenvalues below threshold      ... 0
Time for construction of square roots      ...    0.000 sec
Total time needed                          ...    0.001 sec

-------------------
DFT GRID GENERATION
-------------------

General Integration Accuracy     IntAcc      ...  4.670
Radial Grid Type                 RadialGrid  ... Gauss-Chebyshev
Angular Grid (max. acc.)         AngularGrid ... Lebedev-302
Angular grid pruning method      GridPruning ... 3 (G Style)
Weight generation scheme         WeightScheme... Becke
Basis function cutoff            BFCut       ...    1.0000e-10
Integration weight cutoff        WCut        ...    1.0000e-14
Grids for H and He will be reduced by one unit

# of grid points (after initial pruning)     ...   6788 (   0.0 sec)
# of grid points (after weights+screening)   ...   6752 (   0.0 sec)
nearest neighbour list constructed           ...    0.0 sec
Grid point re-assignment to atoms done       ...    0.0 sec
Grid point division into batches done        ...    0.0 sec
Reduced shell lists constructed in    0.0 sec

Total number of grid points                  ...     6752
Total number of batches                      ...      106
Average number of points per batch           ...       63
Average number of grid points per atom       ...     3376
Average number of shells per batch           ...     3.71 (92.76%)
Average number of basis functions per batch  ...     3.71 (92.76%)
Average number of large shells per batch     ...     3.62 (97.48%)
Average number of large basis fcns per batch ...     3.62 (97.48%)
Maximum spatial batch extension              ...  15.43, 15.43, 13.36 au
Average spatial batch extension              ...   3.75,  3.68,  3.11 au

Time for grid setup =    0.024 sec

--------------
SCF ITERATIONS
--------------
ITER       Energy         Delta-E        Max-DP      RMS-DP      [F,P]   Gradient Norm
               ***  Starting incremental Fock matrix formation  ***
                             ****Resetting KDIIS****
                             ****Turning on KDIIS(Cayley)****
  0     -0.9178702883   0.000000000000 0.00372569  0.00169044  0.0462409   0.046240874
  1     -0.9185504412  -0.000680152920 0.00714416  0.00324183  0.0419450   0.041945033
Warning: badly conditioned DIIS matrix, 1 vectors out of 3 destroyed
  2     -0.9196730293  -0.001122588076 0.01135180  0.00515427  0.0336379   0.033637935
Warning: badly conditioned DIIS matrix, 1 vectors out of 3 destroyed
  3     -0.9209545831  -0.001281553787 0.01682058  0.00765292  0.0202478   0.020247782
Warning: badly conditioned DIIS matrix, 1 vectors out of 3 destroyed
  4     -0.9216769001  -0.000722317009 0.00002673  0.00001218  0.0000326   0.000032590
Warning: badly conditioned DIIS matrix, 1 vectors out of 3 destroyed
                          ***Energy convergence achieved***
                           ***RMSP convergence achieved***
                           ***MAXP convergence achieved***
                    *** KDIIS BlockDiag ( 0.735 sec) ***

               *****************************************************
               *                     SUCCESS                       *
               *           SCF CONVERGED AFTER   5 CYCLES          *
               *****************************************************

Setting up the final grid:

General Integration Accuracy     IntAcc      ...  5.010
Radial Grid Type                 RadialGrid  ... Gauss-Chebyshev
Angular Grid (max. acc.)         AngularGrid ... Lebedev-434
Angular grid pruning method      GridPruning ... 3 (G Style)
Weight generation scheme         WeightScheme... Becke
Basis function cutoff            BFCut       ...    1.0000e-10
Integration weight cutoff        WCut        ...    1.0000e-14
Grids for H and He will be reduced by one unit

# of grid points (after initial pruning)     ...  13384 (   0.0 sec)
# of grid points (after weights+screening)   ...  13334 (   0.0 sec)
nearest neighbour list constructed           ...    0.0 sec
Grid point re-assignment to atoms done       ...    0.0 sec
Grid point division into batches done        ...    0.1 sec
Reduced shell lists constructed in    0.1 sec

Total number of grid points                  ...    13334
Total number of batches                      ...      210
Average number of points per batch           ...       63
Average number of grid points per atom       ...     6667
Average number of shells per batch           ...     3.65 (91.23%)
Average number of basis functions per batch  ...     3.65 (91.23%)
Average number of large shells per batch     ...     3.55 (97.27%)
Average number of large basis fcns per batch ...     3.55 (97.27%)
Maximum spatial batch extension              ...  15.01, 15.01, 15.40 au
Average spatial batch extension              ...   3.24,  3.25,  2.63 au

Final grid set up in    0.1 sec
Final integration                            ... done (   0.1 sec)
Change in XC energy                          ...     0.000000866
Integrated number of electrons               ...     2.000000227
Previous integrated no of electrons          ...     2.000000012
Total Energy       :           -0.92167604 Eh             -25.08008 eV
  Last Energy change         ...   -1.8581e-09  Tolerance :   1.0000e-06
  Last MAX-Density change    ...    4.9079e-08  Tolerance :   1.0000e-05
             **** THE GBW FILE WAS UPDATED (H2.gbw) ****
             **** DENSITY FILE WAS UPDATED (H2.scfp) ****
             **** ENERGY FILE WAS UPDATED (H2.en.tmp) ****
             **** THE GBW FILE WAS UPDATED (H2.gbw) ****
             **** DENSITY FILE WAS UPDATED (H2.scfp) ****
Total SCF time: 0 days 0 hours 0 min 0 sec 

-------------------------   --------------------
FINAL SINGLE POINT ENERGY        -0.921676035595
-------------------------   --------------------

Storing actual gbw-file in H2.002.gbw ... done

                            ***************************************
                            *     ORCA property calculations      *
                            ***************************************

                                    ---------------------
                                    Active property flags
                                    ---------------------
   (+) Dipole Moment


------------------------------------------------------------------------------
                       ORCA ELECTRIC PROPERTIES CALCULATION
------------------------------------------------------------------------------

Dipole Moment Calculation                       ... on
Quadrupole Moment Calculation                   ... off
Polarizability Calculation                      ... off
GBWName                                         ... H2.gbw
Electron density file                           ... H2.scfp
The origin for moment calculation is the CENTER OF MASS  = ( 0.000000,  0.000000  0.356293)

-------------
DIPOLE MOMENT
-------------
                                X             Y             Z
Electronic contribution:     -0.00000      -0.00000       0.00000
Nuclear contribution   :      0.00000       0.00000       0.00000
                        -----------------------------------------
Total Dipole Moment    :      0.00000       0.00000       0.00000
                        -----------------------------------------
Magnitude (a.u.)       :      0.00000
Magnitude (Debye)      :      0.00000



--------------------
Rotational spectrum 
--------------------
 
Rotational constants in cm-1:     0.000000   235.228062   235.228062 
Rotational constants in MHz :     0.000000 7051959.884796 7051959.884796 

 Dipole components along the rotational axes: 
x,y,z [a.u.] :     0.000000     0.000000     0.000000 
x,y,z [Debye]:     0.000000     0.000000     0.000000 

 

         *************************************************************
                                TRAJECTORY STEP   3
                  R  :   0.47696889
         *************************************************************
---------------------------------
CARTESIAN COORDINATES (ANGSTROEM)
---------------------------------
  H      0.000000    0.000000    0.000000
  H      0.000000    0.000000    0.476969

----------------------------
CARTESIAN COORDINATES (A.U.)
----------------------------
  NO LB      ZA    FRAG     MASS         X           Y           Z
   0 H     1.0000    0     1.008    0.000000    0.000000    0.000000
   1 H     1.0000    0     1.008    0.000000    0.000000    0.901341

--------------------------------
INTERNAL COORDINATES (ANGSTROEM)
--------------------------------
 H      0   0   0     0.000000000000     0.00000000     0.00000000
 H      1   0   0     0.476968888889     0.00000000     0.00000000

---------------------------
INTERNAL COORDINATES (A.U.)
---------------------------
 H      0   0   0     0.000000000000     0.00000000     0.00000000
 H      1   0   0     0.901340574401     0.00000000     0.00000000


Diagonalization of the overlap matrix:
Smallest eigenvalue                        ... 4.543e-02
Time for diagonalization                   ...    0.000 sec
Threshold for overlap eigenvalues          ... 1.000e-08
Number of eigenvalues below threshold      ... 0
Time for construction of square roots      ...    0.000 sec
Total time needed                          ...    0.001 sec

-------------------
DFT GRID GENERATION
-------------------

General Integration Accuracy     IntAcc      ...  4.670
Radial Grid Type                 RadialGrid  ... Gauss-Chebyshev
Angular Grid (max. acc.)         AngularGrid ... Lebedev-302
Angular grid pruning method      GridPruning ... 3 (G Style)
Weight generation scheme         WeightScheme... Becke
Basis function cutoff            BFCut       ...    1.0000e-10
Integration weight cutoff        WCut        ...    1.0000e-14
Grids for H and He will be reduced by one unit

# of grid points (after initial pruning)     ...   6788 (   0.0 sec)
# of grid points (after weights+screening)   ...   6754 (   0.0 sec)
nearest neighbour list constructed           ...    0.0 sec
Grid point re-assignment to atoms done       ...    0.0 sec
Grid point division into batches done        ...    0.0 sec
Reduced shell lists constructed in    0.0 sec

Total number of grid points                  ...     6754
Total number of batches                      ...      106
Average number of points per batch           ...       63
Average number of grid points per atom       ...     3377
Average number of shells per batch           ...     3.71 (92.76%)
Average number of basis functions per batch  ...     3.71 (92.76%)
Average number of large shells per batch     ...     3.62 (97.48%)
Average number of large basis fcns per batch ...     3.62 (97.48%)
Maximum spatial batch extension              ...  15.43, 15.43, 13.36 au
Average spatial batch extension              ...   3.79,  3.71,  3.11 au

Time for grid setup =    0.024 sec

--------------
SCF ITERATIONS
--------------
ITER       Energy         Delta-E        Max-DP      RMS-DP      [F,P]   Gradient Norm
               ***  Starting incremental Fock matrix formation  ***
                             ****Resetting KDIIS****
                             ****Turning on KDIIS(Cayley)****
  0     -1.0708377092   0.000000000000 0.00350099  0.00158088  0.0420712   0.042071200
  1     -1.0714010978  -0.000563388686 0.00673811  0.00304685  0.0381656   0.038165587
Warning: badly conditioned DIIS matrix, 1 vectors out of 3 destroyed
  2     -1.0723349945  -0.000933896622 0.01068295  0.00484425  0.0305836   0.030583558
Warning: badly conditioned DIIS matrix, 1 vectors out of 3 destroyed
  3     -1.0733994245  -0.001064430047 0.01577197  0.00719076  0.0183831   0.018383075
Warning: badly conditioned DIIS matrix, 1 vectors out of 3 destroyed
  4     -1.0739974082  -0.000597983663 0.00003933  0.00001800  0.0000465   0.000046487
Warning: badly conditioned DIIS matrix, 1 vectors out of 3 destroyed
                          ***Energy convergence achieved***
                           ***RMSP convergence achieved***
                           ***MAXP convergence achieved***
                    *** KDIIS BlockDiag ( 0.729 sec) ***

               *****************************************************
               *                     SUCCESS                       *
               *           SCF CONVERGED AFTER   5 CYCLES          *
               *****************************************************

Setting up the final grid:

General Integration Accuracy     IntAcc      ...  5.010
Radial Grid Type                 RadialGrid  ... Gauss-Chebyshev
Angular Grid (max. acc.)         AngularGrid ... Lebedev-434
Angular grid pruning method      GridPruning ... 3 (G Style)
Weight generation scheme         WeightScheme... Becke
Basis function cutoff            BFCut       ...    1.0000e-10
Integration weight cutoff        WCut        ...    1.0000e-14
Grids for H and He will be reduced by one unit

# of grid points (after initial pruning)     ...  13384 (   0.0 sec)
# of grid points (after weights+screening)   ...  13346 (   0.0 sec)
nearest neighbour list constructed           ...    0.0 sec
Grid point re-assignment to atoms done       ...    0.0 sec
Grid point division into batches done        ...    0.1 sec
Reduced shell lists constructed in    0.1 sec

Total number of grid points                  ...    13346
Total number of batches                      ...      210
Average number of points per batch           ...       63
Average number of grid points per atom       ...     6673
Average number of shells per batch           ...     3.66 (91.59%)
Average number of basis functions per batch  ...     3.66 (91.59%)
Average number of large shells per batch     ...     3.54 (96.64%)
Average number of large basis fcns per batch ...     3.54 (96.64%)
Maximum spatial batch extension              ...  15.01, 15.01, 15.40 au
Average spatial batch extension              ...   3.24,  3.29,  2.63 au

Final grid set up in    0.1 sec
Final integration                            ... done (   0.1 sec)
Change in XC energy                          ...    -0.000000050
Integrated number of electrons               ...     1.999999878
Previous integrated no of electrons          ...     2.000000443
Total Energy       :           -1.07399746 Eh             -29.22496 eV
  Last Energy change         ...   -3.8007e-09  Tolerance :   1.0000e-06
  Last MAX-Density change    ...    8.7880e-08  Tolerance :   1.0000e-05
             **** THE GBW FILE WAS UPDATED (H2.gbw) ****
             **** DENSITY FILE WAS UPDATED (H2.scfp) ****
             **** ENERGY FILE WAS UPDATED (H2.en.tmp) ****
             **** THE GBW FILE WAS UPDATED (H2.gbw) ****
             **** DENSITY FILE WAS UPDATED (H2.scfp) ****
Total SCF time: 0 days 0 hours 0 min 0 sec 

-------------------------   --------------------
FINAL SINGLE POINT ENERGY        -1.073997461725
-------------------------   --------------------

Storing actual gbw-file in H2.003.gbw ... done

                            ***************************************
                            *     ORCA property calculations      *
                            ***************************************

                                    ---------------------
                                    Active property flags
                                    ---------------------
   (+) Dipole Moment


------------------------------------------------------------------------------
                       ORCA ELECTRIC PROPERTIES CALCULATION
------------------------------------------------------------------------------

Dipole Moment Calculation                       ... on
Quadrupole Moment Calculation                   ... off
Polarizability Calculation                      ... off
GBWName                                         ... H2.gbw
Electron density file                           ... H2.scfp
The origin for moment calculation is the CENTER OF MASS  = ( 0.000000,  0.000000  0.450670)

-------------
DIPOLE MOMENT
-------------
                                X             Y             Z
Electronic contribution:     -0.00000      -0.00000      -0.00000
Nuclear contribution   :      0.00000       0.00000      -0.00000
                        -----------------------------------------
Total Dipole Moment    :      0.00000       0.00000      -0.00000
                        -----------------------------------------
Magnitude (a.u.)       :      0.00000
Magnitude (Debye)      :      0.00000



--------------------
Rotational spectrum 
--------------------
 
Rotational constants in cm-1:     0.000000   147.023332   147.023332 
Rotational constants in MHz :     0.000000 4407648.596963 4407648.596963 

 Dipole components along the rotational axes: 
x,y,z [a.u.] :    -0.000000     0.000000     0.000000 
x,y,z [Debye]:    -0.000000     0.000000     0.000000 

 

         *************************************************************
                                TRAJECTORY STEP   4
                  R  :   0.57685333
         *************************************************************
---------------------------------
CARTESIAN COORDINATES (ANGSTROEM)
---------------------------------
  H      0.000000    0.000000    0.000000
  H      0.000000    0.000000    0.576853

----------------------------
CARTESIAN COORDINATES (A.U.)
----------------------------
  NO LB      ZA    FRAG     MASS         X           Y           Z
   0 H     1.0000    0     1.008    0.000000    0.000000    0.000000
   1 H     1.0000    0     1.008    0.000000    0.000000    1.090095

--------------------------------
INTERNAL COORDINATES (ANGSTROEM)
--------------------------------
 H      0   0   0     0.000000000000     0.00000000     0.00000000
 H      1   0   0     0.576853333333     0.00000000     0.00000000

---------------------------
INTERNAL COORDINATES (A.U.)
---------------------------
 H      0   0   0     0.000000000000     0.00000000     0.00000000
 H      1   0   0     1.090094819440     0.00000000     0.00000000


Diagonalization of the overlap matrix:
Smallest eigenvalue                        ... 6.363e-02
Time for diagonalization                   ...    0.000 sec
Threshold for overlap eigenvalues          ... 1.000e-08
Number of eigenvalues below threshold      ... 0
Time for construction of square roots      ...    0.000 sec
Total time needed                          ...    0.001 sec

-------------------
DFT GRID GENERATION
-------------------

General Integration Accuracy     IntAcc      ...  4.670
Radial Grid Type                 RadialGrid  ... Gauss-Chebyshev
Angular Grid (max. acc.)         AngularGrid ... Lebedev-302
Angular grid pruning method      GridPruning ... 3 (G Style)
Weight generation scheme         WeightScheme... Becke
Basis function cutoff            BFCut       ...    1.0000e-10
Integration weight cutoff        WCut        ...    1.0000e-14
Grids for H and He will be reduced by one unit

# of grid points (after initial pruning)     ...   6788 (   0.0 sec)
# of grid points (after weights+screening)   ...   6756 (   0.0 sec)
nearest neighbour list constructed           ...    0.0 sec
Grid point re-assignment to atoms done       ...    0.0 sec
Grid point division into batches done        ...    0.0 sec
Reduced shell lists constructed in    0.0 sec

Total number of grid points                  ...     6756
Total number of batches                      ...      106
Average number of points per batch           ...       63
Average number of grid points per atom       ...     3378
Average number of shells per batch           ...     3.72 (92.99%)
Average number of basis functions per batch  ...     3.72 (92.99%)
Average number of large shells per batch     ...     3.62 (97.24%)
Average number of large basis fcns per batch ...     3.62 (97.24%)
Maximum spatial batch extension              ...  15.43, 15.43, 13.36 au
Average spatial batch extension              ...   3.85,  3.77,  3.10 au

Time for grid setup =    0.024 sec

--------------
SCF ITERATIONS
--------------
ITER       Energy         Delta-E        Max-DP      RMS-DP      [F,P]   Gradient Norm
               ***  Starting incremental Fock matrix formation  ***
                             ****Resetting KDIIS****
                             ****Turning on KDIIS(Cayley)****
  0     -1.1374198252   0.000000000000 0.00322280  0.00146158  0.0378364   0.037836436
  1     -1.1378732129  -0.000453387687 0.00623700  0.00283565  0.0343344   0.034334379
Warning: badly conditioned DIIS matrix, 1 vectors out of 3 destroyed
  2     -1.1386293610  -0.000756148095 0.00987141  0.00450924  0.0274971   0.027497068
Warning: badly conditioned DIIS matrix, 1 vectors out of 3 destroyed
  3     -1.1394900693  -0.000860708323 0.01453405  0.00669439  0.0165101   0.016510088
Warning: badly conditioned DIIS matrix, 1 vectors out of 3 destroyed
  4     -1.1399724434  -0.000482374139 0.00004406  0.00002041  0.0000508   0.000050804
Warning: badly conditioned DIIS matrix, 1 vectors out of 3 destroyed
                          ***Energy convergence achieved***
                           ***RMSP convergence achieved***
                           ***MAXP convergence achieved***
                    *** KDIIS BlockDiag ( 0.733 sec) ***

               *****************************************************
               *                     SUCCESS                       *
               *           SCF CONVERGED AFTER   5 CYCLES          *
               *****************************************************

Setting up the final grid:

General Integration Accuracy     IntAcc      ...  5.010
Radial Grid Type                 RadialGrid  ... Gauss-Chebyshev
Angular Grid (max. acc.)         AngularGrid ... Lebedev-434
Angular grid pruning method      GridPruning ... 3 (G Style)
Weight generation scheme         WeightScheme... Becke
Basis function cutoff            BFCut       ...    1.0000e-10
Integration weight cutoff        WCut        ...    1.0000e-14
Grids for H and He will be reduced by one unit

# of grid points (after initial pruning)     ...  13384 (   0.0 sec)
# of grid points (after weights+screening)   ...  13348 (   0.0 sec)
nearest neighbour list constructed           ...    0.0 sec
Grid point re-assignment to atoms done       ...    0.0 sec
Grid point division into batches done        ...    0.1 sec
Reduced shell lists constructed in    0.1 sec

Total number of grid points                  ...    13348
Total number of batches                      ...      210
Average number of points per batch           ...       63
Average number of grid points per atom       ...     6674
Average number of shells per batch           ...     3.67 (91.71%)
Average number of basis functions per batch  ...     3.67 (91.71%)
Average number of large shells per batch     ...     3.54 (96.51%)
Average number of large basis fcns per batch ...     3.54 (96.51%)
Maximum spatial batch extension              ...  15.01, 15.01, 14.31 au
Average spatial batch extension              ...   3.21,  3.25,  2.57 au

Final grid set up in    0.1 sec
Final integration                            ... done (   0.1 sec)
Change in XC energy                          ...    -0.000001423
Integrated number of electrons               ...     1.999999862
Previous integrated no of electrons          ...     2.000000171
Total Energy       :           -1.13997387 Eh             -31.02027 eV
  Last Energy change         ...   -4.5435e-09  Tolerance :   1.0000e-06
  Last MAX-Density change    ...    1.0407e-07  Tolerance :   1.0000e-05
             **** THE GBW FILE WAS UPDATED (H2.gbw) ****
             **** DENSITY FILE WAS UPDATED (H2.scfp) ****
             **** ENERGY FILE WAS UPDATED (H2.en.tmp) ****
             **** THE GBW FILE WAS UPDATED (H2.gbw) ****
             **** DENSITY FILE WAS UPDATED (H2.scfp) ****
Total SCF time: 0 days 0 hours 0 min 0 sec 

-------------------------   --------------------
FINAL SINGLE POINT ENERGY        -1.139973870764
-------------------------   --------------------

Storing actual gbw-file in H2.004.gbw ... done

                            ***************************************
                            *     ORCA property calculations      *
                            ***************************************

                                    ---------------------
                                    Active property flags
                                    ---------------------
   (+) Dipole Moment


------------------------------------------------------------------------------
                       ORCA ELECTRIC PROPERTIES CALCULATION
------------------------------------------------------------------------------

Dipole Moment Calculation                       ... on
Quadrupole Moment Calculation                   ... off
Polarizability Calculation                      ... off
GBWName                                         ... H2.gbw
Electron density file                           ... H2.scfp
The origin for moment calculation is the CENTER OF MASS  = ( 0.000000,  0.000000  0.545047)

-------------
DIPOLE MOMENT
-------------
                                X             Y             Z
Electronic contribution:     -0.00000      -0.00000      -0.00000
Nuclear contribution   :      0.00000       0.00000       0.00000
                        -----------------------------------------
Total Dipole Moment    :      0.00000       0.00000      -0.00000
                        -----------------------------------------
Magnitude (a.u.)       :      0.00000
Magnitude (Debye)      :      0.00000



--------------------
Rotational spectrum 
--------------------
 
Rotational constants in cm-1:     0.000000   100.516082   100.516082 
Rotational constants in MHz :     0.000000 3013396.326020 3013396.326020 

 Dipole components along the rotational axes: 
x,y,z [a.u.] :    -0.000000     0.000000     0.000000 
x,y,z [Debye]:    -0.000000     0.000000     0.000000 

 

         *************************************************************
                                TRAJECTORY STEP   5
                  R  :   0.67673778
         *************************************************************
---------------------------------
CARTESIAN COORDINATES (ANGSTROEM)
---------------------------------
  H      0.000000    0.000000    0.000000
  H      0.000000    0.000000    0.676738

----------------------------
CARTESIAN COORDINATES (A.U.)
----------------------------
  NO LB      ZA    FRAG     MASS         X           Y           Z
   0 H     1.0000    0     1.008    0.000000    0.000000    0.000000
   1 H     1.0000    0     1.008    0.000000    0.000000    1.278849

--------------------------------
INTERNAL COORDINATES (ANGSTROEM)
--------------------------------
 H      0   0   0     0.000000000000     0.00000000     0.00000000
 H      1   0   0     0.676737777778     0.00000000     0.00000000

---------------------------
INTERNAL COORDINATES (A.U.)
---------------------------
 H      0   0   0     0.000000000000     0.00000000     0.00000000
 H      1   0   0     1.278849064478     0.00000000     0.00000000


Diagonalization of the overlap matrix:
Smallest eigenvalue                        ... 8.333e-02
Time for diagonalization                   ...    0.000 sec
Threshold for overlap eigenvalues          ... 1.000e-08
Number of eigenvalues below threshold      ... 0
Time for construction of square roots      ...    0.000 sec
Total time needed                          ...    0.001 sec

-------------------
DFT GRID GENERATION
-------------------

General Integration Accuracy     IntAcc      ...  4.670
Radial Grid Type                 RadialGrid  ... Gauss-Chebyshev
Angular Grid (max. acc.)         AngularGrid ... Lebedev-302
Angular grid pruning method      GridPruning ... 3 (G Style)
Weight generation scheme         WeightScheme... Becke
Basis function cutoff            BFCut       ...    1.0000e-10
Integration weight cutoff        WCut        ...    1.0000e-14
Grids for H and He will be reduced by one unit

# of grid points (after initial pruning)     ...   6788 (   0.0 sec)
# of grid points (after weights+screening)   ...   6758 (   0.0 sec)
nearest neighbour list constructed           ...    0.0 sec
Grid point re-assignment to atoms done       ...    0.0 sec
Grid point division into batches done        ...    0.0 sec
Reduced shell lists constructed in    0.0 sec

Total number of grid points                  ...     6758
Total number of batches                      ...      106
Average number of points per batch           ...       63
Average number of grid points per atom       ...     3379
Average number of shells per batch           ...     3.74 (93.46%)
Average number of basis functions per batch  ...     3.74 (93.46%)
Average number of large shells per batch     ...     3.61 (96.50%)
Average number of large basis fcns per batch ...     3.61 (96.50%)
Maximum spatial batch extension              ...  15.43, 15.43, 13.36 au
Average spatial batch extension              ...   3.83,  3.73,  3.13 au

Time for grid setup =    0.024 sec

--------------
SCF ITERATIONS
--------------
ITER       Energy         Delta-E        Max-DP      RMS-DP      [F,P]   Gradient Norm
               ***  Starting incremental Fock matrix formation  ***
                             ****Resetting KDIIS****
                             ****Turning on KDIIS(Cayley)****
  0     -1.1620754371   0.000000000000 0.00293069  0.00134586  0.0339837   0.033983728
  1     -1.1624371849  -0.000361747792 0.00570948  0.00263097  0.0308528   0.030852794
Warning: badly conditioned DIIS matrix, 1 vectors out of 3 destroyed
  2     -1.1630448528  -0.000607667893 0.00902679  0.00418587  0.0246993   0.024699304
Warning: badly conditioned DIIS matrix, 1 vectors out of 3 destroyed
  3     -1.1637360522  -0.000691199449 0.01327002  0.00621941  0.0148215   0.014821458
Warning: badly conditioned DIIS matrix, 1 vectors out of 3 destroyed
  4     -1.1641230845  -0.000387032307 0.00003993  0.00001885  0.0000453   0.000045275
Warning: badly conditioned DIIS matrix, 1 vectors out of 3 destroyed
                          ***Energy convergence achieved***
                           ***RMSP convergence achieved***
                           ***MAXP convergence achieved***
                    *** KDIIS BlockDiag ( 0.718 sec) ***

               *****************************************************
               *                     SUCCESS                       *
               *           SCF CONVERGED AFTER   5 CYCLES          *
               *****************************************************

Setting up the final grid:

General Integration Accuracy     IntAcc      ...  5.010
Radial Grid Type                 RadialGrid  ... Gauss-Chebyshev
Angular Grid (max. acc.)         AngularGrid ... Lebedev-434
Angular grid pruning method      GridPruning ... 3 (G Style)
Weight generation scheme         WeightScheme... Becke
Basis function cutoff            BFCut       ...    1.0000e-10
Integration weight cutoff        WCut        ...    1.0000e-14
Grids for H and He will be reduced by one unit

# of grid points (after initial pruning)     ...  13384 (   0.0 sec)
# of grid points (after weights+screening)   ...  13350 (   0.0 sec)
nearest neighbour list constructed           ...    0.0 sec
Grid point re-assignment to atoms done       ...    0.0 sec
Grid point division into batches done        ...    0.1 sec
Reduced shell lists constructed in    0.1 sec

Total number of grid points                  ...    13350
Total number of batches                      ...      210
Average number of points per batch           ...       63
Average number of grid points per atom       ...     6675
Average number of shells per batch           ...     3.69 (92.18%)
Average number of basis functions per batch  ...     3.69 (92.18%)
Average number of large shells per batch     ...     3.56 (96.53%)
Average number of large basis fcns per batch ...     3.56 (96.53%)
Maximum spatial batch extension              ...  15.01, 15.01, 14.12 au
Average spatial batch extension              ...   3.20,  3.22,  2.60 au

Final grid set up in    0.1 sec
Final integration                            ... done (   0.1 sec)
Change in XC energy                          ...    -0.000001335
Integrated number of electrons               ...     1.999999915
Previous integrated no of electrons          ...     1.999999572
Total Energy       :           -1.16412442 Eh             -31.67744 eV
  Last Energy change         ...   -3.5956e-09  Tolerance :   1.0000e-06
  Last MAX-Density change    ...    8.7214e-08  Tolerance :   1.0000e-05
             **** THE GBW FILE WAS UPDATED (H2.gbw) ****
             **** DENSITY FILE WAS UPDATED (H2.scfp) ****
             **** ENERGY FILE WAS UPDATED (H2.en.tmp) ****
             **** THE GBW FILE WAS UPDATED (H2.gbw) ****
             **** DENSITY FILE WAS UPDATED (H2.scfp) ****
Total SCF time: 0 days 0 hours 0 min 0 sec 

-------------------------   --------------------
FINAL SINGLE POINT ENERGY        -1.164124423511
-------------------------   --------------------

Storing actual gbw-file in H2.005.gbw ... done

                            ***************************************
                            *     ORCA property calculations      *
                            ***************************************

                                    ---------------------
                                    Active property flags
                                    ---------------------
   (+) Dipole Moment


------------------------------------------------------------------------------
                       ORCA ELECTRIC PROPERTIES CALCULATION
------------------------------------------------------------------------------

Dipole Moment Calculation                       ... on
Quadrupole Moment Calculation                   ... off
Polarizability Calculation                      ... off
GBWName                                         ... H2.gbw
Electron density file                           ... H2.scfp
The origin for moment calculation is the CENTER OF MASS  = ( 0.000000,  0.000000  0.639425)

-------------
DIPOLE MOMENT
-------------
                                X             Y             Z
Electronic contribution:     -0.00000      -0.00000      -0.00000
Nuclear contribution   :      0.00000       0.00000       0.00000
                        -----------------------------------------
Total Dipole Moment    :      0.00000       0.00000      -0.00000
                        -----------------------------------------
Magnitude (a.u.)       :      0.00000
Magnitude (Debye)      :      0.00000



--------------------
Rotational spectrum 
--------------------
 
Rotational constants in cm-1:     0.000000    73.034073    73.034073 
Rotational constants in MHz :     0.000000 2189506.433477 2189506.433477 

 Dipole components along the rotational axes: 
x,y,z [a.u.] :    -0.000000     0.000000     0.000000 
x,y,z [Debye]:    -0.000000     0.000000     0.000000 

 

         *************************************************************
                                TRAJECTORY STEP   6
                  R  :   0.77662222
         *************************************************************
---------------------------------
CARTESIAN COORDINATES (ANGSTROEM)
---------------------------------
  H      0.000000    0.000000    0.000000
  H      0.000000    0.000000    0.776622

----------------------------
CARTESIAN COORDINATES (A.U.)
----------------------------
  NO LB      ZA    FRAG     MASS         X           Y           Z
   0 H     1.0000    0     1.008    0.000000    0.000000    0.000000
   1 H     1.0000    0     1.008    0.000000    0.000000    1.467603

--------------------------------
INTERNAL COORDINATES (ANGSTROEM)
--------------------------------
 H      0   0   0     0.000000000000     0.00000000     0.00000000
 H      1   0   0     0.776622222222     0.00000000     0.00000000

---------------------------
INTERNAL COORDINATES (A.U.)
---------------------------
 H      0   0   0     0.000000000000     0.00000000     0.00000000
 H      1   0   0     1.467603309517     0.00000000     0.00000000


Diagonalization of the overlap matrix:
Smallest eigenvalue                        ... 1.038e-01
Time for diagonalization                   ...    0.000 sec
Threshold for overlap eigenvalues          ... 1.000e-08
Number of eigenvalues below threshold      ... 0
Time for construction of square roots      ...    0.000 sec
Total time needed                          ...    0.001 sec

-------------------
DFT GRID GENERATION
-------------------

General Integration Accuracy     IntAcc      ...  4.670
Radial Grid Type                 RadialGrid  ... Gauss-Chebyshev
Angular Grid (max. acc.)         AngularGrid ... Lebedev-302
Angular grid pruning method      GridPruning ... 3 (G Style)
Weight generation scheme         WeightScheme... Becke
Basis function cutoff            BFCut       ...    1.0000e-10
Integration weight cutoff        WCut        ...    1.0000e-14
Grids for H and He will be reduced by one unit

# of grid points (after initial pruning)     ...   6788 (   0.0 sec)
# of grid points (after weights+screening)   ...   6760 (   0.0 sec)
nearest neighbour list constructed           ...    0.0 sec
Grid point re-assignment to atoms done       ...    0.0 sec
Grid point division into batches done        ...    0.0 sec
Reduced shell lists constructed in    0.0 sec

Total number of grid points                  ...     6760
Total number of batches                      ...      106
Average number of points per batch           ...       63
Average number of grid points per atom       ...     3380
Average number of shells per batch           ...     3.74 (93.46%)
Average number of basis functions per batch  ...     3.74 (93.46%)
Average number of large shells per batch     ...     3.61 (96.50%)
Average number of large basis fcns per batch ...     3.61 (96.50%)
Maximum spatial batch extension              ...  15.43, 15.43, 13.36 au
Average spatial batch extension              ...   3.75,  3.73,  3.23 au

Time for grid setup =    0.024 sec

--------------
SCF ITERATIONS
--------------
ITER       Energy         Delta-E        Max-DP      RMS-DP      [F,P]   Gradient Norm
               ***  Starting incremental Fock matrix formation  ***
                             ****Resetting KDIIS****
                             ****Turning on KDIIS(Cayley)****
  0     -1.1651501864   0.000000000000 0.00263591  0.00123457  0.0305345   0.030534466
  1     -1.1654375839  -0.000287397527 0.00517691  0.00243482  0.0277391   0.027739139
Warning: badly conditioned DIIS matrix, 1 vectors out of 3 destroyed
  2     -1.1659245291  -0.000486945127 0.00818078  0.00387682  0.0222017   0.022201721
Warning: badly conditioned DIIS matrix, 1 vectors out of 3 destroyed
  3     -1.1664782892  -0.000553760110 0.01202020  0.00576814  0.0133198   0.013319846
Warning: badly conditioned DIIS matrix, 1 vectors out of 3 destroyed
  4     -1.1667884639  -0.000310174698 0.00003090  0.00001495  0.0000347   0.000034747
Warning: badly conditioned DIIS matrix, 1 vectors out of 3 destroyed
                          ***Energy convergence achieved***
                           ***RMSP convergence achieved***
                           ***MAXP convergence achieved***
                    *** KDIIS BlockDiag ( 0.722 sec) ***

               *****************************************************
               *                     SUCCESS                       *
               *           SCF CONVERGED AFTER   5 CYCLES          *
               *****************************************************

Setting up the final grid:

General Integration Accuracy     IntAcc      ...  5.010
Radial Grid Type                 RadialGrid  ... Gauss-Chebyshev
Angular Grid (max. acc.)         AngularGrid ... Lebedev-434
Angular grid pruning method      GridPruning ... 3 (G Style)
Weight generation scheme         WeightScheme... Becke
Basis function cutoff            BFCut       ...    1.0000e-10
Integration weight cutoff        WCut        ...    1.0000e-14
Grids for H and He will be reduced by one unit

# of grid points (after initial pruning)     ...  13384 (   0.0 sec)
# of grid points (after weights+screening)   ...  13352 (   0.0 sec)
nearest neighbour list constructed           ...    0.0 sec
Grid point re-assignment to atoms done       ...    0.0 sec
Grid point division into batches done        ...    0.1 sec
Reduced shell lists constructed in    0.1 sec

Total number of grid points                  ...    13352
Total number of batches                      ...      210
Average number of points per batch           ...       63
Average number of grid points per atom       ...     6676
Average number of shells per batch           ...     3.67 (91.71%)
Average number of basis functions per batch  ...     3.67 (91.71%)
Average number of large shells per batch     ...     3.56 (97.03%)
Average number of large basis fcns per batch ...     3.56 (97.03%)
Maximum spatial batch extension              ...  19.18, 15.83, 13.12 au
Average spatial batch extension              ...   3.21,  3.21,  2.63 au

Final grid set up in    0.1 sec
Final integration                            ... done (   0.1 sec)
Change in XC energy                          ...    -0.000001838
Integrated number of electrons               ...     1.999999991
Previous integrated no of electrons          ...     1.999999687
Total Energy       :           -1.16679030 Eh             -31.74998 eV
  Last Energy change         ...   -2.1035e-09  Tolerance :   1.0000e-06
  Last MAX-Density change    ...    5.5583e-08  Tolerance :   1.0000e-05
             **** THE GBW FILE WAS UPDATED (H2.gbw) ****
             **** DENSITY FILE WAS UPDATED (H2.scfp) ****
             **** ENERGY FILE WAS UPDATED (H2.en.tmp) ****
             **** THE GBW FILE WAS UPDATED (H2.gbw) ****
             **** DENSITY FILE WAS UPDATED (H2.scfp) ****
Total SCF time: 0 days 0 hours 0 min 0 sec 

-------------------------   --------------------
FINAL SINGLE POINT ENERGY        -1.166790304247
-------------------------   --------------------

Storing actual gbw-file in H2.006.gbw ... done

                            ***************************************
                            *     ORCA property calculations      *
                            ***************************************

                                    ---------------------
                                    Active property flags
                                    ---------------------
   (+) Dipole Moment


------------------------------------------------------------------------------
                       ORCA ELECTRIC PROPERTIES CALCULATION
------------------------------------------------------------------------------

Dipole Moment Calculation                       ... on
Quadrupole Moment Calculation                   ... off
Polarizability Calculation                      ... off
GBWName                                         ... H2.gbw
Electron density file                           ... H2.scfp
The origin for moment calculation is the CENTER OF MASS  = ( 0.000000,  0.000000  0.733802)

-------------
DIPOLE MOMENT
-------------
                                X             Y             Z
Electronic contribution:     -0.00000      -0.00000       0.00000
Nuclear contribution   :      0.00000       0.00000      -0.00000
                        -----------------------------------------
Total Dipole Moment    :      0.00000       0.00000       0.00000
                        -----------------------------------------
Magnitude (a.u.)       :      0.00000
Magnitude (Debye)      :      0.00000



--------------------
Rotational spectrum 
--------------------
 
Rotational constants in cm-1:     0.000000    55.455770    55.455770 
Rotational constants in MHz :     0.000000 1662522.153059 1662522.153059 

 Dipole components along the rotational axes: 
x,y,z [a.u.] :     0.000000     0.000000     0.000000 
x,y,z [Debye]:     0.000000     0.000000     0.000000 

 

         *************************************************************
                                TRAJECTORY STEP   7
                  R  :   0.87650667
         *************************************************************
---------------------------------
CARTESIAN COORDINATES (ANGSTROEM)
---------------------------------
  H      0.000000    0.000000    0.000000
  H      0.000000    0.000000    0.876507

----------------------------
CARTESIAN COORDINATES (A.U.)
----------------------------
  NO LB      ZA    FRAG     MASS         X           Y           Z
   0 H     1.0000    0     1.008    0.000000    0.000000    0.000000
   1 H     1.0000    0     1.008    0.000000    0.000000    1.656358

--------------------------------
INTERNAL COORDINATES (ANGSTROEM)
--------------------------------
 H      0   0   0     0.000000000000     0.00000000     0.00000000
 H      1   0   0     0.876506666667     0.00000000     0.00000000

---------------------------
INTERNAL COORDINATES (A.U.)
---------------------------
 H      0   0   0     0.000000000000     0.00000000     0.00000000
 H      1   0   0     1.656357554556     0.00000000     0.00000000


Diagonalization of the overlap matrix:
Smallest eigenvalue                        ... 1.242e-01
Time for diagonalization                   ...    0.000 sec
Threshold for overlap eigenvalues          ... 1.000e-08
Number of eigenvalues below threshold      ... 0
Time for construction of square roots      ...    0.000 sec
Total time needed                          ...    0.001 sec

-------------------
DFT GRID GENERATION
-------------------

General Integration Accuracy     IntAcc      ...  4.670
Radial Grid Type                 RadialGrid  ... Gauss-Chebyshev
Angular Grid (max. acc.)         AngularGrid ... Lebedev-302
Angular grid pruning method      GridPruning ... 3 (G Style)
Weight generation scheme         WeightScheme... Becke
Basis function cutoff            BFCut       ...    1.0000e-10
Integration weight cutoff        WCut        ...    1.0000e-14
Grids for H and He will be reduced by one unit

# of grid points (after initial pruning)     ...   6788 (   0.0 sec)
# of grid points (after weights+screening)   ...   6760 (   0.0 sec)
nearest neighbour list constructed           ...    0.0 sec
Grid point re-assignment to atoms done       ...    0.0 sec
Grid point division into batches done        ...    0.0 sec
Reduced shell lists constructed in    0.0 sec

Total number of grid points                  ...     6760
Total number of batches                      ...      106
Average number of points per batch           ...       63
Average number of grid points per atom       ...     3380
Average number of shells per batch           ...     3.74 (93.46%)
Average number of basis functions per batch  ...     3.74 (93.46%)
Average number of large shells per batch     ...     3.60 (96.25%)
Average number of large basis fcns per batch ...     3.60 (96.25%)
Maximum spatial batch extension              ...  15.43, 15.43, 14.13 au
Average spatial batch extension              ...   3.81,  3.82,  3.35 au

Time for grid setup =    0.024 sec

--------------
SCF ITERATIONS
--------------
ITER       Energy         Delta-E        Max-DP      RMS-DP      [F,P]   Gradient Norm
               ***  Starting incremental Fock matrix formation  ***
                             ****Resetting KDIIS****
                             ****Turning on KDIIS(Cayley)****
  0     -1.1568781121   0.000000000000 0.00234379  0.00112649  0.0274130   0.027413042
  1     -1.1571053338  -0.000227221729 0.00464750  0.00224431  0.0249233   0.024923319
Warning: badly conditioned DIIS matrix, 1 vectors out of 3 destroyed
  2     -1.1574942092  -0.000388875414 0.00734397  0.00357681  0.0199456   0.019945619
Warning: badly conditioned DIIS matrix, 1 vectors out of 3 destroyed
  3     -1.1579364813  -0.000442272078 0.01079346  0.00533063  0.0119664   0.011966407
Warning: badly conditioned DIIS matrix, 1 vectors out of 3 destroyed
  4     -1.1581844573  -0.000247976007 0.00002077  0.00001035  0.0000234   0.000023354
Warning: badly conditioned DIIS matrix, 1 vectors out of 3 destroyed
                          ***Energy convergence achieved***
                           ***RMSP convergence achieved***
                           ***MAXP convergence achieved***
                    *** KDIIS BlockDiag ( 0.721 sec) ***

               *****************************************************
               *                     SUCCESS                       *
               *           SCF CONVERGED AFTER   5 CYCLES          *
               *****************************************************

Setting up the final grid:

General Integration Accuracy     IntAcc      ...  5.010
Radial Grid Type                 RadialGrid  ... Gauss-Chebyshev
Angular Grid (max. acc.)         AngularGrid ... Lebedev-434
Angular grid pruning method      GridPruning ... 3 (G Style)
Weight generation scheme         WeightScheme... Becke
Basis function cutoff            BFCut       ...    1.0000e-10
Integration weight cutoff        WCut        ...    1.0000e-14
Grids for H and He will be reduced by one unit

# of grid points (after initial pruning)     ...  13384 (   0.0 sec)
# of grid points (after weights+screening)   ...  13352 (   0.0 sec)
nearest neighbour list constructed           ...    0.0 sec
Grid point re-assignment to atoms done       ...    0.0 sec
Grid point division into batches done        ...    0.1 sec
Reduced shell lists constructed in    0.1 sec

Total number of grid points                  ...    13352
Total number of batches                      ...      210
Average number of points per batch           ...       63
Average number of grid points per atom       ...     6676
Average number of shells per batch           ...     3.67 (91.71%)
Average number of basis functions per batch  ...     3.67 (91.71%)
Average number of large shells per batch     ...     3.54 (96.51%)
Average number of large basis fcns per batch ...     3.54 (96.51%)
Maximum spatial batch extension              ...  17.19, 16.09, 13.12 au
Average spatial batch extension              ...   3.22,  3.22,  2.65 au

Final grid set up in    0.1 sec
Final integration                            ... done (   0.1 sec)
Change in XC energy                          ...     0.000001109
Integrated number of electrons               ...     2.000000035
Previous integrated no of electrons          ...     2.000000810
Total Energy       :           -1.15818335 Eh             -31.51577 eV
  Last Energy change         ...   -9.4210e-10  Tolerance :   1.0000e-06
  Last MAX-Density change    ...    2.7462e-08  Tolerance :   1.0000e-05
             **** THE GBW FILE WAS UPDATED (H2.gbw) ****
             **** DENSITY FILE WAS UPDATED (H2.scfp) ****
             **** ENERGY FILE WAS UPDATED (H2.en.tmp) ****
             **** THE GBW FILE WAS UPDATED (H2.gbw) ****
             **** DENSITY FILE WAS UPDATED (H2.scfp) ****
Total SCF time: 0 days 0 hours 0 min 0 sec 

-------------------------   --------------------
FINAL SINGLE POINT ENERGY        -1.158183349336
-------------------------   --------------------

Storing actual gbw-file in H2.007.gbw ... done

                            ***************************************
                            *     ORCA property calculations      *
                            ***************************************

                                    ---------------------
                                    Active property flags
                                    ---------------------
   (+) Dipole Moment


------------------------------------------------------------------------------
                       ORCA ELECTRIC PROPERTIES CALCULATION
------------------------------------------------------------------------------

Dipole Moment Calculation                       ... on
Quadrupole Moment Calculation                   ... off
Polarizability Calculation                      ... off
GBWName                                         ... H2.gbw
Electron density file                           ... H2.scfp
The origin for moment calculation is the CENTER OF MASS  = ( 0.000000,  0.000000  0.828179)

-------------
DIPOLE MOMENT
-------------
                                X             Y             Z
Electronic contribution:     -0.00000      -0.00000      -0.00000
Nuclear contribution   :      0.00000       0.00000       0.00000
[...]
  2     -0.8320319263  -0.000000021935 0.00008761  0.00004118  0.0001429   0.000142937
Warning: badly conditioned DIIS matrix, 1 vectors out of 3 destroyed
  3     -0.8320319513  -0.000000024957 0.00013142  0.00006176  0.0000858   0.000085762
Warning: badly conditioned DIIS matrix, 1 vectors out of 3 destroyed
                           ***RMSP convergence achieved***
                           ***MAXP convergence achieved***
                    *** KDIIS BlockDiag ( 0.645 sec) ***

               *****************************************************
               *                     SUCCESS                       *
               *           SCF CONVERGED AFTER   4 CYCLES          *
               *****************************************************

Setting up the final grid:

General Integration Accuracy     IntAcc      ...  5.010
Radial Grid Type                 RadialGrid  ... Gauss-Chebyshev
Angular Grid (max. acc.)         AngularGrid ... Lebedev-434
Angular grid pruning method      GridPruning ... 3 (G Style)
Weight generation scheme         WeightScheme... Becke
Basis function cutoff            BFCut       ...    1.0000e-10
Integration weight cutoff        WCut        ...    1.0000e-14
Grids for H and He will be reduced by one unit

# of grid points (after initial pruning)     ...  13384 (   0.0 sec)
# of grid points (after weights+screening)   ...  13376 (   0.0 sec)
nearest neighbour list constructed           ...    0.0 sec
Grid point re-assignment to atoms done       ...    0.0 sec
Grid point division into batches done        ...    0.1 sec
Reduced shell lists constructed in    0.1 sec

Total number of grid points                  ...    13376
Total number of batches                      ...      210
Average number of points per batch           ...       63
Average number of grid points per atom       ...     6688
Average number of shells per batch           ...     2.83 (70.85%)
Average number of basis functions per batch  ...     2.83 (70.85%)
Average number of large shells per batch     ...     2.16 (76.09%)
Average number of large basis fcns per batch ...     2.16 (76.09%)
Maximum spatial batch extension              ...  26.24, 17.72, 13.77 au
Average spatial batch extension              ...   3.68,  3.44,  3.23 au

Final grid set up in    0.1 sec
Final integration                            ... done (   0.1 sec)
Change in XC energy                          ...     0.000003222
Integrated number of electrons               ...     2.000002463
Previous integrated no of electrons          ...     1.999989357
Total Energy       :           -0.83202874 Eh             -22.64065 eV
  Last Energy change         ...   -1.4038e-08  Tolerance :   1.0000e-06
  Last MAX-Density change    ...    4.6454e-08  Tolerance :   1.0000e-05
             **** THE GBW FILE WAS UPDATED (H2.gbw) ****
             **** DENSITY FILE WAS UPDATED (H2.scfp) ****
             **** ENERGY FILE WAS UPDATED (H2.en.tmp) ****
             **** THE GBW FILE WAS UPDATED (H2.gbw) ****
             **** DENSITY FILE WAS UPDATED (H2.scfp) ****
Total SCF time: 0 days 0 hours 0 min 0 sec 

-------------------------   --------------------
FINAL SINGLE POINT ENERGY        -0.832028743478
-------------------------   --------------------

Storing actual gbw-file in H2.045.gbw ... done

                            ***************************************
                            *     ORCA property calculations      *
                            ***************************************

                                    ---------------------
                                    Active property flags
                                    ---------------------
   (+) Dipole Moment


------------------------------------------------------------------------------
                       ORCA ELECTRIC PROPERTIES CALCULATION
------------------------------------------------------------------------------

Dipole Moment Calculation                       ... on
Quadrupole Moment Calculation                   ... off
Polarizability Calculation                      ... off
GBWName                                         ... H2.gbw
Electron density file                           ... H2.scfp
The origin for moment calculation is the CENTER OF MASS  = ( 0.000000,  0.000000  4.414509)

-------------
DIPOLE MOMENT
-------------
                                X             Y             Z
Electronic contribution:     -0.00000      -0.00000       0.00000
Nuclear contribution   :      0.00000       0.00000       0.00000
                        -----------------------------------------
Total Dipole Moment    :      0.00000       0.00000       0.00000
                        -----------------------------------------
Magnitude (a.u.)       :      0.00000
Magnitude (Debye)      :      0.00000



--------------------
Rotational spectrum 
--------------------
 
Rotational constants in cm-1:     0.000000     1.532284     1.532284 
Rotational constants in MHz :     0.000000 45936.713016 45936.713016 

 Dipole components along the rotational axes: 
x,y,z [a.u.] :     0.000000     0.000000     0.000000 
x,y,z [Debye]:     0.000001     0.000000     0.000000 

 

         *************************************************************
                                TRAJECTORY STEP  46
                  R  :   4.77200000
         *************************************************************
---------------------------------
CARTESIAN COORDINATES (ANGSTROEM)
---------------------------------
  H      0.000000    0.000000    0.000000
  H      0.000000    0.000000    4.772000

----------------------------
CARTESIAN COORDINATES (A.U.)
----------------------------
  NO LB      ZA    FRAG     MASS         X           Y           Z
   0 H     1.0000    0     1.008    0.000000    0.000000    0.000000
   1 H     1.0000    0     1.008    0.000000    0.000000    9.017773

--------------------------------
INTERNAL COORDINATES (ANGSTROEM)
--------------------------------
 H      0   0   0     0.000000000000     0.00000000     0.00000000
 H      1   0   0     4.772000000000     0.00000000     0.00000000

---------------------------
INTERNAL COORDINATES (A.U.)
---------------------------
 H      0   0   0     0.000000000000     0.00000000     0.00000000
 H      1   0   0     9.017773111072     0.00000000     0.00000000


Diagonalization of the overlap matrix:
Smallest eigenvalue                        ... 3.410e-01
Time for diagonalization                   ...    0.000 sec
Threshold for overlap eigenvalues          ... 1.000e-08
Number of eigenvalues below threshold      ... 0
Time for construction of square roots      ...    0.000 sec
Total time needed                          ...    0.001 sec

-------------------
DFT GRID GENERATION
-------------------

General Integration Accuracy     IntAcc      ...  4.670
Radial Grid Type                 RadialGrid  ... Gauss-Chebyshev
Angular Grid (max. acc.)         AngularGrid ... Lebedev-302
Angular grid pruning method      GridPruning ... 3 (G Style)
Weight generation scheme         WeightScheme... Becke
Basis function cutoff            BFCut       ...    1.0000e-10
Integration weight cutoff        WCut        ...    1.0000e-14
Grids for H and He will be reduced by one unit

# of grid points (after initial pruning)     ...   6788 (   0.0 sec)
# of grid points (after weights+screening)   ...   6782 (   0.0 sec)
nearest neighbour list constructed           ...    0.0 sec
Grid point re-assignment to atoms done       ...    0.0 sec
Grid point division into batches done        ...    0.0 sec
Reduced shell lists constructed in    0.0 sec

Total number of grid points                  ...     6782
Total number of batches                      ...      106
Average number of points per batch           ...       63
Average number of grid points per atom       ...     3391
Average number of shells per batch           ...     2.94 (73.60%)
Average number of basis functions per batch  ...     2.94 (73.60%)
Average number of large shells per batch     ...     2.19 (74.29%)
Average number of large basis fcns per batch ...     2.19 (74.29%)
Maximum spatial batch extension              ...  22.27, 22.27, 14.44 au
Average spatial batch extension              ...   4.60,  4.69,  4.49 au

Time for grid setup =    0.024 sec

--------------
SCF ITERATIONS
--------------
ITER       Energy         Delta-E        Max-DP      RMS-DP      [F,P]   Gradient Norm
               ***  Starting incremental Fock matrix formation  ***
                             ****Resetting KDIIS****
                             ****Turning on KDIIS(Cayley)****
  0     -0.8305775179   0.000000000000 0.00002356  0.00001107  0.0001673   0.000167270
                          ***Energy convergence achieved***
  1     -0.8305775272  -0.000000009352 0.00004655  0.00002188  0.0001519   0.000151893
Warning: badly conditioned DIIS matrix, 1 vectors out of 3 destroyed
  2     -0.8305775430  -0.000000015814 0.00007450  0.00003500  0.0001215   0.000121514
  3     -0.8305775611  -0.000000018027 0.00011171  0.00005250  0.0000729   0.000072908
Warning: badly conditioned DIIS matrix, 1 vectors out of 4 destroyed
                           ***RMSP convergence achieved***
                           ***MAXP convergence achieved***
                    *** KDIIS BlockDiag ( 0.645 sec) ***

               *****************************************************
               *                     SUCCESS                       *
               *           SCF CONVERGED AFTER   4 CYCLES          *
               *****************************************************

Setting up the final grid:

General Integration Accuracy     IntAcc      ...  5.010
Radial Grid Type                 RadialGrid  ... Gauss-Chebyshev
Angular Grid (max. acc.)         AngularGrid ... Lebedev-434
Angular grid pruning method      GridPruning ... 3 (G Style)
Weight generation scheme         WeightScheme... Becke
Basis function cutoff            BFCut       ...    1.0000e-10
Integration weight cutoff        WCut        ...    1.0000e-14
Grids for H and He will be reduced by one unit

# of grid points (after initial pruning)     ...  13384 (   0.0 sec)
# of grid points (after weights+screening)   ...  13378 (   0.0 sec)
nearest neighbour list constructed           ...    0.0 sec
Grid point re-assignment to atoms done       ...    0.0 sec
Grid point division into batches done        ...    0.1 sec
Reduced shell lists constructed in    0.1 sec

Total number of grid points                  ...    13378
Total number of batches                      ...      210
Average number of points per batch           ...       63
Average number of grid points per atom       ...     6689
Average number of shells per batch           ...     2.83 (70.85%)
Average number of basis functions per batch  ...     2.83 (70.85%)
Average number of large shells per batch     ...     2.09 (73.91%)
Average number of large basis fcns per batch ...     2.09 (73.91%)
Maximum spatial batch extension              ...  26.24, 17.72, 13.77 au
Average spatial batch extension              ...   3.73,  3.48,  3.22 au

Final grid set up in    0.1 sec
Final integration                            ... done (   0.1 sec)
Change in XC energy                          ...     0.000001931
Integrated number of electrons               ...     2.000003112
Previous integrated no of electrons          ...     1.999992842
Total Energy       :           -0.83057564 Eh             -22.60111 eV
  Last Energy change         ...   -1.0141e-08  Tolerance :   1.0000e-06
  Last MAX-Density change    ...    4.7173e-10  Tolerance :   1.0000e-05
             **** THE GBW FILE WAS UPDATED (H2.gbw) ****
             **** DENSITY FILE WAS UPDATED (H2.scfp) ****
             **** ENERGY FILE WAS UPDATED (H2.en.tmp) ****
             **** THE GBW FILE WAS UPDATED (H2.gbw) ****
             **** DENSITY FILE WAS UPDATED (H2.scfp) ****
Total SCF time: 0 days 0 hours 0 min 0 sec 

-------------------------   --------------------
FINAL SINGLE POINT ENERGY        -0.830575640243
-------------------------   --------------------

Storing actual gbw-file in H2.046.gbw ... done

                            ***************************************
                            *     ORCA property calculations      *
                            ***************************************

                                    ---------------------
                                    Active property flags
                                    ---------------------
   (+) Dipole Moment


------------------------------------------------------------------------------
                       ORCA ELECTRIC PROPERTIES CALCULATION
------------------------------------------------------------------------------

Dipole Moment Calculation                       ... on
Quadrupole Moment Calculation                   ... off
Polarizability Calculation                      ... off
GBWName                                         ... H2.gbw
Electron density file                           ... H2.scfp
The origin for moment calculation is the CENTER OF MASS  = ( 0.000000,  0.000000  4.508887)

-------------
DIPOLE MOMENT
-------------
                                X             Y             Z
Electronic contribution:     -0.00000      -0.00000       0.00000
Nuclear contribution   :      0.00000       0.00000      -0.00000
                        -----------------------------------------
Total Dipole Moment    :      0.00000       0.00000       0.00000
                        -----------------------------------------
Magnitude (a.u.)       :      0.00000
Magnitude (Debye)      :      0.00000



--------------------
Rotational spectrum 
--------------------
 
Rotational constants in cm-1:     0.000000     1.468810     1.468810 
Rotational constants in MHz :     0.000000 44033.803241 44033.803241 

 Dipole components along the rotational axes: 
x,y,z [a.u.] :     0.000000     0.000000     0.000000 
x,y,z [Debye]:     0.000000     0.000000     0.000000 

 
                              **** TRAJECTORY DONE ***

                         SUMMARY OF THE CALCULATED SURFACE

------------------
TRAJECTORY RESULTS
------------------

Column   1: R

The Calculated Surface using the 'Actual Energy'
   0.27720000  -0.57051643
   0.37708444  -0.92167604
   0.47696889  -1.07399746
   0.57685333  -1.13997387
   0.67673778  -1.16412442
   0.77662222  -1.16679030
   0.87650667  -1.15818335
   0.97639111  -1.14375946
   1.07627556  -1.12652651
   1.17616000  -1.10816393
   1.27604444  -1.08962759
   1.37592889  -1.07144512
   1.47581333  -1.05391461
   1.57569778  -1.03719067
   1.67558222  -1.02134288
   1.77546667  -1.00641215
   1.87535111  -0.99238838
   1.97523556  -0.97926014
   2.07512000  -0.96700105
   2.17500444  -0.95556708
   2.27488889  -0.94491441
   2.37477333  -0.93499206
   2.47465778  -0.92575835
   2.57454222  -0.91716716
   2.67442667  -0.90916858
   2.77431111  -0.90173162
   2.87419556  -0.89481710
   2.97408000  -0.88840110
   3.07396444  -0.88245366
   3.17384889  -0.87695053
   3.27373333  -0.87186152
   3.37361778  -0.86717197
   3.47350222  -0.86285984
   3.57338667  -0.85889925
   3.67327111  -0.85526660
   3.77315556  -0.85193984
   3.87304000  -0.84889477
   3.97292444  -0.84610653
   4.07280889  -0.84355439
   4.17269333  -0.84121605
   4.27257778  -0.83906854
   4.37246222  -0.83709305
   4.47234667  -0.83527243
   4.57223111  -0.83358982
   4.67211556  -0.83202874
   4.77200000  -0.83057564

                        *******************************
                        *   FIT OF THE ACT-ENERGY PES *
                        *******************************
-------------------------------
POTENTIAL ENERGY SURFACE =   0
-------------------------------

Minimum found after 19 iterations
Equilibrium distance and its energy from the interpolated PES:
  Re      =   0.74388 Angstroem  (  1.40574 Bohr)
  E(Re)   =    -1.167467 Eh 
  dE/dR   = 9.829e-11 (-4.177e-02 CHEB)
  d2E/dR2 =    0.373709 (   1.027366 CHEB) (   0.587247 NUM)
  d3E/dR3 =   -0.980523 (  -3.619573 CHEB)

Spectroscopic constants:
  we =    4444.1 cm**-1 (based on SPLINE)
  we =    7368.6 cm**-1 (based on CHEB)
  we =    5571.0 cm**-1 (based on NUM)

Performing Morse fit ...
Morse-Fit Results:
 Te(adiabatic)   =   -4386.4 cm**-1         = -0.544 eV
 d2E/dR**2 (Morse)=      0.428905200 
 d3E/dR**3 (Morse)=     -1.027899912 
 d4E/dR**4 (Morse)=      1.916001641 
 E0               =     -1.187452460 Eh  RMS=1.96e-05
 Re               =   0.82643 Angstroem      =  1.56173 Bohr RMS=9.93e-05)
 De(Morse)        =   9.14419 eV             =  73752.9 cm**-1 RMS=1.44e-05
 D0(Morse)        =   8.84905 eV
 beta             =   0.79886 au          RMS=9.08e-05
 we               =   4761.0 cm**-1
 wexe             =     76.8 cm**-1
 Displacement   =    0.0825 Angstroem      =  0.15600 Bohr

The Calculated Surface using the SCF energy
   0.27720000  -0.57051643
   0.37708444  -0.92167604
   0.47696889  -1.07399746
   0.57685333  -1.13997387
   0.67673778  -1.16412442
   0.77662222  -1.16679030
   0.87650667  -1.15818335
   0.97639111  -1.14375946
   1.07627556  -1.12652651
   1.17616000  -1.10816393
   1.27604444  -1.08962759
   1.37592889  -1.07144512
   1.47581333  -1.05391461
   1.57569778  -1.03719067
   1.67558222  -1.02134288
   1.77546667  -1.00641215
   1.87535111  -0.99238838
   1.97523556  -0.97926014
   2.07512000  -0.96700105
   2.17500444  -0.95556708
   2.27488889  -0.94491441
   2.37477333  -0.93499206
   2.47465778  -0.92575835
   2.57454222  -0.91716716
   2.67442667  -0.90916858
   2.77431111  -0.90173162
   2.87419556  -0.89481710
   2.97408000  -0.88840110
   3.07396444  -0.88245366
   3.17384889  -0.87695053
   3.27373333  -0.87186152
   3.37361778  -0.86717197
   3.47350222  -0.86285984
   3.57338667  -0.85889925
   3.67327111  -0.85526660
   3.77315556  -0.85193984
   3.87304000  -0.84889477
   3.97292444  -0.84610653
   4.07280889  -0.84355439
   4.17269333  -0.84121605
   4.27257778  -0.83906854
   4.37246222  -0.83709305
   4.47234667  -0.83527243
   4.57223111  -0.83358982
   4.67211556  -0.83202874
   4.77200000  -0.83057564

                        *******************************
                        *       FIT OF THE SCF PES    *
                        *******************************
-------------------------------
POTENTIAL ENERGY SURFACE =   0
-------------------------------

Minimum found after 19 iterations
Equilibrium distance and its energy from the interpolated PES:
  Re      =   0.74388 Angstroem  (  1.40574 Bohr)
  E(Re)   =    -1.167467 Eh 
  dE/dR   = 9.829e-11 (-4.177e-02 CHEB)
  d2E/dR2 =    0.373709 (   1.027366 CHEB) (   0.587247 NUM)
  d3E/dR3 =   -0.980523 (  -3.619573 CHEB)

Spectroscopic constants:
  we =    4444.1 cm**-1 (based on SPLINE)
  we =    7368.6 cm**-1 (based on CHEB)
  we =    5571.0 cm**-1 (based on NUM)

Performing Morse fit ...
Morse-Fit Results:
 Te(adiabatic)   =   -4386.4 cm**-1         = -0.544 eV
 d2E/dR**2 (Morse)=      0.428905200 
 d3E/dR**3 (Morse)=     -1.027899912 
 d4E/dR**4 (Morse)=      1.916001641 
 E0               =     -1.187452460 Eh  RMS=1.96e-05
 Re               =   0.82643 Angstroem      =  1.56173 Bohr RMS=9.93e-05)
 De(Morse)        =   9.14419 eV             =  73752.9 cm**-1 RMS=1.44e-05
 D0(Morse)        =   8.84905 eV
 beta             =   0.79886 au          RMS=9.08e-05
 we               =   4761.0 cm**-1
 wexe             =     76.8 cm**-1
 Displacement   =    0.0825 Angstroem      =  0.15600 Bohr


Timings for individual modules:

Sum of individual times         ...       49.595 sec (=   0.827 min)
GTO integral calculation        ...       10.341 sec (=   0.172 min)  20.9 %
SCF iterations                  ...       39.253 sec (=   0.654 min)  79.1 %
                             ****ORCA TERMINATED NORMALLY****
TOTAL RUN TIME: 0 days 0 hours 0 minutes 53 seconds 569 msec
