
                                 *****************
                                 * O   R   C   A *
                                 *****************

           --- An Ab Initio, DFT and Semiempirical electronic structure package ---

                  #######################################################
                  #                        -***-                        #
                  #          Department of theory and spectroscopy      #
                  #               Directorship: Frank Neese             #
                  #        Max Planck Institute fuer Kohlenforschung    #
                  #                Kaiser Wilhelm Platz 1               #
                  #                 D-45470 Muelheim/Ruhr               #
                  #                      Germany                        #
                  #                                                     #
                  #                  All rights reserved                #
                  #                        -***-                        #
                  #######################################################


                         Program Version 4.2.0 -  RELEASE  -


 With contributions from (in alphabetic order):
   Daniel Aravena         : Magnetic Suceptibility
   Michael Atanasov       : Ab Initio Ligand Field Theory (pilot matlab implementation)
   Alexander A. Auer      : GIAO ZORA, VPT2
   Ute Becker             : Parallelization
   Giovanni Bistoni       : ED, misc. LED, open-shell LED, HFLED
   Martin Brehm           : Molecular dynamics
   Dmytro Bykov           : SCF Hessian
   Vijay G. Chilkuri      : MRCI spin determinant printing, contributions to CSF-ICE
   Dipayan Datta          : RHF DLPNO-CCSD density
   Achintya Kumar Dutta   : EOM-CC, STEOM-CC
   Dmitry Ganyushin       : Spin-Orbit,Spin-Spin,Magnetic field MRCI
   Miquel Garcia          : C-PCM Hessian, Gaussian charge scheme
   Yang Guo               : DLPNO-NEVPT2, CIM, IAO-localization
   Andreas Hansen         : Spin unrestricted coupled pair/coupled cluster methods
   Benjamin Helmich-Paris : CASSCF linear response (MC-RPA)
   Lee Huntington         : MR-EOM, pCC
   Robert Izsak           : Overlap fitted RIJCOSX, COSX-SCS-MP3, EOM
   Christian Kollmar      : KDIIS, OOCD, Brueckner-CCSD(T), CCSD density
   Simone Kossmann        : Meta GGA functionals, TD-DFT gradient, OOMP2, MP2 Hessian
   Martin Krupicka        : AUTO-CI
   Lucas Lang             : DCDCAS
   Dagmar Lenk            : GEPOL surface, SMD
   Dimitrios Liakos       : Extrapolation schemes; Compound Job, initial MDCI parallelization
   Dimitrios Manganas     : Further ROCIS development; embedding schemes
   Dimitrios Pantazis     : SARC Basis sets
   Taras Petrenko         : DFT Hessian,TD-DFT gradient, ASA, ECA, R-Raman, ABS, FL, XAS/XES, NRVS
   Peter Pinski           : DLPNO-MP2, DLPNO-MP2 Gradient
   Christoph Reimann      : Effective Core Potentials
   Marius Retegan         : Local ZFS, SOC
   Christoph Riplinger    : Optimizer, TS searches, QM/MM, DLPNO-CCSD(T), (RO)-DLPNO pert. Triples
   Tobias Risthaus        : Range-separated hybrids, TD-DFT gradient, RPA, STAB
   Michael Roemelt        : Original ROCIS implementation
   Masaaki Saitow         : Open-shell DLPNO-CCSD energy and density
   Barbara Sandhoefer     : DKH picture change effects
   Avijit Sen             : IP-ROCIS
   Kantharuban Sivalingam : CASSCF convergence, NEVPT2, FIC-MRCI
   Bernardo de Souza      : ESD, SOC TD-DFT
   Georgi Stoychev        : AutoAux, RI-MP2 NMR
   Willem Van den Heuvel  : Paramagnetic NMR
   Boris Wezisla          : Elementary symmetry handling
   Frank Wennmohs         : Technical directorship


 We gratefully acknowledge several colleagues who have allowed us to
 interface, adapt or use parts of their codes:
   Stefan Grimme, W. Hujo, H. Kruse,             : VdW corrections, initial TS optimization,
                  C. Bannwarth                     DFT functionals, gCP, sTDA/sTD-DF
   Ed Valeev, F. Pavosevic, A. Kumar             : LibInt (2-el integral package), F12 methods
   Garnet Chan, S. Sharma, J. Yang, R. Olivares  : DMRG
   Ulf Ekstrom                                   : XCFun DFT Library
   Mihaly Kallay                                 : mrcc  (arbitrary order and MRCC methods)
   Andreas Klamt, Michael Diedenhofen            : otool_cosmo (COSMO solvation model)
   Jiri Pittner, Ondrej Demel                    : Mk-CCSD
   Frank Weinhold                                : gennbo (NPA and NBO analysis)
   Christopher J. Cramer and Donald G. Truhlar   : smd solvation model
   Lars Goerigk                                  : TD-DFT with DH, B97 family of functionals
   V. Asgeirsson, H. Jonsson                     : NEB implementation
   FAccTs GmbH                                   : IRC, NEB, NEB-TS, Multilevel, MM, QM/MM, CI optimization
   S Lehtola, MJT Oliveira, MAL Marques          : LibXC Library


 Your calculation uses the libint2 library for the computation of 2-el integrals
 For citations please refer to: http://libint.valeyev.net

 Your ORCA version has been built with support for libXC version: 4.2.3
 For citations please refer to: https://tddft.org/programs/libxc/

 This ORCA versions uses:
   CBLAS   interface :  Fast vector & matrix operations
   LAPACKE interface :  Fast linear algebra routines
   SCALAPACK package :  Parallel linear algebra routines


XCFun DFT library Copyright 2009-2010 Ulf Ekstrom and contributors.
See http://admol.org/xcfun for more information. This is free soft-
ware; see the source code for copying conditions. There is ABSOLUTELY
NO WARRANTY; not even for MERCHANTABILITY or FITNESS FOR A PARTICULAR
PURPOSE. For details see the documentation. Scientific users of this 
library should cite U. Ekstrom, L. Visscher, R. Bast, A. J. Thorvald-
sen and K. Ruud; J.Chem.Theor.Comp. 2010, DOI: 10.1021/ct100117s
XCFun Version 0.99 
----- Orbital basis set information -----
Your calculation utilizes the basis: 6-31G(d)
   H-He, Li-Ne : W. J. Hehre, R. Ditchfield and J.A. Pople, J. Chem. Phys. 56, 2257 (1972).
                 Note: He and Ne are unpublished basis sets taken from the Gaussian program.
                 Note: Li and B from J. D. Dill and J. A. Pople, J. Chem. Phys. 62, 2921 (1975).
   Na - Ar     : M. M. Francl, W. J. Pietro, W. J. Hehre, J. S. Binkley, M. S. Gordon, 
                 D. J. DeFrees and J. A. Pople, J. Chem. Phys. 77, 3654 (1982).
   K - Zn      : V. A. Rassolov, J. A. Pople, M. A. Ratner, and T. L. Windus, J. Chem. Phys. 109, 1223 (1998).

================================================================================
                                        WARNINGS
                       Please study these warnings very carefully!
================================================================================


INFO   : the flag for use of LIBINT has been found!

================================================================================
                                       INPUT FILE
================================================================================
NAME = H2CCH2.inp
|  1> ! wB97X 6-31G(d) KDIIS NOSOSCF VerySlowConv Grid4
|  2> %paras
|  3> R= 0.8163,5.3163,46
|  4> RH=1.0777
|  5> A=122.05
|  6> end
|  7> * int 0  1
|  8>  C 0 0 0 0 0 0
|  9>  C 1 0 0 {R} 0 0
| 10>  H 1 2 0 {RH} {A}     0
| 11>  H 1 2 3 {RH} {A}   180.0
| 12>  H 2 1 3 {RH} {A}     0.0
| 13>  H 2 1 3 {RH} {A}   180.0
| 14> *
| 15> 
| 16>                          ****END OF INPUT****
================================================================================

                       ******************************
                       * Parameter Scan Calculation *
                       ******************************

Trajectory settings:
    -> SCF surface will be mapped

There are 1 parameter(s) to be scanned
             R: range=   0.81630000 ..   5.31630000  steps=   46
There will be   46 energy evaluations


         *************************************************************
                                TRAJECTORY STEP   1
                  R  :   0.81630000
         *************************************************************
---------------------------------
CARTESIAN COORDINATES (ANGSTROEM)
---------------------------------
  C      0.000000    0.000000    0.000000
  C      0.816300    0.000000    0.000000
  H     -0.571891    0.913443    0.000000
  H     -0.571891   -0.913443   -0.000000
  H      1.388191    0.913443    0.000000
  H      1.388191   -0.913443    0.000000

----------------------------
CARTESIAN COORDINATES (A.U.)
----------------------------
  NO LB      ZA    FRAG     MASS         X           Y           Z
   0 C     6.0000    0    12.011    0.000000    0.000000    0.000000
   1 C     6.0000    0    12.011    1.542583    0.000000    0.000000
   2 H     1.0000    0     1.008   -1.080718    1.726157    0.000000
   3 H     1.0000    0     1.008   -1.080718   -1.726157   -0.000000
   4 H     1.0000    0     1.008    2.623301    1.726157    0.000000
   5 H     1.0000    0     1.008    2.623301   -1.726157    0.000000

--------------------------------
INTERNAL COORDINATES (ANGSTROEM)
--------------------------------
 C      0   0   0     0.000000000000     0.00000000     0.00000000
 C      1   0   0     0.816300000000     0.00000000     0.00000000
 H      1   2   0     1.077700000000   122.05000000     0.00000000
 H      1   2   3     1.077700000000   122.05000000   180.00000000
 H      2   1   3     1.077700000000   122.05000000     0.00000000
 H      2   1   3     1.077700000000   122.05000000   180.00000000

---------------------------
INTERNAL COORDINATES (A.U.)
---------------------------
 C      0   0   0     0.000000000000     0.00000000     0.00000000
 C      1   0   0     1.542583443120     0.00000000     0.00000000
 H      1   2   0     2.036557854527   122.05000000     0.00000000
 H      1   2   3     2.036557854527   122.05000000   180.00000000
 H      2   1   3     2.036557854527   122.05000000     0.00000000
 H      2   1   3     2.036557854527   122.05000000   180.00000000

---------------------
BASIS SET INFORMATION
---------------------
There are 2 groups of distinct atoms

 Group   1 Type C   : 10s4p1d contracted to 3s2p1d pattern {631/31/1}
 Group   2 Type H   : 4s contracted to 2s pattern {31}

Atom   0C    basis set group =>   1
Atom   1C    basis set group =>   1
Atom   2H    basis set group =>   2
Atom   3H    basis set group =>   2
Atom   4H    basis set group =>   2
Atom   5H    basis set group =>   2
------------------------------------------------------------------------------
                           ORCA GTO INTEGRAL CALCULATION
------------------------------------------------------------------------------

                         BASIS SET STATISTICS AND STARTUP INFO

 # of primitive gaussian shells          ...   46
 # of primitive gaussian functions       ...   70
 # of contracted shells                  ...   20
 # of contracted basis functions         ...   36
 Highest angular momentum                ...    2
 Maximum contraction depth               ...    6
 Integral package used                   ... LIBINT
 Integral threshhold            Thresh   ...  1.000e-10
 Primitive cut-off              TCut     ...  1.000e-11


------------------------------ INTEGRAL EVALUATION ----------------------------


 * One electron integrals 
 Pre-screening matrix                    ... done
 Shell pair data                         ... done (   0.000 sec)

-------------------------------------------------------------------------------
                                 ORCA SCF
-------------------------------------------------------------------------------

------------
SCF SETTINGS
------------
Hamiltonian:
 Density Functional     Method          .... DFT(GTOs)
 Exchange Functional    Exchange        .... WB97X
 Correlation Functional Correlation     .... WB97X
 Gradients option       PostSCFGGA      .... off
 Hybrid DFT is turned on
   Fraction HF Exchange ScalHFX         ....  0.157706
   Scaling of DF-GGA-X  ScalDFX         ....  0.000000
   Scaling of DF-GGA-C  ScalDFC         ....  1.000000
   Scaling of DF-LDA-C  ScalLDAC        ....  1.000000
   Perturbative correction              ....  0.000000
   Density functional embedding theory  .... OFF
 Long-range corrected/Screened/Range-Separated Hybrid DFT is turned on
   Amount of maximum screened exact exchange              ....  0.842294
   Range separation parameter mu (erf(mu*r12)/r12)        ....  0.300000


General Settings:
 Integral files         IntName         .... H2CCH2
 Hartree-Fock type      HFTyp           .... RHF
 Total Charge           Charge          ....    0
 Multiplicity           Mult            ....    1
 Number of Electrons    NEL             ....   16
 Basis Dimension        Dim             ....   36
 Nuclear Repulsion      ENuc            ....     44.2789720927 Eh

Convergence Acceleration:
 DIIS                   CNVDIIS         .... on
   Start iteration      DIISMaxIt       ....     0
   Startup error        DIISStart       ....  0.200000
   # of expansion vecs  DIISMaxEq       ....     5
   Bias factor          DIISBfac        ....   1.050
   Max. coefficient     DIISMaxC        ....  10.000
 Newton-Raphson         CNVNR           .... off
 SOSCF                  CNVSOSCF        .... off
 Level Shifting         CNVShift        .... off
 Zerner damping         CNVZerner       .... off
 Static damping         CNVDamp         .... off
 Fernandez-Rico         CNVRico         .... off

SCF Procedure:
 Maximum # iterations   MaxIter         ....   125
 SCF integral mode      SCFMode         .... Direct
   Integral package                     .... LIBINT
 Reset frequency        DirectResetFreq ....    20
 Integral Threshold     Thresh          ....  1.000e-10 Eh
 Primitive CutOff       TCut            ....  1.000e-11 Eh

Convergence Tolerance:
 Convergence Check Mode ConvCheckMode   .... All-Criteria
 Convergence forced     ConvForced      .... 0
 Energy Change          TolE            ....  1.000e-06 Eh
 Max Density Change     TolMaxP         ....  1.000e-05
 RMS Density Change     TolRMSP         ....  1.000e-06
 DIIS Error             TolErr          ....  1.000e-06


Diagonalization of the overlap matrix:
Smallest eigenvalue                        ... 6.154e-04
Time for diagonalization                   ...    0.001 sec
Threshold for overlap eigenvalues          ... 1.000e-08
Number of eigenvalues below threshold      ... 0
Time for construction of square roots      ...    0.000 sec
Total time needed                          ...    0.001 sec

-------------------
DFT GRID GENERATION
-------------------

General Integration Accuracy     IntAcc      ...  4.670
Radial Grid Type                 RadialGrid  ... Gauss-Chebyshev
Angular Grid (max. acc.)         AngularGrid ... Lebedev-302
Angular grid pruning method      GridPruning ... 3 (G Style)
Weight generation scheme         WeightScheme... Becke
Basis function cutoff            BFCut       ...    1.0000e-10
Integration weight cutoff        WCut        ...    1.0000e-14
Grids for H and He will be reduced by one unit

# of grid points (after initial pruning)     ...  26000 (   0.0 sec)
# of grid points (after weights+screening)   ...  25008 (   0.0 sec)
nearest neighbour list constructed           ...    0.0 sec
Grid point re-assignment to atoms done       ...    0.0 sec
Grid point division into batches done        ...    0.1 sec
Reduced shell lists constructed in    0.1 sec

Total number of grid points                  ...    25008
Total number of batches                      ...      395
Average number of points per batch           ...       63
Average number of grid points per atom       ...     4168
Average number of shells per batch           ...    16.63 (83.16%)
Average number of basis functions per batch  ...    30.30 (84.16%)
Average number of large shells per batch     ...    15.34 (92.23%)
Average number of large basis fcns per batch ...    28.30 (93.42%)
Maximum spatial batch extension              ...  21.77, 16.41, 23.20 au
Average spatial batch extension              ...   3.06,  2.90,  3.51 au

Time for grid setup =    0.146 sec

------------------------------
INITIAL GUESS: MODEL POTENTIAL
------------------------------
Loading Hartree-Fock densities                     ... done
Calculating cut-offs                               ... done
Setting up the integral package                    ... done
Initializing the effective Hamiltonian             ... done
Starting the Coulomb interaction                   ... done (   0.0 sec)
Reading the grid                                   ... done
Mapping shells                                     ... done
Starting the XC term evaluation                    ... done (   0.1 sec)
  promolecular density results
     # of electrons  =     15.998047920
     EX              =    -11.627951355
     EC              =     -0.510490223
     EX+EC           =    -12.138441578
Transforming the Hamiltonian                       ... done (   0.0 sec)
Diagonalizing the Hamiltonian                      ... done (   0.0 sec)
Back transforming the eigenvectors                 ... done (   0.0 sec)
Now organizing SCF variables                       ... done
                      ------------------
                      INITIAL GUESS DONE (   0.3 sec)
                      ------------------
--------------
SCF ITERATIONS
--------------
ITER       Energy         Delta-E        Max-DP      RMS-DP      [F,P]   Gradient Norm
               ***  Starting incremental Fock matrix formation  ***
                             ****Resetting KDIIS****
                             ****Turning on KDIIS(Cayley)****
  0    -77.2068175828   0.000000000000 0.05418518  0.00427684  0.2497586   0.227642817
  1    -77.3280922183  -0.121274635558 0.08536791  0.01183187  0.2178610   0.189784515
  2    -77.4850451680  -0.156952949663 0.10254677  0.00891814  0.1509104   0.131298049
  3    -77.5831034177  -0.098058249697 0.08144965  0.00835464  0.0560837   0.063624458
  4    -77.6016787366  -0.018575318940 0.02147909  0.00295071  0.0516246   0.024253946
  5    -77.6067924370  -0.005113700425 0.10889519  0.01370050  0.0355736   0.018394402
  6    -77.6054812853   0.001311151775 0.05053991  0.00630875  0.0458753   0.018146361
  7    -77.6128802338  -0.007398948567 0.00547579  0.00041565  0.0057836   0.003391596
  8    -77.6129881664  -0.000107932527 0.00081100  0.00010128  0.0003795   0.000371963
  9    -77.6129896204  -0.000001454067 0.00016649  0.00002273  0.0000968   0.000084679
                          ***Energy convergence achieved***
 10    -77.6129897163  -0.000000095895 0.00004878  0.00000381  0.0000145   0.000007818

            ***Energy convergence in two consecutive cycles with***
                    ***'reasonable' density convergence***
                       *** signaling convergence ***

                    *** KDIIS BlockDiag ( 4.303 sec) ***

               *****************************************************
               *                     SUCCESS                       *
               *           SCF CONVERGED AFTER  11 CYCLES          *
               *****************************************************

Setting up the final grid:

General Integration Accuracy     IntAcc      ...  5.010
Radial Grid Type                 RadialGrid  ... Gauss-Chebyshev
Angular Grid (max. acc.)         AngularGrid ... Lebedev-434
Angular grid pruning method      GridPruning ... 3 (G Style)
Weight generation scheme         WeightScheme... Becke
Basis function cutoff            BFCut       ...    1.0000e-10
Integration weight cutoff        WCut        ...    1.0000e-14
Grids for H and He will be reduced by one unit

# of grid points (after initial pruning)     ...  48164 (   0.0 sec)
# of grid points (after weights+screening)   ...  46328 (   0.0 sec)
nearest neighbour list constructed           ...    0.0 sec
Grid point re-assignment to atoms done       ...    0.0 sec
Grid point division into batches done        ...    0.3 sec
Reduced shell lists constructed in    0.4 sec

Total number of grid points                  ...    46328
Total number of batches                      ...      726
Average number of points per batch           ...       63
Average number of grid points per atom       ...     7721
Average number of shells per batch           ...    16.31 (81.54%)
Average number of basis functions per batch  ...    29.74 (82.60%)
Average number of large shells per batch     ...    14.89 (91.29%)
Average number of large basis fcns per batch ...    27.58 (92.76%)
Maximum spatial batch extension              ...  16.91, 21.73, 24.11 au
Average spatial batch extension              ...   2.51,  2.48,  2.87 au

Final grid set up in    0.4 sec
Final integration                            ... done (   0.3 sec)
Change in XC energy                          ...    -0.000056776
Integrated number of electrons               ...    16.000002123
Previous integrated no of electrons          ...    15.999993921

----------------
TOTAL SCF ENERGY
----------------

Total Energy       :          -77.61304649 Eh           -2111.95836 eV

Components:
Nuclear Repulsion  :           44.27897209 Eh            1204.89209 eV
Electronic Energy  :         -121.89201859 Eh           -3316.85045 eV
One Electron Energy:         -189.73047173 Eh           -5162.82861 eV
Two Electron Energy:           67.83845314 Eh            1845.97816 eV

Virial components:
Potential Energy   :         -159.78123991 Eh           -4347.86858 eV
Kinetic Energy     :           82.16819342 Eh            2235.91021 eV
Virial Ratio       :            1.94456314


DFT components:
N(Alpha)           :        8.000001061252 electrons
N(Beta)            :        8.000001061252 electrons
N(Total)           :       16.000002122503 electrons
E(XC)              :       -8.820822736564 Eh       
DFET-embed. en.    :        0.000000000000 Eh       

---------------
SCF CONVERGENCE
---------------

  Last Energy change         ...   -1.1107e-09  Tolerance :   1.0000e-06
  Last MAX-Density change    ...    1.5364e-05  Tolerance :   1.0000e-05
  Last RMS-Density change    ...    1.2162e-06  Tolerance :   1.0000e-06
  Last DIIS Error            ...    3.6255e-06  Tolerance :   1.0000e-06

             **** THE GBW FILE WAS UPDATED (H2CCH2.gbw) ****
             **** DENSITY FILE WAS UPDATED (H2CCH2.scfp) ****
             **** ENERGY FILE WAS UPDATED (H2CCH2.en.tmp) ****
             **** THE GBW FILE WAS UPDATED (H2CCH2.gbw) ****
             **** DENSITY FILE WAS UPDATED (H2CCH2.scfp) ****
----------------
ORBITAL ENERGIES
----------------

  NO   OCC          E(Eh)            E(eV) 
   0   2.0000     -10.255460      -279.0653 
   1   2.0000     -10.187902      -277.2269 
   2   2.0000      -0.959310       -26.1042 
   3   2.0000      -0.690937       -18.8013 
   4   2.0000      -0.630449       -17.1554 
   5   2.0000      -0.531762       -14.4700 
   6   2.0000      -0.519908       -14.1474 
   7   2.0000      -0.354569        -9.6483 
   8   0.0000       0.180796         4.9197 
   9   0.0000       0.222712         6.0603 
  10   0.0000       0.267732         7.2854 
  11   0.0000       0.297529         8.0962 
  12   0.0000       0.411455        11.1963 
  13   0.0000       0.480638        13.0788 
  14   0.0000       0.496723        13.5165 
  15   0.0000       0.521290        14.1850 
  16   0.0000       0.777955        21.1692 
  17   0.0000       0.782199        21.2847 
  18   0.0000       0.869996        23.6738 
  19   0.0000       0.915651        24.9161 
  20   0.0000       1.069988        29.1159 
  21   0.0000       1.072989        29.1975 
  22   0.0000       1.151649        31.3380 
  23   0.0000       1.171146        31.8685 
  24   0.0000       1.496826        40.7307 
  25   0.0000       1.624939        44.2168 
  26   0.0000       1.867344        50.8130 
  27   0.0000       1.883216        51.2449 
  28   0.0000       2.004780        54.5528 
  29   0.0000       2.227496        60.6132 
  30   0.0000       2.466123        67.1066 
  31   0.0000       2.519648        68.5631 
  32   0.0000       2.855057        77.6900 
  33   0.0000       3.223003        87.7024 
  34   0.0000       3.381453        92.0140 
  35   0.0000       6.482442       176.3962 

                    ********************************
                    * MULLIKEN POPULATION ANALYSIS *
                    ********************************

-----------------------
MULLIKEN ATOMIC CHARGES
-----------------------
   0 C :   -0.227829
   1 C :   -0.227830
   2 H :    0.113915
   3 H :    0.113915
   4 H :    0.113915
   5 H :    0.113915
Sum of atomic charges:    0.0000000

--------------------------------
MULLIKEN REDUCED ORBITAL CHARGES
--------------------------------
  0 C s       :     3.005488  s :     3.005488
      pz      :     0.981236  p :     3.157086
      px      :     1.174166
      py      :     1.001684
      dz2     :     0.002185  d :     0.065254
      dxz     :     0.018764
      dyz     :     0.000000
      dx2y2   :     0.004067
      dxy     :     0.040238
  1 C s       :     3.005489  s :     3.005489
      pz      :     0.981236  p :     3.157087
      px      :     1.174166
      py      :     1.001685
      dz2     :     0.002185  d :     0.065254
      dxz     :     0.018764
      dyz     :     0.000000
      dx2y2   :     0.004067
      dxy     :     0.040238
  2 H s       :     0.886085  s :     0.886085
  3 H s       :     0.886085  s :     0.886085
  4 H s       :     0.886085  s :     0.886085
  5 H s       :     0.886085  s :     0.886085


                     *******************************
                     * LOEWDIN POPULATION ANALYSIS *
                     *******************************

----------------------
LOEWDIN ATOMIC CHARGES
----------------------
   0 C :   -0.248509
   1 C :   -0.248509
   2 H :    0.124255
   3 H :    0.124255
   4 H :    0.124255
   5 H :    0.124255

-------------------------------
LOEWDIN REDUCED ORBITAL CHARGES
-------------------------------
  0 C s       :     2.781292  s :     2.781292
      pz      :     0.960317  p :     3.241566
      px      :     1.293366
      py      :     0.987883
      dz2     :     0.020457  d :     0.225651
      dxz     :     0.039683
      dyz     :     0.000000
      dx2y2   :     0.046978
      dxy     :     0.118534
  1 C s       :     2.781292  s :     2.781292
      pz      :     0.960317  p :     3.241566
      px      :     1.293366
      py      :     0.987883
      dz2     :     0.020457  d :     0.225651
      dxz     :     0.039683
      dyz     :     0.000000
      dx2y2   :     0.046978
      dxy     :     0.118534
  2 H s       :     0.875745  s :     0.875745
  3 H s       :     0.875745  s :     0.875745
  4 H s       :     0.875745  s :     0.875745
  5 H s       :     0.875745  s :     0.875745


                      *****************************
                      * MAYER POPULATION ANALYSIS *
                      *****************************

  NA   - Mulliken gross atomic population
  ZA   - Total nuclear charge
  QA   - Mulliken gross atomic charge
  VA   - Mayer's total valence
  BVA  - Mayer's bonded valence
  FA   - Mayer's free valence

  ATOM       NA         ZA         QA         VA         BVA        FA
  0 C      6.2278     6.0000    -0.2278     4.0990     4.0990    -0.0000
  1 C      6.2278     6.0000    -0.2278     4.0990     4.0990     0.0000
  2 H      0.8861     1.0000     0.1139     0.9345     0.9345     0.0000
  3 H      0.8861     1.0000     0.1139     0.9345     0.9345     0.0000
  4 H      0.8861     1.0000     0.1139     0.9345     0.9345     0.0000
  5 H      0.8861     1.0000     0.1139     0.9345     0.9345     0.0000

  Mayer bond orders larger than 0.100000
B(  0-C ,  1-C ) :   2.2993 B(  0-C ,  2-H ) :   0.8957 B(  0-C ,  3-H ) :   0.8957 
B(  1-C ,  4-H ) :   0.8957 B(  1-C ,  5-H ) :   0.8957 

-------
TIMINGS
-------

Total SCF time: 0 days 0 hours 0 min 5 sec 

Total time                  ....       5.020 sec
Sum of individual times     ....       4.869 sec  ( 97.0%)

Fock matrix formation       ....       4.152 sec  ( 82.7%)
  XC integration            ....       2.352 sec  ( 56.7% of F)
    Basis function eval.    ....       0.582 sec  ( 24.7% of XC)
    Density eval.           ....       0.177 sec  (  7.5% of XC)
    XC-Functional eval.     ....       1.326 sec  ( 56.4% of XC)
    XC-Potential eval.      ....       0.179 sec  (  7.6% of XC)
Diagonalization             ....       0.004 sec  (  0.1%)
Density matrix formation    ....       0.000 sec  (  0.0%)
Population analysis         ....       0.001 sec  (  0.0%)
Initial guess               ....       0.163 sec  (  3.2%)
Orbital Transformation      ....       0.000 sec  (  0.0%)
Orbital Orthonormalization  ....       0.000 sec  (  0.0%)
DIIS solution               ....       0.000 sec  (  0.0%)
Grid generation             ....       0.549 sec  ( 10.9%)

-------------------------   --------------------
FINAL SINGLE POINT ENERGY       -77.613046493537
-------------------------   --------------------

Storing actual gbw-file in H2CCH2.001.gbw ... done

                            ***************************************
                            *     ORCA property calculations      *
                            ***************************************

                                    ---------------------
                                    Active property flags
                                    ---------------------
   (+) Dipole Moment


------------------------------------------------------------------------------
                       ORCA ELECTRIC PROPERTIES CALCULATION
------------------------------------------------------------------------------

Dipole Moment Calculation                       ... on
Quadrupole Moment Calculation                   ... off
Polarizability Calculation                      ... off
GBWName                                         ... H2CCH2.gbw
Electron density file                           ... H2CCH2.scfp
The origin for moment calculation is the CENTER OF MASS  = ( 0.771292,  0.000000  0.000000)

-------------
DIPOLE MOMENT
-------------
                                X             Y             Z
Electronic contribution:      0.00000      -0.00000      -0.00000
Nuclear contribution   :     -0.00000       0.00000       0.00000
                        -----------------------------------------
Total Dipole Moment    :      0.00000      -0.00000      -0.00000
                        -----------------------------------------
Magnitude (a.u.)       :      0.00000
Magnitude (Debye)      :      0.00000



--------------------
Rotational spectrum 
--------------------
 
Rotational constants in cm-1:     5.010877     2.140817     1.499976 
Rotational constants in MHz : 150222.315066 64180.073917 44968.152317 

 Dipole components along the rotational axes: 
x,y,z [a.u.] :     0.000000    -0.000000    -0.000000 
x,y,z [Debye]:     0.000000    -0.000000    -0.000000 

 

         *************************************************************
                                TRAJECTORY STEP   2
                  R  :   0.91630000
         *************************************************************
---------------------------------
CARTESIAN COORDINATES (ANGSTROEM)
---------------------------------
  C      0.000000    0.000000    0.000000
  C      0.916300    0.000000    0.000000
  H     -0.571891    0.913443    0.000000
  H     -0.571891   -0.913443   -0.000000
  H      1.488191    0.913443    0.000000
  H      1.488191   -0.913443    0.000000

----------------------------
CARTESIAN COORDINATES (A.U.)
----------------------------
  NO LB      ZA    FRAG     MASS         X           Y           Z
   0 C     6.0000    0    12.011    0.000000    0.000000    0.000000
   1 C     6.0000    0    12.011    1.731556    0.000000    0.000000
   2 H     1.0000    0     1.008   -1.080718    1.726157    0.000000
   3 H     1.0000    0     1.008   -1.080718   -1.726157   -0.000000
   4 H     1.0000    0     1.008    2.812274    1.726157    0.000000
   5 H     1.0000    0     1.008    2.812274   -1.726157    0.000000

--------------------------------
INTERNAL COORDINATES (ANGSTROEM)
--------------------------------
 C      0   0   0     0.000000000000     0.00000000     0.00000000
 C      1   0   0     0.916300000000     0.00000000     0.00000000
 H      1   2   0     1.077700000000   122.05000000     0.00000000
 H      1   2   3     1.077700000000   122.05000000   180.00000000
 H      2   1   3     1.077700000000   122.05000000     0.00000000
 H      2   1   3     1.077700000000   122.05000000   180.00000000

---------------------------
INTERNAL COORDINATES (A.U.)
---------------------------
 C      0   0   0     0.000000000000     0.00000000     0.00000000
 C      1   0   0     1.731556056512     0.00000000     0.00000000
 H      1   2   0     2.036557854527   122.05000000     0.00000000
 H      1   2   3     2.036557854527   122.05000000   180.00000000
 H      2   1   3     2.036557854527   122.05000000     0.00000000
 H      2   1   3     2.036557854527   122.05000000   180.00000000


Diagonalization of the overlap matrix:
Smallest eigenvalue                        ... 1.192e-03
Time for diagonalization                   ...    0.001 sec
Threshold for overlap eigenvalues          ... 1.000e-08
Number of eigenvalues below threshold      ... 0
Time for construction of square roots      ...    0.000 sec
Total time needed                          ...    0.001 sec

-------------------
DFT GRID GENERATION
-------------------

General Integration Accuracy     IntAcc      ...  4.670
Radial Grid Type                 RadialGrid  ... Gauss-Chebyshev
Angular Grid (max. acc.)         AngularGrid ... Lebedev-302
Angular grid pruning method      GridPruning ... 3 (G Style)
Weight generation scheme         WeightScheme... Becke
Basis function cutoff            BFCut       ...    1.0000e-10
Integration weight cutoff        WCut        ...    1.0000e-14
Grids for H and He will be reduced by one unit

# of grid points (after initial pruning)     ...  26000 (   0.0 sec)
# of grid points (after weights+screening)   ...  25042 (   0.0 sec)
nearest neighbour list constructed           ...    0.0 sec
Grid point re-assignment to atoms done       ...    0.0 sec
Grid point division into batches done        ...    0.1 sec
Reduced shell lists constructed in    0.1 sec

Total number of grid points                  ...    25042
Total number of batches                      ...      394
Average number of points per batch           ...       63
Average number of grid points per atom       ...     4174
Average number of shells per batch           ...    16.59 (82.95%)
Average number of basis functions per batch  ...    30.23 (83.97%)
Average number of large shells per batch     ...    15.22 (91.73%)
Average number of large basis fcns per batch ...    28.19 (93.27%)
Maximum spatial batch extension              ...  17.71, 16.41, 19.29 au
Average spatial batch extension              ...   3.06,  2.86,  3.48 au

Time for grid setup =    0.147 sec

--------------
SCF ITERATIONS
--------------
ITER       Energy         Delta-E        Max-DP      RMS-DP      [F,P]   Gradient Norm
               ***  Starting incremental Fock matrix formation  ***
                             ****Resetting KDIIS****
                             ****Turning on KDIIS(Cayley)****
  0    -78.0658894830   0.000000000000 0.00525040  0.00046592  0.0453375   0.035503952
  1    -78.0680289145  -0.002139431557 0.00990672  0.00082622  0.0400781   0.031538821
  2    -78.0708296112  -0.002800696661 0.01869810  0.00153593  0.0333660   0.025810385
  3    -78.0746609189  -0.003831307716 0.02861509  0.00234078  0.0201379   0.015512317
  4    -78.0768428359  -0.002181916941 0.00023247  0.00001931  0.0001373   0.000106756
                          ***Energy convergence achieved***
  5    -78.0768429718  -0.000000135925 0.00001334  0.00000196  0.0000180   0.000012309
                           ***RMSP convergence achieved***
                           ***MAXP convergence achieved***
                    *** KDIIS BlockDiag ( 2.551 sec) ***

               *****************************************************
               *                     SUCCESS                       *
               *           SCF CONVERGED AFTER   6 CYCLES          *
               *****************************************************

Setting up the final grid:

General Integration Accuracy     IntAcc      ...  5.010
Radial Grid Type                 RadialGrid  ... Gauss-Chebyshev
Angular Grid (max. acc.)         AngularGrid ... Lebedev-434
Angular grid pruning method      GridPruning ... 3 (G Style)
Weight generation scheme         WeightScheme... Becke
Basis function cutoff            BFCut       ...    1.0000e-10
Integration weight cutoff        WCut        ...    1.0000e-14
Grids for H and He will be reduced by one unit

# of grid points (after initial pruning)     ...  48164 (   0.0 sec)
# of grid points (after weights+screening)   ...  46388 (   0.0 sec)
nearest neighbour list constructed           ...    0.0 sec
Grid point re-assignment to atoms done       ...    0.0 sec
Grid point division into batches done        ...    0.3 sec
Reduced shell lists constructed in    0.4 sec

Total number of grid points                  ...    46388
Total number of batches                      ...      728
Average number of points per batch           ...       63
Average number of grid points per atom       ...     7731
Average number of shells per batch           ...    16.23 (81.15%)
Average number of basis functions per batch  ...    29.63 (82.31%)
Average number of large shells per batch     ...    14.79 (91.11%)
Average number of large basis fcns per batch ...    27.43 (92.57%)
Maximum spatial batch extension              ...  17.04, 21.79, 24.10 au
Average spatial batch extension              ...   2.54,  2.52,  2.90 au

Final grid set up in    0.4 sec
Final integration                            ... done (   0.3 sec)
Change in XC energy                          ...    -0.000111066
Integrated number of electrons               ...    15.999999980
Previous integrated no of electrons          ...    15.999972164
Total Energy       :          -78.07695404 Eh           -2124.58193 eV
  Last Energy change         ...   -1.6617e-09  Tolerance :   1.0000e-06
  Last MAX-Density change    ...    6.9732e-06  Tolerance :   1.0000e-05
             **** THE GBW FILE WAS UPDATED (H2CCH2.gbw) ****
             **** DENSITY FILE WAS UPDATED (H2CCH2.scfp) ****
             **** ENERGY FILE WAS UPDATED (H2CCH2.en.tmp) ****
             **** THE GBW FILE WAS UPDATED (H2CCH2.gbw) ****
             **** DENSITY FILE WAS UPDATED (H2CCH2.scfp) ****
Total SCF time: 0 days 0 hours 0 min 3 sec 

-------------------------   --------------------
FINAL SINGLE POINT ENERGY       -78.076954039502
-------------------------   --------------------

Storing actual gbw-file in H2CCH2.002.gbw ... done

                            ***************************************
                            *     ORCA property calculations      *
                            ***************************************

                                    ---------------------
                                    Active property flags
                                    ---------------------
   (+) Dipole Moment


------------------------------------------------------------------------------
                       ORCA ELECTRIC PROPERTIES CALCULATION
------------------------------------------------------------------------------

Dipole Moment Calculation                       ... on
Quadrupole Moment Calculation                   ... off
Polarizability Calculation                      ... off
GBWName                                         ... H2CCH2.gbw
Electron density file                           ... H2CCH2.scfp
The origin for moment calculation is the CENTER OF MASS  = ( 0.865778,  0.000000  0.000000)

-------------
DIPOLE MOMENT
-------------
                                X             Y             Z
Electronic contribution:     -0.00000      -0.00000      -0.00000
Nuclear contribution   :      0.00000       0.00000       0.00000
                        -----------------------------------------
Total Dipole Moment    :     -0.00000      -0.00000      -0.00000
                        -----------------------------------------
Magnitude (a.u.)       :      0.00000
Magnitude (Debye)      :      0.00000



--------------------
Rotational spectrum 
--------------------
 
Rotational constants in cm-1:     5.010877     1.808732     1.329011 
Rotational constants in MHz : 150222.315066 54224.427519 39842.743064 

 Dipole components along the rotational axes: 
x,y,z [a.u.] :    -0.000000    -0.000000    -0.000000 
x,y,z [Debye]:    -0.000000    -0.000000    -0.000000 

 

         *************************************************************
                                TRAJECTORY STEP   3
                  R  :   1.01630000
         *************************************************************
---------------------------------
CARTESIAN COORDINATES (ANGSTROEM)
---------------------------------
  C      0.000000    0.000000    0.000000
  C      1.016300    0.000000    0.000000
  H     -0.571891    0.913443    0.000000
  H     -0.571891   -0.913443   -0.000000
  H      1.588191    0.913443    0.000000
  H      1.588191   -0.913443    0.000000

----------------------------
CARTESIAN COORDINATES (A.U.)
----------------------------
  NO LB      ZA    FRAG     MASS         X           Y           Z
   0 C     6.0000    0    12.011    0.000000    0.000000    0.000000
   1 C     6.0000    0    12.011    1.920529    0.000000    0.000000
   2 H     1.0000    0     1.008   -1.080718    1.726157    0.000000
   3 H     1.0000    0     1.008   -1.080718   -1.726157   -0.000000
   4 H     1.0000    0     1.008    3.001247    1.726157    0.000000
   5 H     1.0000    0     1.008    3.001247   -1.726157    0.000000

--------------------------------
INTERNAL COORDINATES (ANGSTROEM)
--------------------------------
 C      0   0   0     0.000000000000     0.00000000     0.00000000
 C      1   0   0     1.016300000000     0.00000000     0.00000000
 H      1   2   0     1.077700000000   122.05000000     0.00000000
 H      1   2   3     1.077700000000   122.05000000   180.00000000
 H      2   1   3     1.077700000000   122.05000000     0.00000000
 H      2   1   3     1.077700000000   122.05000000   180.00000000

---------------------------
INTERNAL COORDINATES (A.U.)
---------------------------
 C      0   0   0     0.000000000000     0.00000000     0.00000000
 C      1   0   0     1.920528669904     0.00000000     0.00000000
 H      1   2   0     2.036557854527   122.05000000     0.00000000
 H      1   2   3     2.036557854527   122.05000000   180.00000000
 H      2   1   3     2.036557854527   122.05000000     0.00000000
 H      2   1   3     2.036557854527   122.05000000   180.00000000


Diagonalization of the overlap matrix:
Smallest eigenvalue                        ... 2.102e-03
Time for diagonalization                   ...    0.001 sec
Threshold for overlap eigenvalues          ... 1.000e-08
Number of eigenvalues below threshold      ... 0
Time for construction of square roots      ...    0.000 sec
Total time needed                          ...    0.001 sec

-------------------
DFT GRID GENERATION
-------------------

General Integration Accuracy     IntAcc      ...  4.670
Radial Grid Type                 RadialGrid  ... Gauss-Chebyshev
Angular Grid (max. acc.)         AngularGrid ... Lebedev-302
Angular grid pruning method      GridPruning ... 3 (G Style)
Weight generation scheme         WeightScheme... Becke
Basis function cutoff            BFCut       ...    1.0000e-10
Integration weight cutoff        WCut        ...    1.0000e-14
Grids for H and He will be reduced by one unit

# of grid points (after initial pruning)     ...  26000 (   0.0 sec)
# of grid points (after weights+screening)   ...  25062 (   0.0 sec)
nearest neighbour list constructed           ...    0.0 sec
Grid point re-assignment to atoms done       ...    0.0 sec
Grid point division into batches done        ...    0.1 sec
Reduced shell lists constructed in    0.1 sec

Total number of grid points                  ...    25062
Total number of batches                      ...      394
Average number of points per batch           ...       63
Average number of grid points per atom       ...     4177
Average number of shells per batch           ...    16.55 (82.77%)
Average number of basis functions per batch  ...    30.19 (83.86%)
Average number of large shells per batch     ...    15.10 (91.24%)
Average number of large basis fcns per batch ...    28.07 (92.96%)
Maximum spatial batch extension              ...  17.71, 16.41, 23.20 au
Average spatial batch extension              ...   3.09,  2.87,  3.59 au

Time for grid setup =    0.149 sec

--------------
SCF ITERATIONS
--------------
ITER       Energy         Delta-E        Max-DP      RMS-DP      [F,P]   Gradient Norm
               ***  Starting incremental Fock matrix formation  ***
                             ****Resetting KDIIS****
                             ****Turning on KDIIS(Cayley)****
  0    -78.3288285128   0.000000000000 0.00424872  0.00036183  0.0378836   0.029905904
  1    -78.3304332299  -0.001604717061 0.00816148  0.00062867  0.0334126   0.026480617
  2    -78.3325159107  -0.002082680839 0.01514473  0.00115183  0.0277442   0.021636845
  3    -78.3352953221  -0.002779411393 0.02325698  0.00174732  0.0167656   0.013021019
  4    -78.3368843782  -0.001589056085 0.00017417  0.00001545  0.0000897   0.000079748
                          ***Energy convergence achieved***
  5    -78.3368844563  -0.000000078046 0.00001196  0.00000155  0.0000110   0.000008682
Warning: badly conditioned DIIS matrix, 1 vectors out of 5 destroyed
                           ***RMSP convergence achieved***
                           ***MAXP convergence achieved***
                    *** KDIIS BlockDiag ( 2.534 sec) ***

               *****************************************************
               *                     SUCCESS                       *
               *           SCF CONVERGED AFTER   6 CYCLES          *
               *****************************************************

Setting up the final grid:

General Integration Accuracy     IntAcc      ...  5.010
Radial Grid Type                 RadialGrid  ... Gauss-Chebyshev
Angular Grid (max. acc.)         AngularGrid ... Lebedev-434
Angular grid pruning method      GridPruning ... 3 (G Style)
Weight generation scheme         WeightScheme... Becke
Basis function cutoff            BFCut       ...    1.0000e-10
Integration weight cutoff        WCut        ...    1.0000e-14
Grids for H and He will be reduced by one unit

# of grid points (after initial pruning)     ...  48164 (   0.0 sec)
# of grid points (after weights+screening)   ...  46418 (   0.0 sec)
nearest neighbour list constructed           ...    0.0 sec
Grid point re-assignment to atoms done       ...    0.0 sec
Grid point division into batches done        ...    0.3 sec
Reduced shell lists constructed in    0.4 sec

Total number of grid points                  ...    46418
Total number of batches                      ...      727
Average number of points per batch           ...       63
Average number of grid points per atom       ...     7736
Average number of shells per batch           ...    16.16 (80.79%)
Average number of basis functions per batch  ...    29.53 (82.04%)
Average number of large shells per batch     ...    14.69 (90.90%)
Average number of large basis fcns per batch ...    27.28 (92.38%)
Maximum spatial batch extension              ...  17.23, 21.38, 24.11 au
Average spatial batch extension              ...   2.56,  2.54,  2.92 au

Final grid set up in    0.4 sec
Final integration                            ... done (   0.3 sec)
Change in XC energy                          ...    -0.000132868
Integrated number of electrons               ...    16.000003707
Previous integrated no of electrons          ...    15.999961702
Total Energy       :          -78.33701733 Eh           -2131.65861 eV
  Last Energy change         ...   -1.1018e-09  Tolerance :   1.0000e-06
  Last MAX-Density change    ...    4.5141e-06  Tolerance :   1.0000e-05
             **** THE GBW FILE WAS UPDATED (H2CCH2.gbw) ****
             **** DENSITY FILE WAS UPDATED (H2CCH2.scfp) ****
             **** ENERGY FILE WAS UPDATED (H2CCH2.en.tmp) ****
             **** THE GBW FILE WAS UPDATED (H2CCH2.gbw) ****
             **** DENSITY FILE WAS UPDATED (H2CCH2.scfp) ****
Total SCF time: 0 days 0 hours 0 min 3 sec 

-------------------------   --------------------
FINAL SINGLE POINT ENERGY       -78.337017325088
-------------------------   --------------------

Storing actual gbw-file in H2CCH2.003.gbw ... done

                            ***************************************
                            *     ORCA property calculations      *
                            ***************************************

                                    ---------------------
                                    Active property flags
                                    ---------------------
   (+) Dipole Moment


------------------------------------------------------------------------------
                       ORCA ELECTRIC PROPERTIES CALCULATION
------------------------------------------------------------------------------

Dipole Moment Calculation                       ... on
Quadrupole Moment Calculation                   ... off
Polarizability Calculation                      ... off
GBWName                                         ... H2CCH2.gbw
Electron density file                           ... H2CCH2.scfp
The origin for moment calculation is the CENTER OF MASS  = ( 0.960264,  0.000000  0.000000)

-------------
DIPOLE MOMENT
-------------
                                X             Y             Z
Electronic contribution:      0.00000      -0.00000       0.00000
Nuclear contribution   :      0.00000       0.00000       0.00000
                        -----------------------------------------
Total Dipole Moment    :      0.00000      -0.00000       0.00000
                        -----------------------------------------
Magnitude (a.u.)       :      0.00000
Magnitude (Debye)      :      0.00000



--------------------
Rotational spectrum 
--------------------
 
Rotational constants in cm-1:     5.010877     1.545699     1.181304 
Rotational constants in MHz : 150222.315066 46338.903193 35414.602010 

 Dipole components along the rotational axes: 
x,y,z [a.u.] :    -0.000000     0.000000     0.000000 
x,y,z [Debye]:    -0.000000     0.000000     0.000000 

 

         *************************************************************
                                TRAJECTORY STEP   4
                  R  :   1.11630000
         *************************************************************
---------------------------------
CARTESIAN COORDINATES (ANGSTROEM)
---------------------------------
  C      0.000000    0.000000    0.000000
  C      1.116300    0.000000    0.000000
  H     -0.571891    0.913443    0.000000
  H     -0.571891   -0.913443   -0.000000
  H      1.688191    0.913443    0.000000
  H      1.688191   -0.913443    0.000000

----------------------------
CARTESIAN COORDINATES (A.U.)
----------------------------
  NO LB      ZA    FRAG     MASS         X           Y           Z
   0 C     6.0000    0    12.011    0.000000    0.000000    0.000000
   1 C     6.0000    0    12.011    2.109501    0.000000    0.000000
   2 H     1.0000    0     1.008   -1.080718    1.726157    0.000000
   3 H     1.0000    0     1.008   -1.080718   -1.726157   -0.000000
   4 H     1.0000    0     1.008    3.190219    1.726157    0.000000
   5 H     1.0000    0     1.008    3.190219   -1.726157    0.000000

--------------------------------
INTERNAL COORDINATES (ANGSTROEM)
--------------------------------
 C      0   0   0     0.000000000000     0.00000000     0.00000000
 C      1   0   0     1.116300000000     0.00000000     0.00000000
 H      1   2   0     1.077700000000   122.05000000     0.00000000
 H      1   2   3     1.077700000000   122.05000000   180.00000000
 H      2   1   3     1.077700000000   122.05000000     0.00000000
 H      2   1   3     1.077700000000   122.05000000   180.00000000

---------------------------
INTERNAL COORDINATES (A.U.)
---------------------------
 C      0   0   0     0.000000000000     0.00000000     0.00000000
 C      1   0   0     2.109501283296     0.00000000     0.00000000
 H      1   2   0     2.036557854527   122.05000000     0.00000000
 H      1   2   3     2.036557854527   122.05000000   180.00000000
 H      2   1   3     2.036557854527   122.05000000     0.00000000
 H      2   1   3     2.036557854527   122.05000000   180.00000000


Diagonalization of the overlap matrix:
Smallest eigenvalue                        ... 3.438e-03
Time for diagonalization                   ...    0.001 sec
Threshold for overlap eigenvalues          ... 1.000e-08
Number of eigenvalues below threshold      ... 0
Time for construction of square roots      ...    0.000 sec
Total time needed                          ...    0.001 sec

-------------------
DFT GRID GENERATION
-------------------

General Integration Accuracy     IntAcc      ...  4.670
Radial Grid Type                 RadialGrid  ... Gauss-Chebyshev
Angular Grid (max. acc.)         AngularGrid ... Lebedev-302
Angular grid pruning method      GridPruning ... 3 (G Style)
Weight generation scheme         WeightScheme... Becke
Basis function cutoff            BFCut       ...    1.0000e-10
Integration weight cutoff        WCut        ...    1.0000e-14
Grids for H and He will be reduced by one unit

# of grid points (after initial pruning)     ...  26000 (   0.0 sec)
# of grid points (after weights+screening)   ...  25100 (   0.0 sec)
nearest neighbour list constructed           ...    0.0 sec
Grid point re-assignment to atoms done       ...    0.0 sec
Grid point division into batches done        ...    0.1 sec
Reduced shell lists constructed in    0.1 sec

Total number of grid points                  ...    25100
Total number of batches                      ...      395
Average number of points per batch           ...       63
Average number of grid points per atom       ...     4183
Average number of shells per batch           ...    16.51 (82.55%)
Average number of basis functions per batch  ...    30.16 (83.78%)
Average number of large shells per batch     ...    14.99 (90.78%)
Average number of large basis fcns per batch ...    27.90 (92.51%)
Maximum spatial batch extension              ...  18.04, 16.41, 23.32 au
Average spatial batch extension              ...   3.09,  2.91,  3.64 au

Time for grid setup =    0.147 sec

--------------
SCF ITERATIONS
--------------
ITER       Energy         Delta-E        Max-DP      RMS-DP      [F,P]   Gradient Norm
               ***  Starting incremental Fock matrix formation  ***
                             ****Resetting KDIIS****
                             ****Turning on KDIIS(Cayley)****
  0    -78.4683621196   0.000000000000 0.00335521  0.00029460  0.0313231   0.024845182
  1    -78.4695143392  -0.001152219532 0.00667190  0.00050722  0.0276539   0.022024880
  2    -78.4710450726  -0.001530733381 0.01222156  0.00092657  0.0229413   0.017984198
  3    -78.4730624873  -0.002017414719 0.01873408  0.00140536  0.0138567   0.010825496
  4    -78.4742148815  -0.001152394222 0.00011836  0.00001179  0.0000647   0.000057662
                          ***Energy convergence achieved***
                           ***MAXP convergence achieved***
  5    -78.4742149247  -0.000000043162 0.00000692  0.00000108  0.0000063   0.000006057
Warning: badly conditioned DIIS matrix, 1 vectors out of 5 destroyed
                           ***RMSP convergence achieved***
                    *** KDIIS BlockDiag ( 2.525 sec) ***

               *****************************************************
               *                     SUCCESS                       *
               *           SCF CONVERGED AFTER   6 CYCLES          *
               *****************************************************

Setting up the final grid:

General Integration Accuracy     IntAcc      ...  5.010
Radial Grid Type                 RadialGrid  ... Gauss-Chebyshev
Angular Grid (max. acc.)         AngularGrid ... Lebedev-434
Angular grid pruning method      GridPruning ... 3 (G Style)
Weight generation scheme         WeightScheme... Becke
Basis function cutoff            BFCut       ...    1.0000e-10
Integration weight cutoff        WCut        ...    1.0000e-14
Grids for H and He will be reduced by one unit

# of grid points (after initial pruning)     ...  48164 (   0.0 sec)
# of grid points (after weights+screening)   ...  46452 (   0.0 sec)
nearest neighbour list constructed           ...    0.0 sec
Grid point re-assignment to atoms done       ...    0.0 sec
Grid point division into batches done        ...    0.3 sec
Reduced shell lists constructed in    0.4 sec

Total number of grid points                  ...    46452
Total number of batches                      ...      729
Average number of points per batch           ...       63
Average number of grid points per atom       ...     7742
Average number of shells per batch           ...    16.13 (80.64%)
Average number of basis functions per batch  ...    29.50 (81.96%)
Average number of large shells per batch     ...    14.58 (90.41%)
Average number of large basis fcns per batch ...    27.13 (91.95%)
Maximum spatial batch extension              ...  17.68, 21.48, 19.91 au
Average spatial batch extension              ...   2.59,  2.57,  2.85 au

Final grid set up in    0.4 sec
Final integration                            ... done (   0.3 sec)
Change in XC energy                          ...    -0.000127167
Integrated number of electrons               ...    16.000004481
Previous integrated no of electrons          ...    15.999973128
Total Energy       :          -78.47434209 Eh           -2135.39541 eV
  Last Energy change         ...   -3.4052e-10  Tolerance :   1.0000e-06
  Last MAX-Density change    ...    2.5087e-06  Tolerance :   1.0000e-05
             **** THE GBW FILE WAS UPDATED (H2CCH2.gbw) ****
             **** DENSITY FILE WAS UPDATED (H2CCH2.scfp) ****
             **** ENERGY FILE WAS UPDATED (H2CCH2.en.tmp) ****
             **** THE GBW FILE WAS UPDATED (H2CCH2.gbw) ****
             **** DENSITY FILE WAS UPDATED (H2CCH2.scfp) ****
Total SCF time: 0 days 0 hours 0 min 3 sec 

-------------------------   --------------------
FINAL SINGLE POINT ENERGY       -78.474342092044
-------------------------   --------------------

Storing actual gbw-file in H2CCH2.004.gbw ... done

                            ***************************************
                            *     ORCA property calculations      *
                            ***************************************

                                    ---------------------
                                    Active property flags
                                    ---------------------
   (+) Dipole Moment


------------------------------------------------------------------------------
                       ORCA ELECTRIC PROPERTIES CALCULATION
------------------------------------------------------------------------------

Dipole Moment Calculation                       ... on
Quadrupole Moment Calculation                   ... off
Polarizability Calculation                      ... off
GBWName                                         ... H2CCH2.gbw
Electron density file                           ... H2CCH2.scfp
The origin for moment calculation is the CENTER OF MASS  = ( 1.054751,  0.000000  0.000000)

-------------
DIPOLE MOMENT
-------------
                                X             Y             Z
Electronic contribution:      0.00000       0.00000      -0.00000
Nuclear contribution   :     -0.00000       0.00000       0.00000
                        -----------------------------------------
Total Dipole Moment    :      0.00000       0.00000      -0.00000
                        -----------------------------------------
Magnitude (a.u.)       :      0.00000
Magnitude (Debye)      :      0.00000



--------------------
Rotational spectrum 
--------------------
 
Rotational constants in cm-1:     5.010877     1.334472     1.053823 
Rotational constants in MHz : 150222.315066 40006.464845 31592.820863 

 Dipole components along the rotational axes: 
x,y,z [a.u.] :    -0.000000    -0.000000    -0.000000 
x,y,z [Debye]:    -0.000000    -0.000000    -0.000000 

 

         *************************************************************
                                TRAJECTORY STEP   5
                  R  :   1.21630000
         *************************************************************
---------------------------------
CARTESIAN COORDINATES (ANGSTROEM)
---------------------------------
  C      0.000000    0.000000    0.000000
  C      1.216300    0.000000    0.000000
  H     -0.571891    0.913443    0.000000
  H     -0.571891   -0.913443   -0.000000
  H      1.788191    0.913443    0.000000
  H      1.788191   -0.913443    0.000000

----------------------------
CARTESIAN COORDINATES (A.U.)
----------------------------
  NO LB      ZA    FRAG     MASS         X           Y           Z
   0 C     6.0000    0    12.011    0.000000    0.000000    0.000000
   1 C     6.0000    0    12.011    2.298474    0.000000    0.000000
   2 H     1.0000    0     1.008   -1.080718    1.726157    0.000000
   3 H     1.0000    0     1.008   -1.080718   -1.726157   -0.000000
   4 H     1.0000    0     1.008    3.379192    1.726157    0.000000
   5 H     1.0000    0     1.008    3.379192   -1.726157    0.000000

--------------------------------
INTERNAL COORDINATES (ANGSTROEM)
--------------------------------
 C      0   0   0     0.000000000000     0.00000000     0.00000000
 C      1   0   0     1.216300000000     0.00000000     0.00000000
 H      1   2   0     1.077700000000   122.05000000     0.00000000
 H      1   2   3     1.077700000000   122.05000000   180.00000000
 H      2   1   3     1.077700000000   122.05000000     0.00000000
 H      2   1   3     1.077700000000   122.05000000   180.00000000

---------------------------
INTERNAL COORDINATES (A.U.)
---------------------------
 C      0   0   0     0.000000000000     0.00000000     0.00000000
 C      1   0   0     2.298473896688     0.00000000     0.00000000
 H      1   2   0     2.036557854527   122.05000000     0.00000000
 H      1   2   3     2.036557854527   122.05000000   180.00000000
 H      2   1   3     2.036557854527   122.05000000     0.00000000
 H      2   1   3     2.036557854527   122.05000000   180.00000000


Diagonalization of the overlap matrix:
Smallest eigenvalue                        ... 5.291e-03
Time for diagonalization                   ...    0.001 sec
Threshold for overlap eigenvalues          ... 1.000e-08
Number of eigenvalues below threshold      ... 0
Time for construction of square roots      ...    0.000 sec
Total time needed                          ...    0.001 sec

-------------------
DFT GRID GENERATION
-------------------

General Integration Accuracy     IntAcc      ...  4.670
Radial Grid Type                 RadialGrid  ... Gauss-Chebyshev
Angular Grid (max. acc.)         AngularGrid ... Lebedev-302
Angular grid pruning method      GridPruning ... 3 (G Style)
Weight generation scheme         WeightScheme... Becke
Basis function cutoff            BFCut       ...    1.0000e-10
Integration weight cutoff        WCut        ...    1.0000e-14
Grids for H and He will be reduced by one unit

# of grid points (after initial pruning)     ...  26000 (   0.0 sec)
# of grid points (after weights+screening)   ...  25116 (   0.0 sec)
nearest neighbour list constructed           ...    0.0 sec
Grid point re-assignment to atoms done       ...    0.0 sec
Grid point division into batches done        ...    0.1 sec
Reduced shell lists constructed in    0.1 sec

Total number of grid points                  ...    25116
Total number of batches                      ...      396
Average number of points per batch           ...       63
Average number of grid points per atom       ...     4186
Average number of shells per batch           ...    16.44 (82.19%)
Average number of basis functions per batch  ...    30.04 (83.43%)
Average number of large shells per batch     ...    14.78 (89.92%)
Average number of large basis fcns per batch ...    27.53 (91.66%)
Maximum spatial batch extension              ...  18.04, 16.41, 23.20 au
Average spatial batch extension              ...   3.10,  2.91,  3.64 au

Time for grid setup =    0.146 sec

--------------
SCF ITERATIONS
--------------
ITER       Energy         Delta-E        Max-DP      RMS-DP      [F,P]   Gradient Norm
               ***  Starting incremental Fock matrix formation  ***
                             ****Resetting KDIIS****
                             ****Turning on KDIIS(Cayley)****
  0    -78.5330638475   0.000000000000 0.00278860  0.00025439  0.0257074   0.020266498
  1    -78.5338745626  -0.000810715071 0.00540389  0.00044014  0.0227464   0.018013581
  2    -78.5349874936  -0.001112930995 0.00979358  0.00080333  0.0188730   0.014721145
  3    -78.5364500736  -0.001462580046 0.01495381  0.00121660  0.0113881   0.008861566
  4    -78.5372838981  -0.000833824501 0.00007676  0.00000922  0.0000591   0.000044513
                          ***Energy convergence achieved***
                           ***RMSP convergence achieved***
                           ***MAXP convergence achieved***
                    *** KDIIS BlockDiag ( 2.219 sec) ***

               *****************************************************
               *                     SUCCESS                       *
               *           SCF CONVERGED AFTER   5 CYCLES          *
               *****************************************************

Setting up the final grid:

General Integration Accuracy     IntAcc      ...  5.010
Radial Grid Type                 RadialGrid  ... Gauss-Chebyshev
Angular Grid (max. acc.)         AngularGrid ... Lebedev-434
Angular grid pruning method      GridPruning ... 3 (G Style)
Weight generation scheme         WeightScheme... Becke
Basis function cutoff            BFCut       ...    1.0000e-10
Integration weight cutoff        WCut        ...    1.0000e-14
Grids for H and He will be reduced by one unit

# of grid points (after initial pruning)     ...  48164 (   0.0 sec)
# of grid points (after weights+screening)   ...  46496 (   0.0 sec)
nearest neighbour list constructed           ...    0.0 sec
Grid point re-assignment to atoms done       ...    0.0 sec
Grid point division into batches done        ...    0.3 sec
Reduced shell lists constructed in    0.4 sec

Total number of grid points                  ...    46496
Total number of batches                      ...      730
Average number of points per batch           ...       63
Average number of grid points per atom       ...     7749
Average number of shells per batch           ...    16.09 (80.45%)
Average number of basis functions per batch  ...    29.44 (81.77%)
Average number of large shells per batch     ...    14.42 (89.60%)
Average number of large basis fcns per batch ...    26.90 (91.39%)
Maximum spatial batch extension              ...  17.68, 21.43, 23.87 au
Average spatial batch extension              ...   2.62,  2.59,  2.88 au

Final grid set up in    0.4 sec
Final integration                            ... done (   0.3 sec)
Change in XC energy                          ...    -0.000093727
Integrated number of electrons               ...    16.000000871
Previous integrated no of electrons          ...    15.999966183
Total Energy       :          -78.53737765 Eh           -2137.11069 eV
  Last Energy change         ...   -2.6877e-08  Tolerance :   1.0000e-06
  Last MAX-Density change    ...    6.1797e-06  Tolerance :   1.0000e-05
             **** THE GBW FILE WAS UPDATED (H2CCH2.gbw) ****
             **** DENSITY FILE WAS UPDATED (H2CCH2.scfp) ****
             **** ENERGY FILE WAS UPDATED (H2CCH2.en.tmp) ****
             **** THE GBW FILE WAS UPDATED (H2CCH2.gbw) ****
             **** DENSITY FILE WAS UPDATED (H2CCH2.scfp) ****
Total SCF time: 0 days 0 hours 0 min 2 sec 

-------------------------   --------------------
FINAL SINGLE POINT ENERGY       -78.537377651751
-------------------------   --------------------

Storing actual gbw-file in H2CCH2.005.gbw ... done

                            ***************************************
                            *     ORCA property calculations      *
                            ***************************************

                                    ---------------------
                                    Active property flags
                                    ---------------------
   (+) Dipole Moment


------------------------------------------------------------------------------
                       ORCA ELECTRIC PROPERTIES CALCULATION
------------------------------------------------------------------------------

Dipole Moment Calculation                       ... on
Quadrupole Moment Calculation                   ... off
Polarizability Calculation                      ... off
GBWName                                         ... H2CCH2.gbw
Electron density file                           ... H2CCH2.scfp
The origin for moment calculation is the CENTER OF MASS  = ( 1.149237,  0.000000  0.000000)

-------------
DIPOLE MOMENT
-------------
                                X             Y             Z
Electronic contribution:     -0.00000      -0.00000      -0.00000
Nuclear contribution   :     -0.00000       0.00000       0.00000
                        -----------------------------------------
Total Dipole Moment    :     -0.00000      -0.00000      -0.00000
                        -----------------------------------------
Magnitude (a.u.)       :      0.00000
Magnitude (Debye)      :      0.00000



--------------------
Rotational spectrum 
--------------------
 
Rotational constants in cm-1:     5.010877     1.162676     0.943707 
Rotational constants in MHz : 150222.315066 34856.158883 28291.636353 

 Dipole components along the rotational axes: 
x,y,z [a.u.] :     0.000000     0.000000    -0.000000 
x,y,z [Debye]:     0.000000     0.000000    -0.000000 

 

         *************************************************************
                                TRAJECTORY STEP   6
                  R  :   1.31630000
         *************************************************************
---------------------------------
CARTESIAN COORDINATES (ANGSTROEM)
---------------------------------
  C      0.000000    0.000000    0.000000
  C      1.316300    0.000000    0.000000
  H     -0.571891    0.913443    0.000000
  H     -0.571891   -0.913443   -0.000000
  H      1.888191    0.913443    0.000000
  H      1.888191   -0.913443    0.000000

----------------------------
CARTESIAN COORDINATES (A.U.)
----------------------------
  NO LB      ZA    FRAG     MASS         X           Y           Z
   0 C     6.0000    0    12.011    0.000000    0.000000    0.000000
   1 C     6.0000    0    12.011    2.487447    0.000000    0.000000
   2 H     1.0000    0     1.008   -1.080718    1.726157    0.000000
   3 H     1.0000    0     1.008   -1.080718   -1.726157   -0.000000
   4 H     1.0000    0     1.008    3.568165    1.726157    0.000000
   5 H     1.0000    0     1.008    3.568165   -1.726157    0.000000

--------------------------------
INTERNAL COORDINATES (ANGSTROEM)
--------------------------------
 C      0   0   0     0.000000000000     0.00000000     0.00000000
 C      1   0   0     1.316300000000     0.00000000     0.00000000
 H      1   2   0     1.077700000000   122.05000000     0.00000000
 H      1   2   3     1.077700000000   122.05000000   180.00000000
 H      2   1   3     1.077700000000   122.05000000     0.00000000
 H      2   1   3     1.077700000000   122.05000000   180.00000000

---------------------------
INTERNAL COORDINATES (A.U.)
---------------------------
 C      0   0   0     0.000000000000     0.00000000     0.00000000
 C      1   0   0     2.487446510081     0.00000000     0.00000000
 H      1   2   0     2.036557854527   122.05000000     0.00000000
 H      1   2   3     2.036557854527   122.05000000   180.00000000
 H      2   1   3     2.036557854527   122.05000000     0.00000000
 H      2   1   3     2.036557854527   122.05000000   180.00000000


Diagonalization of the overlap matrix:
Smallest eigenvalue                        ... 7.733e-03
Time for diagonalization                   ...    0.001 sec
Threshold for overlap eigenvalues          ... 1.000e-08
Number of eigenvalues below threshold      ... 0
Time for construction of square roots      ...    0.000 sec
Total time needed                          ...    0.001 sec

-------------------
DFT GRID GENERATION
-------------------

General Integration Accuracy     IntAcc      ...  4.670
Radial Grid Type                 RadialGrid  ... Gauss-Chebyshev
Angular Grid (max. acc.)         AngularGrid ... Lebedev-302
Angular grid pruning method      GridPruning ... 3 (G Style)
Weight generation scheme         WeightScheme... Becke
Basis function cutoff            BFCut       ...    1.0000e-10
Integration weight cutoff        WCut        ...    1.0000e-14
Grids for H and He will be reduced by one unit

# of grid points (after initial pruning)     ...  26000 (   0.0 sec)
# of grid points (after weights+screening)   ...  25142 (   0.0 sec)
nearest neighbour list constructed           ...    0.0 sec
Grid point re-assignment to atoms done       ...    0.0 sec
Grid point division into batches done        ...    0.1 sec
Reduced shell lists constructed in    0.1 sec

Total number of grid points                  ...    25142
Total number of batches                      ...      396
Average number of points per batch           ...       63
Average number of grid points per atom       ...     4190
Average number of shells per batch           ...    16.38 (81.88%)
Average number of basis functions per batch  ...    29.93 (83.14%)
Average number of large shells per batch     ...    14.66 (89.54%)
Average number of large basis fcns per batch ...    27.36 (91.40%)
Maximum spatial batch extension              ...  18.13, 16.41, 23.20 au
Average spatial batch extension              ...   3.10,  2.92,  3.65 au

Time for grid setup =    0.148 sec

--------------
SCF ITERATIONS
--------------
ITER       Energy         Delta-E        Max-DP      RMS-DP      [F,P]   Gradient Norm
               ***  Starting incremental Fock matrix formation  ***
                             ****Resetting KDIIS****
                             ****Turning on KDIIS(Cayley)****
  0    -78.5524126471   0.000000000000 0.00230548  0.00022880  0.0210053   0.016718317
  1    -78.5529974440  -0.000584796899 0.00434840  0.00040208  0.0186280   0.014916278
  2    -78.5538326814  -0.000835237343 0.00779915  0.00073035  0.0154661   0.012206390
  3    -78.5549289406  -0.001096259231 0.01186229  0.00110269  0.0093239   0.007345522
  4    -78.5555525756  -0.000623635040 0.00005866  0.00000718  0.0000492   0.000036156
                          ***Energy convergence achieved***
                           ***RMSP convergence achieved***
                           ***MAXP convergence achieved***
                    *** KDIIS BlockDiag ( 2.171 sec) ***

               *****************************************************
               *                     SUCCESS                       *
               *           SCF CONVERGED AFTER   5 CYCLES          *
               *****************************************************

Setting up the final grid:

General Integration Accuracy     IntAcc      ...  5.010
Radial Grid Type                 RadialGrid  ... Gauss-Chebyshev
Angular Grid (max. acc.)         AngularGrid ... Lebedev-434
Angular grid pruning method      GridPruning ... 3 (G Style)
Weight generation scheme         WeightScheme... Becke
Basis function cutoff            BFCut       ...    1.0000e-10
Integration weight cutoff        WCut        ...    1.0000e-14
Grids for H and He will be reduced by one unit

# of grid points (after initial pruning)     ...  48164 (   0.0 sec)
# of grid points (after weights+screening)   ...  46514 (   0.0 sec)
nearest neighbour list constructed           ...    0.0 sec
Grid point re-assignment to atoms done       ...    0.0 sec
Grid point division into batches done        ...    0.3 sec
Reduced shell lists constructed in    0.4 sec

Total number of grid points                  ...    46514
Total number of batches                      ...      731
Average number of points per batch           ...       63
Average number of grid points per atom       ...     7752
Average number of shells per batch           ...    16.02 (80.10%)
Average number of basis functions per batch  ...    29.34 (81.50%)
Average number of large shells per batch     ...    14.28 (89.13%)
Average number of large basis fcns per batch ...    26.67 (90.92%)
Maximum spatial batch extension              ...  17.79, 21.61, 23.85 au
Average spatial batch extension              ...   2.60,  2.59,  2.92 au

Final grid set up in    0.4 sec
Final integration                            ... done (   0.3 sec)
Change in XC energy                          ...    -0.000182909
Integrated number of electrons               ...    16.000004159
Previous integrated no of electrons          ...    15.999980211
Total Energy       :          -78.55573550 Eh           -2137.61024 eV
  Last Energy change         ...   -1.7212e-08  Tolerance :   1.0000e-06
  Last MAX-Density change    ...    5.0171e-06  Tolerance :   1.0000e-05
             **** THE GBW FILE WAS UPDATED (H2CCH2.gbw) ****
             **** DENSITY FILE WAS UPDATED (H2CCH2.scfp) ****
             **** ENERGY FILE WAS UPDATED (H2CCH2.en.tmp) ****
             **** THE GBW FILE WAS UPDATED (H2CCH2.gbw) ****
             **** DENSITY FILE WAS UPDATED (H2CCH2.scfp) ****
Total SCF time: 0 days 0 hours 0 min 2 sec 

-------------------------   --------------------
FINAL SINGLE POINT ENERGY       -78.555735502099
-------------------------   --------------------

Storing actual gbw-file in H2CCH2.006.gbw ... done

                            ***************************************
                            *     ORCA property calculations      *
                            ***************************************

                                    ---------------------
                                    Active property flags
                                    ---------------------
   (+) Dipole Moment


------------------------------------------------------------------------------
                       ORCA ELECTRIC PROPERTIES CALCULATION
------------------------------------------------------------------------------

Dipole Moment Calculation                       ... on
Quadrupole Moment Calculation                   ... off
Polarizability Calculation                      ... off
GBWName                                         ... H2CCH2.gbw
Electron density file                           ... H2CCH2.scfp
The origin for moment calculation is the CENTER OF MASS  = ( 1.243723,  0.000000  0.000000)

-------------
DIPOLE MOMENT
-------------
                                X             Y             Z
[...]
Basis function cutoff            BFCut       ...    1.0000e-10
Integration weight cutoff        WCut        ...    1.0000e-14
Grids for H and He will be reduced by one unit

# of grid points (after initial pruning)     ...  26000 (   0.0 sec)
# of grid points (after weights+screening)   ...  25670 (   0.0 sec)
nearest neighbour list constructed           ...    0.0 sec
Grid point re-assignment to atoms done       ...    0.0 sec
Grid point division into batches done        ...    0.1 sec
Reduced shell lists constructed in    0.1 sec

Total number of grid points                  ...    25670
Total number of batches                      ...      404
Average number of points per batch           ...       63
Average number of grid points per atom       ...     4278
Average number of shells per batch           ...    11.40 (56.99%)
Average number of basis functions per batch  ...    20.25 (56.26%)
Average number of large shells per batch     ...     8.69 (76.21%)
Average number of large basis fcns per batch ...    15.81 (78.05%)
Maximum spatial batch extension              ...  21.73, 19.10, 26.79 au
Average spatial batch extension              ...   3.47,  3.18,  3.88 au

Time for grid setup =    0.142 sec

--------------
SCF ITERATIONS
--------------
ITER       Energy         Delta-E        Max-DP      RMS-DP      [F,P]   Gradient Norm
               ***  Starting incremental Fock matrix formation  ***
                             ****Resetting KDIIS****
                             ****Turning on KDIIS(Cayley)****
  0    -77.9473455151   0.000000000000 0.00008425  0.00000883  0.0004639   0.000229447
                          ***Energy convergence achieved***
  1    -77.9473457104  -0.000000195292 0.00021643  0.00002235  0.0004227   0.000210884
  2    -77.9473460978  -0.000000387428 0.00036236  0.00003767  0.0003451   0.000170966
  3    -77.9473465725  -0.000000474672 0.00053195  0.00005629  0.0002065   0.000102980
  4    -77.9473468453  -0.000000272867 0.00010441  0.00000766  0.0000523   0.000021782

            ***Energy convergence in two consecutive cycles with***
                    ***'reasonable' density convergence***
                       *** signaling convergence ***

                    *** KDIIS BlockDiag ( 1.807 sec) ***

               *****************************************************
               *                     SUCCESS                       *
               *           SCF CONVERGED AFTER   5 CYCLES          *
               *****************************************************

Setting up the final grid:

General Integration Accuracy     IntAcc      ...  5.010
Radial Grid Type                 RadialGrid  ... Gauss-Chebyshev
Angular Grid (max. acc.)         AngularGrid ... Lebedev-434
Angular grid pruning method      GridPruning ... 3 (G Style)
Weight generation scheme         WeightScheme... Becke
Basis function cutoff            BFCut       ...    1.0000e-10
Integration weight cutoff        WCut        ...    1.0000e-14
Grids for H and He will be reduced by one unit

# of grid points (after initial pruning)     ...  48164 (   0.0 sec)
# of grid points (after weights+screening)   ...  47456 (   0.0 sec)
nearest neighbour list constructed           ...    0.0 sec
Grid point re-assignment to atoms done       ...    0.0 sec
Grid point division into batches done        ...    0.3 sec
Reduced shell lists constructed in    0.4 sec

Total number of grid points                  ...    47456
Total number of batches                      ...      744
Average number of points per batch           ...       63
Average number of grid points per atom       ...     7909
Average number of shells per batch           ...    11.05 (55.25%)
Average number of basis functions per batch  ...    19.64 (54.55%)
Average number of large shells per batch     ...     8.39 (75.90%)
Average number of large basis fcns per batch ...    15.30 (77.91%)
Maximum spatial batch extension              ...  20.38, 21.76, 21.76 au
Average spatial batch extension              ...   2.79,  2.68,  2.93 au

Final grid set up in    0.4 sec
Final integration                            ... done (   0.3 sec)
Change in XC energy                          ...    -0.000356699
Integrated number of electrons               ...    16.000000361
Previous integrated no of electrons          ...    16.000017879
Total Energy       :          -77.94770353 Eh           -2121.06485 eV
  Last Energy change         ...    1.2274e-08  Tolerance :   1.0000e-06
  Last MAX-Density change    ...    3.6139e-05  Tolerance :   1.0000e-05
             **** THE GBW FILE WAS UPDATED (H2CCH2.gbw) ****
             **** DENSITY FILE WAS UPDATED (H2CCH2.scfp) ****
             **** ENERGY FILE WAS UPDATED (H2CCH2.en.tmp) ****
             **** THE GBW FILE WAS UPDATED (H2CCH2.gbw) ****
             **** DENSITY FILE WAS UPDATED (H2CCH2.scfp) ****
Total SCF time: 0 days 0 hours 0 min 2 sec 

-------------------------   --------------------
FINAL SINGLE POINT ENERGY       -77.947703532444
-------------------------   --------------------

Storing actual gbw-file in H2CCH2.045.gbw ... done

                            ***************************************
                            *     ORCA property calculations      *
                            ***************************************

                                    ---------------------
                                    Active property flags
                                    ---------------------
   (+) Dipole Moment


------------------------------------------------------------------------------
                       ORCA ELECTRIC PROPERTIES CALCULATION
------------------------------------------------------------------------------

Dipole Moment Calculation                       ... on
Quadrupole Moment Calculation                   ... off
Polarizability Calculation                      ... off
GBWName                                         ... H2CCH2.gbw
Electron density file                           ... H2CCH2.scfp
The origin for moment calculation is the CENTER OF MASS  = ( 4.928689,  0.000000  0.000000)

-------------
DIPOLE MOMENT
-------------
                                X             Y             Z
Electronic contribution:     -0.00001       0.00000       0.00000
Nuclear contribution   :     -0.00000       0.00000       0.00000
                        -----------------------------------------
Total Dipole Moment    :     -0.00001       0.00000       0.00000
                        -----------------------------------------
Magnitude (a.u.)       :      0.00001
Magnitude (Debye)      :      0.00002



--------------------
Rotational spectrum 
--------------------
 
Rotational constants in cm-1:     5.010877     0.082562     0.081223 
Rotational constants in MHz : 150222.315066  2475.134601  2435.014146 

 Dipole components along the rotational axes: 
x,y,z [a.u.] :     0.000006    -0.000000     0.000000 
x,y,z [Debye]:     0.000015    -0.000000     0.000000 

 

         *************************************************************
                                TRAJECTORY STEP  46
                  R  :   5.31630000
         *************************************************************
---------------------------------
CARTESIAN COORDINATES (ANGSTROEM)
---------------------------------
  C      0.000000    0.000000    0.000000
  C      5.316300    0.000000    0.000000
  H     -0.571891    0.913443    0.000000
  H     -0.571891   -0.913443   -0.000000
  H      5.888191    0.913443    0.000000
  H      5.888191   -0.913443    0.000000

----------------------------
CARTESIAN COORDINATES (A.U.)
----------------------------
  NO LB      ZA    FRAG     MASS         X           Y           Z
   0 C     6.0000    0    12.011    0.000000    0.000000    0.000000
   1 C     6.0000    0    12.011   10.046351    0.000000    0.000000
   2 H     1.0000    0     1.008   -1.080718    1.726157    0.000000
   3 H     1.0000    0     1.008   -1.080718   -1.726157   -0.000000
   4 H     1.0000    0     1.008   11.127069    1.726157    0.000000
   5 H     1.0000    0     1.008   11.127069   -1.726157    0.000000

--------------------------------
INTERNAL COORDINATES (ANGSTROEM)
--------------------------------
 C      0   0   0     0.000000000000     0.00000000     0.00000000
 C      1   0   0     5.316300000000     0.00000000     0.00000000
 H      1   2   0     1.077700000000   122.05000000     0.00000000
 H      1   2   3     1.077700000000   122.05000000   180.00000000
 H      2   1   3     1.077700000000   122.05000000     0.00000000
 H      2   1   3     1.077700000000   122.05000000   180.00000000

---------------------------
INTERNAL COORDINATES (A.U.)
---------------------------
 C      0   0   0     0.000000000000     0.00000000     0.00000000
 C      1   0   0    10.046351045766     0.00000000     0.00000000
 H      1   2   0     2.036557854527   122.05000000     0.00000000
 H      1   2   3     2.036557854527   122.05000000   180.00000000
 H      2   1   3     2.036557854527   122.05000000     0.00000000
 H      2   1   3     2.036557854527   122.05000000   180.00000000


Diagonalization of the overlap matrix:
Smallest eigenvalue                        ... 3.469e-02
Time for diagonalization                   ...    0.001 sec
Threshold for overlap eigenvalues          ... 1.000e-08
Number of eigenvalues below threshold      ... 0
Time for construction of square roots      ...    0.000 sec
Total time needed                          ...    0.001 sec

-------------------
DFT GRID GENERATION
-------------------

General Integration Accuracy     IntAcc      ...  4.670
Radial Grid Type                 RadialGrid  ... Gauss-Chebyshev
Angular Grid (max. acc.)         AngularGrid ... Lebedev-302
Angular grid pruning method      GridPruning ... 3 (G Style)
Weight generation scheme         WeightScheme... Becke
Basis function cutoff            BFCut       ...    1.0000e-10
Integration weight cutoff        WCut        ...    1.0000e-14
Grids for H and He will be reduced by one unit

# of grid points (after initial pruning)     ...  26000 (   0.0 sec)
# of grid points (after weights+screening)   ...  25674 (   0.0 sec)
nearest neighbour list constructed           ...    0.0 sec
Grid point re-assignment to atoms done       ...    0.0 sec
Grid point division into batches done        ...    0.1 sec
Reduced shell lists constructed in    0.1 sec

Total number of grid points                  ...    25674
Total number of batches                      ...      404
Average number of points per batch           ...       63
Average number of grid points per atom       ...     4279
Average number of shells per batch           ...    11.27 (56.33%)
Average number of basis functions per batch  ...    20.08 (55.78%)
Average number of large shells per batch     ...     8.65 (76.81%)
Average number of large basis fcns per batch ...    15.72 (78.29%)
Maximum spatial batch extension              ...  21.73, 19.10, 26.79 au
Average spatial batch extension              ...   3.51,  3.19,  3.93 au

Time for grid setup =    0.142 sec

--------------
SCF ITERATIONS
--------------
ITER       Energy         Delta-E        Max-DP      RMS-DP      [F,P]   Gradient Norm
               ***  Starting incremental Fock matrix formation  ***
                             ****Resetting KDIIS****
                             ****Turning on KDIIS(Cayley)****
  0    -77.9447766720   0.000000000000 0.00007276  0.00000777  0.0003967   0.000201254
                          ***Energy convergence achieved***
  1    -77.9447768234  -0.000000151390 0.00019497  0.00001958  0.0003613   0.000184935
  2    -77.9447771210  -0.000000297559 0.00031374  0.00003226  0.0002952   0.000150352
  3    -77.9447774780  -0.000000357066 0.00050429  0.00005097  0.0001847   0.000093090

            ***Energy convergence in two consecutive cycles with***
                    ***'reasonable' density convergence***
                       *** signaling convergence ***

                    *** KDIIS BlockDiag ( 1.584 sec) ***

               *****************************************************
               *                     SUCCESS                       *
               *           SCF CONVERGED AFTER   4 CYCLES          *
               *****************************************************

Setting up the final grid:

General Integration Accuracy     IntAcc      ...  5.010
Radial Grid Type                 RadialGrid  ... Gauss-Chebyshev
Angular Grid (max. acc.)         AngularGrid ... Lebedev-434
Angular grid pruning method      GridPruning ... 3 (G Style)
Weight generation scheme         WeightScheme... Becke
Basis function cutoff            BFCut       ...    1.0000e-10
Integration weight cutoff        WCut        ...    1.0000e-14
Grids for H and He will be reduced by one unit

# of grid points (after initial pruning)     ...  48164 (   0.0 sec)
# of grid points (after weights+screening)   ...  47460 (   0.0 sec)
nearest neighbour list constructed           ...    0.0 sec
Grid point re-assignment to atoms done       ...    0.0 sec
Grid point division into batches done        ...    0.3 sec
Reduced shell lists constructed in    0.4 sec

Total number of grid points                  ...    47460
Total number of batches                      ...      744
Average number of points per batch           ...       63
Average number of grid points per atom       ...     7910
Average number of shells per batch           ...    10.88 (54.42%)
Average number of basis functions per batch  ...    19.41 (53.92%)
Average number of large shells per batch     ...     8.37 (76.87%)
Average number of large basis fcns per batch ...    15.25 (78.56%)
Maximum spatial batch extension              ...  20.40, 21.76, 21.76 au
Average spatial batch extension              ...   2.81,  2.70,  2.93 au

Final grid set up in    0.4 sec
Final integration                            ... done (   0.3 sec)
Change in XC energy                          ...    -0.000354557
Integrated number of electrons               ...    16.000000422
Previous integrated no of electrons          ...    16.000017715
Total Energy       :          -77.94513227 Eh           -2120.99488 eV
  Last Energy change         ...   -2.3003e-07  Tolerance :   1.0000e-06
  Last MAX-Density change    ...    9.3624e-05  Tolerance :   1.0000e-05
             **** THE GBW FILE WAS UPDATED (H2CCH2.gbw) ****
             **** DENSITY FILE WAS UPDATED (H2CCH2.scfp) ****
             **** ENERGY FILE WAS UPDATED (H2CCH2.en.tmp) ****
             **** THE GBW FILE WAS UPDATED (H2CCH2.gbw) ****
             **** DENSITY FILE WAS UPDATED (H2CCH2.scfp) ****
Total SCF time: 0 days 0 hours 0 min 2 sec 

-------------------------   --------------------
FINAL SINGLE POINT ENERGY       -77.945132265053
-------------------------   --------------------

Storing actual gbw-file in H2CCH2.046.gbw ... done

                            ***************************************
                            *     ORCA property calculations      *
                            ***************************************

                                    ---------------------
                                    Active property flags
                                    ---------------------
   (+) Dipole Moment


------------------------------------------------------------------------------
                       ORCA ELECTRIC PROPERTIES CALCULATION
------------------------------------------------------------------------------

Dipole Moment Calculation                       ... on
Quadrupole Moment Calculation                   ... off
Polarizability Calculation                      ... off
GBWName                                         ... H2CCH2.gbw
Electron density file                           ... H2CCH2.scfp
The origin for moment calculation is the CENTER OF MASS  = ( 5.023176,  0.000000  0.000000)

-------------
DIPOLE MOMENT
-------------
                                X             Y             Z
Electronic contribution:     -0.00035      -0.00000       0.00000
Nuclear contribution   :     -0.00000       0.00000       0.00000
                        -----------------------------------------
Total Dipole Moment    :     -0.00035      -0.00000       0.00000
                        -----------------------------------------
Magnitude (a.u.)       :      0.00035
Magnitude (Debye)      :      0.00088



--------------------
Rotational spectrum 
--------------------
 
Rotational constants in cm-1:     5.010877     0.079592     0.078348 
Rotational constants in MHz : 150222.315066  2386.113702  2348.805549 

 Dipole components along the rotational axes: 
x,y,z [a.u.] :     0.000348     0.000000     0.000000 
x,y,z [Debye]:     0.000885     0.000000     0.000000 

 
                              **** TRAJECTORY DONE ***

                         SUMMARY OF THE CALCULATED SURFACE

------------------
TRAJECTORY RESULTS
------------------

Column   1: R

The Calculated Surface using the 'Actual Energy'
   0.81630000 -77.61304649
   0.91630000 -78.07695404
   1.01630000 -78.33701733
   1.11630000 -78.47434209
   1.21630000 -78.53737765
   1.31630000 -78.55573550
   1.41630000 -78.54764468
   1.51630000 -78.52434686
   1.61630000 -78.49281074
   1.71630000 -78.45732672
   1.81630000 -78.42054930
   1.91630000 -78.38408816
   2.01630000 -78.34893136
   2.11630000 -78.31566764
   2.21630000 -78.28452679
   2.31630000 -78.25561484
   2.41630000 -78.22893736
   2.51630000 -78.20437517
   2.61630000 -78.18181745
   2.71630000 -78.16111419
   2.81630000 -78.14212667
   2.91630000 -78.12470288
   3.01630000 -78.10868154
   3.11630000 -78.09390452
   3.21630000 -78.08027111
   3.31630000 -78.06766657
   3.41630000 -78.05598385
   3.51630000 -78.04513560
   3.61630000 -78.03506453
   3.71630000 -78.02570997
   3.81630000 -78.01702804
   3.91630000 -78.00899342
   4.01630000 -78.00156859
   4.11630000 -77.99471317
   4.21630000 -77.98839839
   4.31630000 -77.98260218
   4.41630000 -77.97728512
   4.51630000 -77.97241156
   4.61630000 -77.96794667
   4.71630000 -77.96385123
   4.81630000 -77.96008811
   4.91630000 -77.95662279
   5.01630000 -77.95342389
   5.11630000 -77.95045973
   5.21630000 -77.94770353
   5.31630000 -77.94513227

The Calculated Surface using the SCF energy
   0.81630000 -77.61304649
   0.91630000 -78.07695404
   1.01630000 -78.33701733
   1.11630000 -78.47434209
   1.21630000 -78.53737765
   1.31630000 -78.55573550
   1.41630000 -78.54764468
   1.51630000 -78.52434686
   1.61630000 -78.49281074
   1.71630000 -78.45732672
   1.81630000 -78.42054930
   1.91630000 -78.38408816
   2.01630000 -78.34893136
   2.11630000 -78.31566764
   2.21630000 -78.28452679
   2.31630000 -78.25561484
   2.41630000 -78.22893736
   2.51630000 -78.20437517
   2.61630000 -78.18181745
   2.71630000 -78.16111419
   2.81630000 -78.14212667
   2.91630000 -78.12470288
   3.01630000 -78.10868154
   3.11630000 -78.09390452
   3.21630000 -78.08027111
   3.31630000 -78.06766657
   3.41630000 -78.05598385
   3.51630000 -78.04513560
   3.61630000 -78.03506453
   3.71630000 -78.02570997
   3.81630000 -78.01702804
   3.91630000 -78.00899342
   4.01630000 -78.00156859
   4.11630000 -77.99471317
   4.21630000 -77.98839839
   4.31630000 -77.98260218
   4.41630000 -77.97728512
   4.51630000 -77.97241156
   4.61630000 -77.96794667
   4.71630000 -77.96385123
   4.81630000 -77.96008811
   4.91630000 -77.95662279
   5.01630000 -77.95342389
   5.11630000 -77.95045973
   5.21630000 -77.94770353
   5.31630000 -77.94513227


Timings for individual modules:

Sum of individual times         ...      139.520 sec (=   2.325 min)
GTO integral calculation        ...       11.068 sec (=   0.184 min)   7.9 %
SCF iterations                  ...      128.452 sec (=   2.141 min)  92.1 %
                             ****ORCA TERMINATED NORMALLY****
TOTAL RUN TIME: 0 days 0 hours 2 minutes 23 seconds 571 msec
