
                                 *****************
                                 * O   R   C   A *
                                 *****************

           --- An Ab Initio, DFT and Semiempirical electronic structure package ---

                  #######################################################
                  #                        -***-                        #
                  #          Department of theory and spectroscopy      #
                  #               Directorship: Frank Neese             #
                  #        Max Planck Institute fuer Kohlenforschung    #
                  #                Kaiser Wilhelm Platz 1               #
                  #                 D-45470 Muelheim/Ruhr               #
                  #                      Germany                        #
                  #                                                     #
                  #                  All rights reserved                #
                  #                        -***-                        #
                  #######################################################


                         Program Version 4.2.0 -  RELEASE  -


 With contributions from (in alphabetic order):
   Daniel Aravena         : Magnetic Suceptibility
   Michael Atanasov       : Ab Initio Ligand Field Theory (pilot matlab implementation)
   Alexander A. Auer      : GIAO ZORA, VPT2
   Ute Becker             : Parallelization
   Giovanni Bistoni       : ED, misc. LED, open-shell LED, HFLED
   Martin Brehm           : Molecular dynamics
   Dmytro Bykov           : SCF Hessian
   Vijay G. Chilkuri      : MRCI spin determinant printing, contributions to CSF-ICE
   Dipayan Datta          : RHF DLPNO-CCSD density
   Achintya Kumar Dutta   : EOM-CC, STEOM-CC
   Dmitry Ganyushin       : Spin-Orbit,Spin-Spin,Magnetic field MRCI
   Miquel Garcia          : C-PCM Hessian, Gaussian charge scheme
   Yang Guo               : DLPNO-NEVPT2, CIM, IAO-localization
   Andreas Hansen         : Spin unrestricted coupled pair/coupled cluster methods
   Benjamin Helmich-Paris : CASSCF linear response (MC-RPA)
   Lee Huntington         : MR-EOM, pCC
   Robert Izsak           : Overlap fitted RIJCOSX, COSX-SCS-MP3, EOM
   Christian Kollmar      : KDIIS, OOCD, Brueckner-CCSD(T), CCSD density
   Simone Kossmann        : Meta GGA functionals, TD-DFT gradient, OOMP2, MP2 Hessian
   Martin Krupicka        : AUTO-CI
   Lucas Lang             : DCDCAS
   Dagmar Lenk            : GEPOL surface, SMD
   Dimitrios Liakos       : Extrapolation schemes; Compound Job, initial MDCI parallelization
   Dimitrios Manganas     : Further ROCIS development; embedding schemes
   Dimitrios Pantazis     : SARC Basis sets
   Taras Petrenko         : DFT Hessian,TD-DFT gradient, ASA, ECA, R-Raman, ABS, FL, XAS/XES, NRVS
   Peter Pinski           : DLPNO-MP2, DLPNO-MP2 Gradient
   Christoph Reimann      : Effective Core Potentials
   Marius Retegan         : Local ZFS, SOC
   Christoph Riplinger    : Optimizer, TS searches, QM/MM, DLPNO-CCSD(T), (RO)-DLPNO pert. Triples
   Tobias Risthaus        : Range-separated hybrids, TD-DFT gradient, RPA, STAB
   Michael Roemelt        : Original ROCIS implementation
   Masaaki Saitow         : Open-shell DLPNO-CCSD energy and density
   Barbara Sandhoefer     : DKH picture change effects
   Avijit Sen             : IP-ROCIS
   Kantharuban Sivalingam : CASSCF convergence, NEVPT2, FIC-MRCI
   Bernardo de Souza      : ESD, SOC TD-DFT
   Georgi Stoychev        : AutoAux, RI-MP2 NMR
   Willem Van den Heuvel  : Paramagnetic NMR
   Boris Wezisla          : Elementary symmetry handling
   Frank Wennmohs         : Technical directorship


 We gratefully acknowledge several colleagues who have allowed us to
 interface, adapt or use parts of their codes:
   Stefan Grimme, W. Hujo, H. Kruse,             : VdW corrections, initial TS optimization,
                  C. Bannwarth                     DFT functionals, gCP, sTDA/sTD-DF
   Ed Valeev, F. Pavosevic, A. Kumar             : LibInt (2-el integral package), F12 methods
   Garnet Chan, S. Sharma, J. Yang, R. Olivares  : DMRG
   Ulf Ekstrom                                   : XCFun DFT Library
   Mihaly Kallay                                 : mrcc  (arbitrary order and MRCC methods)
   Andreas Klamt, Michael Diedenhofen            : otool_cosmo (COSMO solvation model)
   Jiri Pittner, Ondrej Demel                    : Mk-CCSD
   Frank Weinhold                                : gennbo (NPA and NBO analysis)
   Christopher J. Cramer and Donald G. Truhlar   : smd solvation model
   Lars Goerigk                                  : TD-DFT with DH, B97 family of functionals
   V. Asgeirsson, H. Jonsson                     : NEB implementation
   FAccTs GmbH                                   : IRC, NEB, NEB-TS, Multilevel, MM, QM/MM, CI optimization
   S Lehtola, MJT Oliveira, MAL Marques          : LibXC Library


 Your calculation uses the libint2 library for the computation of 2-el integrals
 For citations please refer to: http://libint.valeyev.net

 Your ORCA version has been built with support for libXC version: 4.2.3
 For citations please refer to: https://tddft.org/programs/libxc/

 This ORCA versions uses:
   CBLAS   interface :  Fast vector & matrix operations
   LAPACKE interface :  Fast linear algebra routines
   SCALAPACK package :  Parallel linear algebra routines


XCFun DFT library Copyright 2009-2010 Ulf Ekstrom and contributors.
See http://admol.org/xcfun for more information. This is free soft-
ware; see the source code for copying conditions. There is ABSOLUTELY
NO WARRANTY; not even for MERCHANTABILITY or FITNESS FOR A PARTICULAR
PURPOSE. For details see the documentation. Scientific users of this 
library should cite U. Ekstrom, L. Visscher, R. Bast, A. J. Thorvald-
sen and K. Ruud; J.Chem.Theor.Comp. 2010, DOI: 10.1021/ct100117s
XCFun Version 0.99 
----- Orbital basis set information -----
Your calculation utilizes the basis: 6-31G(d)
   H-He, Li-Ne : W. J. Hehre, R. Ditchfield and J.A. Pople, J. Chem. Phys. 56, 2257 (1972).
                 Note: He and Ne are unpublished basis sets taken from the Gaussian program.
                 Note: Li and B from J. D. Dill and J. A. Pople, J. Chem. Phys. 62, 2921 (1975).
   Na - Ar     : M. M. Francl, W. J. Pietro, W. J. Hehre, J. S. Binkley, M. S. Gordon, 
                 D. J. DeFrees and J. A. Pople, J. Chem. Phys. 77, 3654 (1982).
   K - Zn      : V. A. Rassolov, J. A. Pople, M. A. Ratner, and T. L. Windus, J. Chem. Phys. 109, 1223 (1998).

================================================================================
                                        WARNINGS
                       Please study these warnings very carefully!
================================================================================


INFO   : the flag for use of LIBINT has been found!

================================================================================
                                       INPUT FILE
================================================================================
NAME = H2O.inp
|  1> ! wB97X 6-31G(d)  KDIIS NOSOSCF VerySlowConv Grid4
|  2> %paras
|  3> R= 0.4592,4.9592,46
|  4> end
|  5> * int 0  1
|  6> O 0 0 0 0 0 0
|  7> H 1 0 0 {R} 0 0
|  8> H 1 2 0 {R} 107.30 0
|  9> *
| 10> 
| 11>                          ****END OF INPUT****
================================================================================

                       ******************************
                       * Parameter Scan Calculation *
                       ******************************

Trajectory settings:
    -> SCF surface will be mapped

There are 1 parameter(s) to be scanned
             R: range=   0.45920000 ..   4.95920000  steps=   46
There will be   46 energy evaluations


         *************************************************************
                                TRAJECTORY STEP   1
                  R  :   0.45920000
         *************************************************************
---------------------------------
CARTESIAN COORDINATES (ANGSTROEM)
---------------------------------
  O      0.000000    0.000000    0.000000
  H      0.459200    0.000000    0.000000
  H     -0.136555    0.438426    0.000000

----------------------------
CARTESIAN COORDINATES (A.U.)
----------------------------
  NO LB      ZA    FRAG     MASS         X           Y           Z
   0 O     8.0000    0    15.999    0.000000    0.000000    0.000000
   1 H     1.0000    0     1.008    0.867762    0.000000    0.000000
   2 H     1.0000    0     1.008   -0.258051    0.828505    0.000000

--------------------------------
INTERNAL COORDINATES (ANGSTROEM)
--------------------------------
 O      0   0   0     0.000000000000     0.00000000     0.00000000
 H      1   0   0     0.459200000000     0.00000000     0.00000000
 H      1   2   0     0.459200000000   107.30000000     0.00000000

---------------------------
INTERNAL COORDINATES (A.U.)
---------------------------
 O      0   0   0     0.000000000000     0.00000000     0.00000000
 H      1   0   0     0.867762240697     0.00000000     0.00000000
 H      1   2   0     0.867762240697   107.30000000     0.00000000

---------------------
BASIS SET INFORMATION
---------------------
There are 2 groups of distinct atoms

 Group   1 Type O   : 10s4p1d contracted to 3s2p1d pattern {631/31/1}
 Group   2 Type H   : 4s contracted to 2s pattern {31}

Atom   0O    basis set group =>   1
Atom   1H    basis set group =>   2
Atom   2H    basis set group =>   2
------------------------------------------------------------------------------
                           ORCA GTO INTEGRAL CALCULATION
------------------------------------------------------------------------------

                         BASIS SET STATISTICS AND STARTUP INFO

 # of primitive gaussian shells          ...   23
 # of primitive gaussian functions       ...   35
 # of contracted shells                  ...   10
 # of contracted basis functions         ...   18
 Highest angular momentum                ...    2
 Maximum contraction depth               ...    6
 Integral package used                   ... LIBINT
 Integral threshhold            Thresh   ...  1.000e-10
 Primitive cut-off              TCut     ...  1.000e-11


------------------------------ INTEGRAL EVALUATION ----------------------------


 * One electron integrals 
 Pre-screening matrix                    ... done
 Shell pair data                         ... done (   0.000 sec)

-------------------------------------------------------------------------------
                                 ORCA SCF
-------------------------------------------------------------------------------

------------
SCF SETTINGS
------------
Hamiltonian:
 Density Functional     Method          .... DFT(GTOs)
 Exchange Functional    Exchange        .... WB97X
 Correlation Functional Correlation     .... WB97X
 Gradients option       PostSCFGGA      .... off
 Hybrid DFT is turned on
   Fraction HF Exchange ScalHFX         ....  0.157706
   Scaling of DF-GGA-X  ScalDFX         ....  0.000000
   Scaling of DF-GGA-C  ScalDFC         ....  1.000000
   Scaling of DF-LDA-C  ScalLDAC        ....  1.000000
   Perturbative correction              ....  0.000000
   Density functional embedding theory  .... OFF
 Long-range corrected/Screened/Range-Separated Hybrid DFT is turned on
   Amount of maximum screened exact exchange              ....  0.842294
   Range separation parameter mu (erf(mu*r12)/r12)        ....  0.300000


General Settings:
 Integral files         IntName         .... H2O
 Hartree-Fock type      HFTyp           .... RHF
 Total Charge           Charge          ....    0
 Multiplicity           Mult            ....    1
 Number of Electrons    NEL             ....   10
 Basis Dimension        Dim             ....   18
 Nuclear Repulsion      ENuc            ....     19.1536344984 Eh

Convergence Acceleration:
 DIIS                   CNVDIIS         .... on
   Start iteration      DIISMaxIt       ....     0
   Startup error        DIISStart       ....  0.200000
   # of expansion vecs  DIISMaxEq       ....     5
   Bias factor          DIISBfac        ....   1.050
   Max. coefficient     DIISMaxC        ....  10.000
 Newton-Raphson         CNVNR           .... off
 SOSCF                  CNVSOSCF        .... off
 Level Shifting         CNVShift        .... off
 Zerner damping         CNVZerner       .... off
 Static damping         CNVDamp         .... off
 Fernandez-Rico         CNVRico         .... off

SCF Procedure:
 Maximum # iterations   MaxIter         ....   125
 SCF integral mode      SCFMode         .... Direct
   Integral package                     .... LIBINT
 Reset frequency        DirectResetFreq ....    20
 Integral Threshold     Thresh          ....  1.000e-10 Eh
 Primitive CutOff       TCut            ....  1.000e-11 Eh

Convergence Tolerance:
 Convergence Check Mode ConvCheckMode   .... All-Criteria
 Convergence forced     ConvForced      .... 0
 Energy Change          TolE            ....  1.000e-06 Eh
 Max Density Change     TolMaxP         ....  1.000e-05
 RMS Density Change     TolRMSP         ....  1.000e-06
 DIIS Error             TolErr          ....  1.000e-06


Diagonalization of the overlap matrix:
Smallest eigenvalue                        ... 1.459e-02
Time for diagonalization                   ...    0.000 sec
Threshold for overlap eigenvalues          ... 1.000e-08
Number of eigenvalues below threshold      ... 0
Time for construction of square roots      ...    0.000 sec
Total time needed                          ...    0.001 sec

-------------------
DFT GRID GENERATION
-------------------

General Integration Accuracy     IntAcc      ...  4.670
Radial Grid Type                 RadialGrid  ... Gauss-Chebyshev
Angular Grid (max. acc.)         AngularGrid ... Lebedev-302
Angular grid pruning method      GridPruning ... 3 (G Style)
Weight generation scheme         WeightScheme... Becke
Basis function cutoff            BFCut       ...    1.0000e-10
Integration weight cutoff        WCut        ...    1.0000e-14
Grids for H and He will be reduced by one unit

# of grid points (after initial pruning)     ...  13000 (   0.0 sec)
# of grid points (after weights+screening)   ...  12809 (   0.0 sec)
nearest neighbour list constructed           ...    0.0 sec
Grid point re-assignment to atoms done       ...    0.0 sec
Grid point division into batches done        ...    0.0 sec
Reduced shell lists constructed in    0.1 sec

Total number of grid points                  ...    12809
Total number of batches                      ...      202
Average number of points per batch           ...       63
Average number of grid points per atom       ...     4270
Average number of shells per batch           ...     8.44 (84.43%)
Average number of basis functions per batch  ...    15.24 (84.67%)
Average number of large shells per batch     ...     8.11 (96.09%)
Average number of large basis fcns per batch ...    14.69 (96.41%)
Maximum spatial batch extension              ...  16.88, 14.61, 18.62 au
Average spatial batch extension              ...   3.12,  3.08,  3.72 au

Time for grid setup =    0.062 sec

------------------------------
INITIAL GUESS: MODEL POTENTIAL
------------------------------
Loading Hartree-Fock densities                     ... done
Calculating cut-offs                               ... done
Setting up the integral package                    ... done
Initializing the effective Hamiltonian             ... done
Starting the Coulomb interaction                   ... done (   0.0 sec)
Reading the grid                                   ... done
Mapping shells                                     ... done
Starting the XC term evaluation                    ... done (   0.0 sec)
  promolecular density results
     # of electrons  =      9.998950082
     EX              =     -9.032744542
     EC              =     -0.330374176
     EX+EC           =     -9.363118718
Transforming the Hamiltonian                       ... done (   0.0 sec)
Diagonalizing the Hamiltonian                      ... done (   0.0 sec)
Back transforming the eigenvectors                 ... done (   0.0 sec)
Now organizing SCF variables                       ... done
                      ------------------
                      INITIAL GUESS DONE (   0.2 sec)
                      ------------------
--------------
SCF ITERATIONS
--------------
ITER       Energy         Delta-E        Max-DP      RMS-DP      [F,P]   Gradient Norm
               ***  Starting incremental Fock matrix formation  ***
                             ****Resetting KDIIS****
                             ****Turning on KDIIS(Cayley)****
  0    -73.8927461475   0.000000000000 0.05825687  0.00720876  0.3319255   0.297601949
  1    -73.9792492002  -0.086503052651 0.15774684  0.01425937  0.2918376   0.252824278
  2    -74.0987026984  -0.119453498259 0.16218476  0.01343537  0.1921889   0.179681881
  3    -74.1712244376  -0.072521739154 0.17275597  0.01710090  0.0899117   0.102931560
  4    -74.1977216071  -0.026497169481 0.02672229  0.00275359  0.0618415   0.030723743
  5    -74.2003690754  -0.002647468395 0.13952812  0.01246814  0.0485171   0.024741821
  6    -74.2030766581  -0.002707582674 0.05360322  0.00567678  0.0259952   0.013261334
  7    -74.2045882014  -0.001511543254 0.00272951  0.00044110  0.0018133   0.001494756
  8    -74.2045977703  -0.000009568924 0.00065013  0.00006655  0.0005813   0.000354382
                          ***Energy convergence achieved***
  9    -74.2045982620  -0.000000491713 0.00021437  0.00003159  0.0001438   0.000090241
Warning: badly conditioned DIIS matrix, 1 vectors out of 5 destroyed
                           ***RMSP convergence achieved***
                           ***MAXP convergence achieved***
                    *** KDIIS BlockDiag ( 1.856 sec) ***

               *****************************************************
               *                     SUCCESS                       *
               *           SCF CONVERGED AFTER  10 CYCLES          *
               *****************************************************

Setting up the final grid:

General Integration Accuracy     IntAcc      ...  5.010
Radial Grid Type                 RadialGrid  ... Gauss-Chebyshev
Angular Grid (max. acc.)         AngularGrid ... Lebedev-434
Angular grid pruning method      GridPruning ... 3 (G Style)
Weight generation scheme         WeightScheme... Becke
Basis function cutoff            BFCut       ...    1.0000e-10
Integration weight cutoff        WCut        ...    1.0000e-14
Grids for H and He will be reduced by one unit

# of grid points (after initial pruning)     ...  24226 (   0.0 sec)
# of grid points (after weights+screening)   ...  23805 (   0.0 sec)
nearest neighbour list constructed           ...    0.0 sec
Grid point re-assignment to atoms done       ...    0.0 sec
Grid point division into batches done        ...    0.2 sec
Reduced shell lists constructed in    0.2 sec

Total number of grid points                  ...    23805
Total number of batches                      ...      374
Average number of points per batch           ...       63
Average number of grid points per atom       ...     7935
Average number of shells per batch           ...     8.29 (82.93%)
Average number of basis functions per batch  ...    15.01 (83.41%)
Average number of large shells per batch     ...     7.94 (95.72%)
Average number of large basis fcns per batch ...    14.39 (95.86%)
Maximum spatial batch extension              ...  15.43, 15.66, 17.00 au
Average spatial batch extension              ...   2.58,  2.63,  2.79 au

Final grid set up in    0.2 sec
Final integration                            ... done (   0.1 sec)
Change in XC energy                          ...    -0.000092308
Integrated number of electrons               ...     9.999999773
Previous integrated no of electrons          ...     9.999961372

----------------
TOTAL SCF ENERGY
----------------

Total Energy       :          -74.20469061 Eh           -2019.21229 eV

Components:
Nuclear Repulsion  :           19.15363450 Eh             521.19689 eV
Electronic Energy  :          -93.35832510 Eh           -2540.40918 eV
One Electron Energy:         -136.69060587 Eh           -3719.54048 eV
Two Electron Energy:           43.33228076 Eh            1179.13131 eV

Virial components:
Potential Energy   :         -155.26319450 Eh           -4224.92631 eV
Kinetic Energy     :           81.05850389 Eh            2205.71403 eV
Virial Ratio       :            1.91544609


DFT components:
N(Alpha)           :        4.999999886267 electrons
N(Beta)            :        4.999999886267 electrons
N(Total)           :        9.999999772534 electrons
E(XC)              :       -7.250123094520 Eh       
DFET-embed. en.    :        0.000000000000 Eh       

---------------
SCF CONVERGENCE
---------------

  Last Energy change         ...   -3.5013e-08  Tolerance :   1.0000e-06
  Last MAX-Density change    ...    8.8109e-06  Tolerance :   1.0000e-05
  Last RMS-Density change    ...    9.5562e-07  Tolerance :   1.0000e-06
  Last DIIS Error            ...    1.4962e-06  Tolerance :   1.0000e-06

             **** THE GBW FILE WAS UPDATED (H2O.gbw) ****
             **** DENSITY FILE WAS UPDATED (H2O.scfp) ****
             **** ENERGY FILE WAS UPDATED (H2O.en.tmp) ****
             **** THE GBW FILE WAS UPDATED (H2O.gbw) ****
             **** DENSITY FILE WAS UPDATED (H2O.scfp) ****
----------------
ORBITAL ENERGIES
----------------

  NO   OCC          E(Eh)            E(eV) 
   0   2.0000     -19.212941      -522.8107 
   1   2.0000      -1.460244       -39.7353 
   2   2.0000      -0.911024       -24.7902 
   3   2.0000      -0.541924       -14.7465 
   4   2.0000      -0.474930       -12.9235 
   5   0.0000       0.272046         7.4027 
   6   0.0000       0.356788         9.7087 
   7   0.0000       0.902451        24.5569 
   8   0.0000       0.974786        26.5253 
   9   0.0000       1.079550        29.3761 
  10   0.0000       1.507961        41.0337 
  11   0.0000       1.685146        45.8552 
  12   0.0000       1.733011        47.1576 
  13   0.0000       1.796022        48.8722 
  14   0.0000       1.840194        50.0742 
  15   0.0000       1.851998        50.3954 
  16   0.0000       4.794278       130.4589 
  17   0.0000       5.054525       137.5406 

                    ********************************
                    * MULLIKEN POPULATION ANALYSIS *
                    ********************************

-----------------------
MULLIKEN ATOMIC CHARGES
-----------------------
   0 O :   -0.149937
   1 H :    0.074970
   2 H :    0.074967
Sum of atomic charges:    0.0000000

--------------------------------
MULLIKEN REDUCED ORBITAL CHARGES
--------------------------------
  0 O s       :     3.188029  s :     3.188029
      pz      :     1.993800  p :     4.940465
      px      :     1.409600
      py      :     1.537065
      dz2     :     0.002436  d :     0.021443
      dxz     :     0.002178
      dyz     :     0.004022
      dx2y2   :     0.008495
      dxy     :     0.004312
  1 H s       :     0.925030  s :     0.925030
  2 H s       :     0.925033  s :     0.925033


                     *******************************
                     * LOEWDIN POPULATION ANALYSIS *
                     *******************************

----------------------
LOEWDIN ATOMIC CHARGES
----------------------
   0 O :   -0.375719
   1 H :    0.187860
   2 H :    0.187859

-------------------------------
LOEWDIN REDUCED ORBITAL CHARGES
-------------------------------
  0 O s       :     3.087165  s :     3.087165
      pz      :     1.993800  p :     5.247781
      px      :     1.575995
      py      :     1.677985
      dz2     :     0.006272  d :     0.040774
      dxz     :     0.002178
      dyz     :     0.004022
      dx2y2   :     0.022456
      dxy     :     0.005846
  1 H s       :     0.812140  s :     0.812140
  2 H s       :     0.812141  s :     0.812141


                      *****************************
                      * MAYER POPULATION ANALYSIS *
                      *****************************

  NA   - Mulliken gross atomic population
  ZA   - Total nuclear charge
  QA   - Mulliken gross atomic charge
  VA   - Mayer's total valence
  BVA  - Mayer's bonded valence
  FA   - Mayer's free valence

  ATOM       NA         ZA         QA         VA         BVA        FA
  0 O      8.1499     8.0000    -0.1499     1.9817     1.9817     0.0000
  1 H      0.9250     1.0000     0.0750     0.9786     0.9786     0.0000
  2 H      0.9250     1.0000     0.0750     0.9786     0.9786    -0.0000

  Mayer bond orders larger than 0.100000
B(  0-O ,  1-H ) :   0.9908 B(  0-O ,  2-H ) :   0.9908 

-------
TIMINGS
-------

Total SCF time: 0 days 0 hours 0 min 2 sec 

Total time                  ....       2.174 sec
Sum of individual times     ....       2.029 sec  ( 93.3%)

Fock matrix formation       ....       1.670 sec  ( 76.8%)
  XC integration            ....       0.882 sec  ( 52.8% of F)
    Basis function eval.    ....       0.145 sec  ( 16.4% of XC)
    Density eval.           ....       0.054 sec  (  6.1% of XC)
    XC-Functional eval.     ....       0.613 sec  ( 69.5% of XC)
    XC-Potential eval.      ....       0.032 sec  (  3.6% of XC)
Diagonalization             ....       0.003 sec  (  0.1%)
Density matrix formation    ....       0.000 sec  (  0.0%)
Population analysis         ....       0.000 sec  (  0.0%)
Initial guess               ....       0.105 sec  (  4.8%)
Orbital Transformation      ....       0.000 sec  (  0.0%)
Orbital Orthonormalization  ....       0.000 sec  (  0.0%)
DIIS solution               ....       0.000 sec  (  0.0%)
Grid generation             ....       0.250 sec  ( 11.5%)

-------------------------   --------------------
FINAL SINGLE POINT ENERGY       -74.204690605259
-------------------------   --------------------

Storing actual gbw-file in H2O.001.gbw ... done

                            ***************************************
                            *     ORCA property calculations      *
                            ***************************************

                                    ---------------------
                                    Active property flags
                                    ---------------------
   (+) Dipole Moment


------------------------------------------------------------------------------
                       ORCA ELECTRIC PROPERTIES CALCULATION
------------------------------------------------------------------------------

Dipole Moment Calculation                       ... on
Quadrupole Moment Calculation                   ... off
Polarizability Calculation                      ... off
GBWName                                         ... H2O.gbw
Electron density file                           ... H2O.scfp
The origin for moment calculation is the CENTER OF MASS  = ( 0.034115,  0.046358  0.000000)

-------------
DIPOLE MOMENT
-------------
                                X             Y             Z
Electronic contribution:      0.08518       0.11574      -0.00000
Nuclear contribution   :      0.26856       0.36493       0.00000
                        -----------------------------------------
Total Dipole Moment    :      0.35373       0.48067      -0.00000
                        -----------------------------------------
Magnitude (a.u.)       :      0.59680
Magnitude (Debye)      :      1.51694



--------------------
Rotational spectrum 
--------------------
 
Rotational constants in cm-1:   127.101408    61.131792    41.278249 
Rotational constants in MHz : 3810404.355991 1832685.020939 1237490.764455 

 Dipole components along the rotational axes: 
x,y,z [a.u.] :    -0.000002     0.596798    -0.000000 
x,y,z [Debye]:    -0.000004     1.516939    -0.000000 

 

         *************************************************************
                                TRAJECTORY STEP   2
                  R  :   0.55920000
         *************************************************************
---------------------------------
CARTESIAN COORDINATES (ANGSTROEM)
---------------------------------
  O      0.000000    0.000000    0.000000
  H      0.559200    0.000000    0.000000
  H     -0.166292    0.533902    0.000000

----------------------------
CARTESIAN COORDINATES (A.U.)
----------------------------
  NO LB      ZA    FRAG     MASS         X           Y           Z
   0 O     8.0000    0    15.999    0.000000    0.000000    0.000000
   1 H     1.0000    0     1.008    1.056735    0.000000    0.000000
   2 H     1.0000    0     1.008   -0.314246    1.008929    0.000000

--------------------------------
INTERNAL COORDINATES (ANGSTROEM)
--------------------------------
 O      0   0   0     0.000000000000     0.00000000     0.00000000
 H      1   0   0     0.559200000000     0.00000000     0.00000000
 H      1   2   0     0.559200000000   107.30000000     0.00000000

---------------------------
INTERNAL COORDINATES (A.U.)
---------------------------
 O      0   0   0     0.000000000000     0.00000000     0.00000000
 H      1   0   0     1.056734854089     0.00000000     0.00000000
 H      1   2   0     1.056734854089   107.30000000     0.00000000


Diagonalization of the overlap matrix:
Smallest eigenvalue                        ... 2.050e-02
Time for diagonalization                   ...    0.000 sec
Threshold for overlap eigenvalues          ... 1.000e-08
Number of eigenvalues below threshold      ... 0
Time for construction of square roots      ...    0.000 sec
Total time needed                          ...    0.001 sec

-------------------
DFT GRID GENERATION
-------------------

General Integration Accuracy     IntAcc      ...  4.670
Radial Grid Type                 RadialGrid  ... Gauss-Chebyshev
Angular Grid (max. acc.)         AngularGrid ... Lebedev-302
Angular grid pruning method      GridPruning ... 3 (G Style)
Weight generation scheme         WeightScheme... Becke
Basis function cutoff            BFCut       ...    1.0000e-10
Integration weight cutoff        WCut        ...    1.0000e-14
Grids for H and He will be reduced by one unit

# of grid points (after initial pruning)     ...  13000 (   0.0 sec)
# of grid points (after weights+screening)   ...  12831 (   0.0 sec)
nearest neighbour list constructed           ...    0.0 sec
Grid point re-assignment to atoms done       ...    0.0 sec
Grid point division into batches done        ...    0.0 sec
Reduced shell lists constructed in    0.1 sec

Total number of grid points                  ...    12831
Total number of batches                      ...      202
Average number of points per batch           ...       63
Average number of grid points per atom       ...     4277
Average number of shells per batch           ...     8.44 (84.43%)
Average number of basis functions per batch  ...    15.30 (85.00%)
Average number of large shells per batch     ...     8.12 (96.21%)
Average number of large basis fcns per batch ...    14.70 (96.10%)
Maximum spatial batch extension              ...  16.88, 14.61, 18.62 au
Average spatial batch extension              ...   3.14,  3.07,  3.71 au

Time for grid setup =    0.063 sec

--------------
SCF ITERATIONS
--------------
ITER       Energy         Delta-E        Max-DP      RMS-DP      [F,P]   Gradient Norm
               ***  Starting incremental Fock matrix formation  ***
                             ****Resetting KDIIS****
                             ****Turning on KDIIS(Cayley)****
  0    -75.3953207776   0.000000000000 0.01060868  0.00199870  0.0624948   0.066942693
  1    -75.3992204307  -0.003899653085 0.01959892  0.00342365  0.0551952   0.058489694
  2    -75.4034985581  -0.004278127468 0.03301361  0.00577908  0.0449414   0.047516428
  3    -75.4088671317  -0.005368573524 0.04924666  0.00837929  0.0271689   0.028560742
  4    -75.4118841195  -0.003016987874 0.00087884  0.00012075  0.0002181   0.000227640
                          ***Energy convergence achieved***
  5    -75.4118844548  -0.000000335285 0.00018314  0.00002161  0.0000462   0.000037004
Warning: badly conditioned DIIS matrix, 1 vectors out of 5 destroyed
                           ***MAXP convergence achieved***

            ***Energy convergence in two consecutive cycles with***
                    ***'reasonable' density convergence***
                       *** signaling convergence ***

                    *** KDIIS BlockDiag ( 1.243 sec) ***

               *****************************************************
               *                     SUCCESS                       *
               *           SCF CONVERGED AFTER   6 CYCLES          *
               *****************************************************

Setting up the final grid:

General Integration Accuracy     IntAcc      ...  5.010
Radial Grid Type                 RadialGrid  ... Gauss-Chebyshev
Angular Grid (max. acc.)         AngularGrid ... Lebedev-434
Angular grid pruning method      GridPruning ... 3 (G Style)
Weight generation scheme         WeightScheme... Becke
Basis function cutoff            BFCut       ...    1.0000e-10
Integration weight cutoff        WCut        ...    1.0000e-14
Grids for H and He will be reduced by one unit

# of grid points (after initial pruning)     ...  24226 (   0.0 sec)
# of grid points (after weights+screening)   ...  23860 (   0.0 sec)
nearest neighbour list constructed           ...    0.0 sec
Grid point re-assignment to atoms done       ...    0.0 sec
Grid point division into batches done        ...    0.2 sec
Reduced shell lists constructed in    0.2 sec

Total number of grid points                  ...    23860
Total number of batches                      ...      373
Average number of points per batch           ...       63
Average number of grid points per atom       ...     7953
Average number of shells per batch           ...     8.29 (82.86%)
Average number of basis functions per batch  ...    15.03 (83.50%)
Average number of large shells per batch     ...     7.90 (95.39%)
Average number of large basis fcns per batch ...    14.33 (95.32%)
Maximum spatial batch extension              ...  14.12, 15.66, 17.00 au
Average spatial batch extension              ...   2.57,  2.64,  2.87 au

Final grid set up in    0.2 sec
Final integration                            ... done (   0.1 sec)
Change in XC energy                          ...    -0.000244902
Integrated number of electrons               ...    10.000000016
Previous integrated no of electrons          ...    10.000002673
Total Energy       :          -75.41212937 Eh           -2052.06837 eV
  Last Energy change         ...   -1.2143e-08  Tolerance :   1.0000e-06
  Last MAX-Density change    ...    8.0217e-06  Tolerance :   1.0000e-05
             **** THE GBW FILE WAS UPDATED (H2O.gbw) ****
             **** DENSITY FILE WAS UPDATED (H2O.scfp) ****
             **** ENERGY FILE WAS UPDATED (H2O.en.tmp) ****
             **** THE GBW FILE WAS UPDATED (H2O.gbw) ****
             **** DENSITY FILE WAS UPDATED (H2O.scfp) ****
Total SCF time: 0 days 0 hours 0 min 1 sec 

-------------------------   --------------------
FINAL SINGLE POINT ENERGY       -75.412129368843
-------------------------   --------------------

Storing actual gbw-file in H2O.002.gbw ... done

                            ***************************************
                            *     ORCA property calculations      *
                            ***************************************

                                    ---------------------
                                    Active property flags
                                    ---------------------
   (+) Dipole Moment


------------------------------------------------------------------------------
                       ORCA ELECTRIC PROPERTIES CALCULATION
------------------------------------------------------------------------------

Dipole Moment Calculation                       ... on
Quadrupole Moment Calculation                   ... off
Polarizability Calculation                      ... off
GBWName                                         ... H2O.gbw
Electron density file                           ... H2O.scfp
The origin for moment calculation is the CENTER OF MASS  = ( 0.041545,  0.056453  0.000000)

-------------
DIPOLE MOMENT
-------------
                                X             Y             Z
Electronic contribution:      0.05645       0.07672      -0.00000
Nuclear contribution   :      0.32704       0.44440       0.00000
                        -----------------------------------------
Total Dipole Moment    :      0.38350       0.52112      -0.00000
                        -----------------------------------------
Magnitude (a.u.)       :      0.64702
Magnitude (Debye)      :      1.64459



--------------------
Rotational spectrum 
--------------------
 
Rotational constants in cm-1:    85.707691    41.222712    27.834966 
Rotational constants in MHz : 2569451.936436 1235825.816891 834471.290705 

 Dipole components along the rotational axes: 
x,y,z [a.u.] :     0.000005     0.647020    -0.000000 
x,y,z [Debye]:     0.000012     1.644593    -0.000000 

 

         *************************************************************
                                TRAJECTORY STEP   3
                  R  :   0.65920000
         *************************************************************
---------------------------------
CARTESIAN COORDINATES (ANGSTROEM)
---------------------------------
  O      0.000000    0.000000    0.000000
  H      0.659200    0.000000    0.000000
  H     -0.196030    0.629378    0.000000

----------------------------
CARTESIAN COORDINATES (A.U.)
----------------------------
  NO LB      ZA    FRAG     MASS         X           Y           Z
   0 O     8.0000    0    15.999    0.000000    0.000000    0.000000
   1 H     1.0000    0     1.008    1.245707    0.000000    0.000000
   2 H     1.0000    0     1.008   -0.370442    1.189353    0.000000

--------------------------------
INTERNAL COORDINATES (ANGSTROEM)
--------------------------------
 O      0   0   0     0.000000000000     0.00000000     0.00000000
 H      1   0   0     0.659200000000     0.00000000     0.00000000
 H      1   2   0     0.659200000000   107.30000000     0.00000000

---------------------------
INTERNAL COORDINATES (A.U.)
---------------------------
 O      0   0   0     0.000000000000     0.00000000     0.00000000
 H      1   0   0     1.245707467481     0.00000000     0.00000000
 H      1   2   0     1.245707467481   107.30000000     0.00000000


Diagonalization of the overlap matrix:
Smallest eigenvalue                        ... 2.730e-02
Time for diagonalization                   ...    0.000 sec
Threshold for overlap eigenvalues          ... 1.000e-08
Number of eigenvalues below threshold      ... 0
Time for construction of square roots      ...    0.000 sec
Total time needed                          ...    0.001 sec

-------------------
DFT GRID GENERATION
-------------------

General Integration Accuracy     IntAcc      ...  4.670
Radial Grid Type                 RadialGrid  ... Gauss-Chebyshev
Angular Grid (max. acc.)         AngularGrid ... Lebedev-302
Angular grid pruning method      GridPruning ... 3 (G Style)
Weight generation scheme         WeightScheme... Becke
Basis function cutoff            BFCut       ...    1.0000e-10
Integration weight cutoff        WCut        ...    1.0000e-14
Grids for H and He will be reduced by one unit

# of grid points (after initial pruning)     ...  13000 (   0.0 sec)
# of grid points (after weights+screening)   ...  12849 (   0.0 sec)
nearest neighbour list constructed           ...    0.0 sec
Grid point re-assignment to atoms done       ...    0.0 sec
Grid point division into batches done        ...    0.0 sec
Reduced shell lists constructed in    0.1 sec

Total number of grid points                  ...    12849
Total number of batches                      ...      202
Average number of points per batch           ...       63
Average number of grid points per atom       ...     4283
Average number of shells per batch           ...     8.44 (84.43%)
Average number of basis functions per batch  ...    15.28 (84.89%)
Average number of large shells per batch     ...     8.10 (95.92%)
Average number of large basis fcns per batch ...    14.67 (96.00%)
Maximum spatial batch extension              ...  16.88, 14.61, 18.62 au
Average spatial batch extension              ...   3.19,  3.08,  3.73 au

Time for grid setup =    0.067 sec

--------------
SCF ITERATIONS
--------------
ITER       Energy         Delta-E        Max-DP      RMS-DP      [F,P]   Gradient Norm
               ***  Starting incremental Fock matrix formation  ***
                             ****Resetting KDIIS****
                             ****Turning on KDIIS(Cayley)****
  0    -75.9731090634   0.000000000000 0.00920901  0.00159531  0.0572575   0.060912581
  1    -75.9765025865  -0.003393523096 0.01745506  0.00255314  0.0506505   0.053203297
  2    -75.9802720671  -0.003769480530 0.02932814  0.00433086  0.0412171   0.043320688
  3    -75.9850408821  -0.004768815008 0.04335360  0.00645480  0.0249481   0.026064119
  4    -75.9877436454  -0.002702763370 0.00054440  0.00008904  0.0002047   0.000218120
                          ***Energy convergence achieved***
  5    -75.9877439238  -0.000000278397 0.00011012  0.00001149  0.0000361   0.000030277
Warning: badly conditioned DIIS matrix, 1 vectors out of 5 destroyed

            ***Energy convergence in two consecutive cycles with***
                    ***'reasonable' density convergence***
                       *** signaling convergence ***

                    *** KDIIS BlockDiag ( 1.234 sec) ***

               *****************************************************
               *                     SUCCESS                       *
               *           SCF CONVERGED AFTER   6 CYCLES          *
               *****************************************************

Setting up the final grid:

General Integration Accuracy     IntAcc      ...  5.010
Radial Grid Type                 RadialGrid  ... Gauss-Chebyshev
Angular Grid (max. acc.)         AngularGrid ... Lebedev-434
Angular grid pruning method      GridPruning ... 3 (G Style)
Weight generation scheme         WeightScheme... Becke
Basis function cutoff            BFCut       ...    1.0000e-10
Integration weight cutoff        WCut        ...    1.0000e-14
Grids for H and He will be reduced by one unit

# of grid points (after initial pruning)     ...  24226 (   0.0 sec)
# of grid points (after weights+screening)   ...  23910 (   0.0 sec)
nearest neighbour list constructed           ...    0.0 sec
Grid point re-assignment to atoms done       ...    0.0 sec
Grid point division into batches done        ...    0.2 sec
Reduced shell lists constructed in    0.2 sec

Total number of grid points                  ...    23910
Total number of batches                      ...      375
Average number of points per batch           ...       63
Average number of grid points per atom       ...     7970
Average number of shells per batch           ...     8.27 (82.69%)
Average number of basis functions per batch  ...    14.98 (83.20%)
Average number of large shells per batch     ...     7.88 (95.27%)
Average number of large basis fcns per batch ...    14.32 (95.65%)
Maximum spatial batch extension              ...  14.06, 15.66, 17.00 au
Average spatial batch extension              ...   2.56,  2.64,  2.85 au

Final grid set up in    0.2 sec
Final integration                            ... done (   0.1 sec)
Change in XC energy                          ...    -0.000260316
Integrated number of electrons               ...     9.999999832
Previous integrated no of electrons          ...    10.000021506
Total Energy       :          -75.98800424 Eh           -2067.73872 eV
  Last Energy change         ...   -5.4137e-09  Tolerance :   1.0000e-06
  Last MAX-Density change    ...    1.2025e-05  Tolerance :   1.0000e-05
             **** THE GBW FILE WAS UPDATED (H2O.gbw) ****
             **** DENSITY FILE WAS UPDATED (H2O.scfp) ****
             **** ENERGY FILE WAS UPDATED (H2O.en.tmp) ****
             **** THE GBW FILE WAS UPDATED (H2O.gbw) ****
             **** DENSITY FILE WAS UPDATED (H2O.scfp) ****
Total SCF time: 0 days 0 hours 0 min 1 sec 

-------------------------   --------------------
FINAL SINGLE POINT ENERGY       -75.988004244804
-------------------------   --------------------

Storing actual gbw-file in H2O.003.gbw ... done

                            ***************************************
                            *     ORCA property calculations      *
                            ***************************************

                                    ---------------------
                                    Active property flags
                                    ---------------------
   (+) Dipole Moment


------------------------------------------------------------------------------
                       ORCA ELECTRIC PROPERTIES CALCULATION
------------------------------------------------------------------------------

Dipole Moment Calculation                       ... on
Quadrupole Moment Calculation                   ... off
Polarizability Calculation                      ... off
GBWName                                         ... H2O.gbw
Electron density file                           ... H2O.scfp
The origin for moment calculation is the CENTER OF MASS  = ( 0.048974,  0.066548  0.000000)

-------------
DIPOLE MOMENT
-------------
                                X             Y             Z
Electronic contribution:      0.02853       0.03876      -0.00000
Nuclear contribution   :      0.38552       0.52387       0.00000
                        -----------------------------------------
Total Dipole Moment    :      0.41405       0.56263      -0.00000
                        -----------------------------------------
Magnitude (a.u.)       :      0.69857
Magnitude (Debye)      :      1.77562



--------------------
Rotational spectrum 
--------------------
 
Rotational constants in cm-1:    61.676500    29.664463    20.030446 
Rotational constants in MHz : 1849014.966059 889318.223264 600497.671655 

 Dipole components along the rotational axes: 
x,y,z [a.u.] :    -0.000002     0.698568    -0.000000 
x,y,z [Debye]:    -0.000006     1.775620    -0.000000 

 

         *************************************************************
                                TRAJECTORY STEP   4
                  R  :   0.75920000
         *************************************************************
---------------------------------
CARTESIAN COORDINATES (ANGSTROEM)
---------------------------------
  O      0.000000    0.000000    0.000000
  H      0.759200    0.000000    0.000000
  H     -0.225767    0.724854    0.000000

----------------------------
CARTESIAN COORDINATES (A.U.)
----------------------------
  NO LB      ZA    FRAG     MASS         X           Y           Z
   0 O     8.0000    0    15.999    0.000000    0.000000    0.000000
   1 H     1.0000    0     1.008    1.434680    0.000000    0.000000
   2 H     1.0000    0     1.008   -0.426638    1.369776    0.000000

--------------------------------
INTERNAL COORDINATES (ANGSTROEM)
--------------------------------
 O      0   0   0     0.000000000000     0.00000000     0.00000000
 H      1   0   0     0.759200000000     0.00000000     0.00000000
 H      1   2   0     0.759200000000   107.30000000     0.00000000

---------------------------
INTERNAL COORDINATES (A.U.)
---------------------------
 O      0   0   0     0.000000000000     0.00000000     0.00000000
 H      1   0   0     1.434680080873     0.00000000     0.00000000
 H      1   2   0     1.434680080873   107.30000000     0.00000000


Diagonalization of the overlap matrix:
Smallest eigenvalue                        ... 3.646e-02
Time for diagonalization                   ...    0.000 sec
Threshold for overlap eigenvalues          ... 1.000e-08
Number of eigenvalues below threshold      ... 0
Time for construction of square roots      ...    0.000 sec
Total time needed                          ...    0.001 sec

-------------------
DFT GRID GENERATION
-------------------

General Integration Accuracy     IntAcc      ...  4.670
Radial Grid Type                 RadialGrid  ... Gauss-Chebyshev
Angular Grid (max. acc.)         AngularGrid ... Lebedev-302
Angular grid pruning method      GridPruning ... 3 (G Style)
Weight generation scheme         WeightScheme... Becke
Basis function cutoff            BFCut       ...    1.0000e-10
Integration weight cutoff        WCut        ...    1.0000e-14
Grids for H and He will be reduced by one unit

# of grid points (after initial pruning)     ...  13000 (   0.0 sec)
# of grid points (after weights+screening)   ...  12863 (   0.0 sec)
nearest neighbour list constructed           ...    0.0 sec
Grid point re-assignment to atoms done       ...    0.0 sec
Grid point division into batches done        ...    0.0 sec
Reduced shell lists constructed in    0.1 sec

Total number of grid points                  ...    12863
Total number of batches                      ...      203
Average number of points per batch           ...       63
Average number of grid points per atom       ...     4288
Average number of shells per batch           ...     8.42 (84.17%)
Average number of basis functions per batch  ...    15.22 (84.56%)
Average number of large shells per batch     ...     8.04 (95.52%)
Average number of large basis fcns per batch ...    14.62 (96.04%)
Maximum spatial batch extension              ...  15.89, 14.17, 18.62 au
Average spatial batch extension              ...   3.16,  3.08,  3.75 au

Time for grid setup =    0.063 sec

--------------
SCF ITERATIONS
--------------
ITER       Energy         Delta-E        Max-DP      RMS-DP      [F,P]   Gradient Norm
               ***  Starting incremental Fock matrix formation  ***
                             ****Resetting KDIIS****
                             ****Turning on KDIIS(Cayley)****
  0    -76.2407327963   0.000000000000 0.00826288  0.00128809  0.0462283   0.053563540
  1    -76.2434943653  -0.002761569032 0.01312105  0.00194891  0.0409474   0.046689494
  2    -76.2465732797  -0.003078914409 0.02670800  0.00342418  0.0332592   0.038157609
  3    -76.2505491143  -0.003975834586 0.04599398  0.00523630  0.0201466   0.022990577
  4    -76.2528280786  -0.002278964342 0.00038769  0.00006820  0.0001738   0.000209330
                          ***Energy convergence achieved***
  5    -76.2528283287  -0.000000250087 0.00007172  0.00000609  0.0000284   0.000021709
Warning: badly conditioned DIIS matrix, 1 vectors out of 5 destroyed
                           ***RMSP convergence achieved***
                           ***MAXP convergence achieved***
                    *** KDIIS BlockDiag ( 1.243 sec) ***

               *****************************************************
               *                     SUCCESS                       *
               *           SCF CONVERGED AFTER   6 CYCLES          *
               *****************************************************

Setting up the final grid:

General Integration Accuracy     IntAcc      ...  5.010
Radial Grid Type                 RadialGrid  ... Gauss-Chebyshev
Angular Grid (max. acc.)         AngularGrid ... Lebedev-434
Angular grid pruning method      GridPruning ... 3 (G Style)
Weight generation scheme         WeightScheme... Becke
Basis function cutoff            BFCut       ...    1.0000e-10
Integration weight cutoff        WCut        ...    1.0000e-14
Grids for H and He will be reduced by one unit

# of grid points (after initial pruning)     ...  24226 (   0.0 sec)
# of grid points (after weights+screening)   ...  23952 (   0.0 sec)
nearest neighbour list constructed           ...    0.0 sec
Grid point re-assignment to atoms done       ...    0.0 sec
Grid point division into batches done        ...    0.2 sec
Reduced shell lists constructed in    0.2 sec

Total number of grid points                  ...    23952
Total number of batches                      ...      376
Average number of points per batch           ...       63
Average number of grid points per atom       ...     7984
Average number of shells per batch           ...     8.25 (82.49%)
Average number of basis functions per batch  ...    14.95 (83.05%)
Average number of large shells per batch     ...     7.85 (95.18%)
Average number of large basis fcns per batch ...    14.29 (95.56%)
Maximum spatial batch extension              ...  14.87, 16.16, 17.00 au
Average spatial batch extension              ...   2.53,  2.61,  2.88 au

Final grid set up in    0.2 sec
Final integration                            ... done (   0.1 sec)
Change in XC energy                          ...    -0.000208658
Integrated number of electrons               ...     9.999999185
Previous integrated no of electrons          ...    10.000010469
Total Energy       :          -76.25303699 Eh           -2074.95062 eV
  Last Energy change         ...   -2.2921e-09  Tolerance :   1.0000e-06
  Last MAX-Density change    ...    4.8421e-06  Tolerance :   1.0000e-05
             **** THE GBW FILE WAS UPDATED (H2O.gbw) ****
             **** DENSITY FILE WAS UPDATED (H2O.scfp) ****
             **** ENERGY FILE WAS UPDATED (H2O.en.tmp) ****
             **** THE GBW FILE WAS UPDATED (H2O.gbw) ****
             **** DENSITY FILE WAS UPDATED (H2O.scfp) ****
Total SCF time: 0 days 0 hours 0 min 1 sec 

-------------------------   --------------------
FINAL SINGLE POINT ENERGY       -76.253036988976
-------------------------   --------------------

Storing actual gbw-file in H2O.004.gbw ... done

                            ***************************************
                            *     ORCA property calculations      *
                            ***************************************

                                    ---------------------
                                    Active property flags
                                    ---------------------
   (+) Dipole Moment


------------------------------------------------------------------------------
                       ORCA ELECTRIC PROPERTIES CALCULATION
------------------------------------------------------------------------------

Dipole Moment Calculation                       ... on
Quadrupole Moment Calculation                   ... off
Polarizability Calculation                      ... off
GBWName                                         ... H2O.gbw
Electron density file                           ... H2O.scfp
The origin for moment calculation is the CENTER OF MASS  = ( 0.056403,  0.076644  0.000000)

-------------
DIPOLE MOMENT
-------------
                                X             Y             Z
Electronic contribution:     -0.00036      -0.00050      -0.00000
Nuclear contribution   :      0.44401       0.60334       0.00000
                        -----------------------------------------
Total Dipole Moment    :      0.44365       0.60284      -0.00000
                        -----------------------------------------
Magnitude (a.u.)       :      0.74849
Magnitude (Debye)      :      1.90251



--------------------
Rotational spectrum 
--------------------
 
Rotational constants in cm-1:    46.498798    22.364464    15.101240 
Rotational constants in MHz : 1393998.880297 670469.752930 452723.800118 

 Dipole components along the rotational axes: 
x,y,z [a.u.] :    -0.000009     0.748491    -0.000000 
x,y,z [Debye]:    -0.000023     1.902513    -0.000000 

 

         *************************************************************
                                TRAJECTORY STEP   5
                  R  :   0.85920000
         *************************************************************
---------------------------------
CARTESIAN COORDINATES (ANGSTROEM)
---------------------------------
  O      0.000000    0.000000    0.000000
  H      0.859200    0.000000    0.000000
  H     -0.255504    0.820330    0.000000

----------------------------
CARTESIAN COORDINATES (A.U.)
----------------------------
  NO LB      ZA    FRAG     MASS         X           Y           Z
   0 O     8.0000    0    15.999    0.000000    0.000000    0.000000
   1 H     1.0000    0     1.008    1.623653    0.000000    0.000000
   2 H     1.0000    0     1.008   -0.482834    1.550200    0.000000

--------------------------------
INTERNAL COORDINATES (ANGSTROEM)
--------------------------------
 O      0   0   0     0.000000000000     0.00000000     0.00000000
 H      1   0   0     0.859200000000     0.00000000     0.00000000
 H      1   2   0     0.859200000000   107.30000000     0.00000000

---------------------------
INTERNAL COORDINATES (A.U.)
---------------------------
 O      0   0   0     0.000000000000     0.00000000     0.00000000
 H      1   0   0     1.623652694265     0.00000000     0.00000000
 H      1   2   0     1.623652694265   107.30000000     0.00000000


Diagonalization of the overlap matrix:
Smallest eigenvalue                        ... 4.864e-02
Time for diagonalization                   ...    0.000 sec
Threshold for overlap eigenvalues          ... 1.000e-08
Number of eigenvalues below threshold      ... 0
Time for construction of square roots      ...    0.000 sec
Total time needed                          ...    0.001 sec

-------------------
DFT GRID GENERATION
-------------------

General Integration Accuracy     IntAcc      ...  4.670
Radial Grid Type                 RadialGrid  ... Gauss-Chebyshev
Angular Grid (max. acc.)         AngularGrid ... Lebedev-302
Angular grid pruning method      GridPruning ... 3 (G Style)
Weight generation scheme         WeightScheme... Becke
Basis function cutoff            BFCut       ...    1.0000e-10
Integration weight cutoff        WCut        ...    1.0000e-14
Grids for H and He will be reduced by one unit

# of grid points (after initial pruning)     ...  13000 (   0.0 sec)
# of grid points (after weights+screening)   ...  12874 (   0.0 sec)
nearest neighbour list constructed           ...    0.0 sec
Grid point re-assignment to atoms done       ...    0.0 sec
Grid point division into batches done        ...    0.0 sec
Reduced shell lists constructed in    0.1 sec

Total number of grid points                  ...    12874
Total number of batches                      ...      203
Average number of points per batch           ...       63
Average number of grid points per atom       ...     4291
Average number of shells per batch           ...     8.39 (83.87%)
Average number of basis functions per batch  ...    15.19 (84.40%)
Average number of large shells per batch     ...     7.96 (94.92%)
Average number of large basis fcns per batch ...    14.53 (95.64%)
Maximum spatial batch extension              ...  15.70, 14.61, 18.62 au
Average spatial batch extension              ...   3.17,  3.09,  3.66 au

Time for grid setup =    0.063 sec

--------------
SCF ITERATIONS
--------------
ITER       Energy         Delta-E        Max-DP      RMS-DP      [F,P]   Gradient Norm
               ***  Starting incremental Fock matrix formation  ***
                             ****Resetting KDIIS****
                             ****Turning on KDIIS(Cayley)****
  0    -76.3505491937   0.000000000000 0.00827571  0.00103211  0.0391414   0.045075877
  1    -76.3526517419  -0.002102548155 0.01248838  0.00150609  0.0329234   0.039223710
  2    -76.3550155888  -0.002363846970 0.02500269  0.00277675  0.0271543   0.032217071
  3    -76.3581592469  -0.003143658032 0.04093007  0.00433295  0.0162268   0.019447657
  4    -76.3599843288  -0.001825081944 0.00023817  0.00004934  0.0001753   0.000193438
                          ***Energy convergence achieved***
  5    -76.3599845572  -0.000000228424 0.00006038  0.00000538  0.0000238   0.000017602
Warning: badly conditioned DIIS matrix, 1 vectors out of 5 destroyed
                           ***MAXP convergence achieved***

            ***Energy convergence in two consecutive cycles with***
                    ***'reasonable' density convergence***
                       *** signaling convergence ***

                    *** KDIIS BlockDiag ( 1.230 sec) ***

               *****************************************************
               *                     SUCCESS                       *
               *           SCF CONVERGED AFTER   6 CYCLES          *
               *****************************************************

Setting up the final grid:

General Integration Accuracy     IntAcc      ...  5.010
Radial Grid Type                 RadialGrid  ... Gauss-Chebyshev
Angular Grid (max. acc.)         AngularGrid ... Lebedev-434
Angular grid pruning method      GridPruning ... 3 (G Style)
Weight generation scheme         WeightScheme... Becke
Basis function cutoff            BFCut       ...    1.0000e-10
Integration weight cutoff        WCut        ...    1.0000e-14
Grids for H and He will be reduced by one unit

# of grid points (after initial pruning)     ...  24226 (   0.0 sec)
# of grid points (after weights+screening)   ...  23986 (   0.0 sec)
nearest neighbour list constructed           ...    0.0 sec
Grid point re-assignment to atoms done       ...    0.0 sec
Grid point division into batches done        ...    0.2 sec
Reduced shell lists constructed in    0.2 sec

Total number of grid points                  ...    23986
Total number of batches                      ...      376
Average number of points per batch           ...       63
Average number of grid points per atom       ...     7995
Average number of shells per batch           ...     8.24 (82.36%)
Average number of basis functions per batch  ...    14.94 (82.98%)
Average number of large shells per batch     ...     7.78 (94.49%)
Average number of large basis fcns per batch ...    14.21 (95.15%)
Maximum spatial batch extension              ...  15.68, 15.66, 17.00 au
Average spatial batch extension              ...   2.59,  2.65,  2.87 au

Final grid set up in    0.2 sec
Final integration                            ... done (   0.1 sec)
Change in XC energy                          ...    -0.000154495
Integrated number of electrons               ...     9.999999216
Previous integrated no of electrons          ...     9.999991471
Total Energy       :          -76.36013905 Eh           -2077.86502 eV
  Last Energy change         ...   -2.1312e-09  Tolerance :   1.0000e-06
  Last MAX-Density change    ...    6.8043e-06  Tolerance :   1.0000e-05
             **** THE GBW FILE WAS UPDATED (H2O.gbw) ****
             **** DENSITY FILE WAS UPDATED (H2O.scfp) ****
             **** ENERGY FILE WAS UPDATED (H2O.en.tmp) ****
             **** THE GBW FILE WAS UPDATED (H2O.gbw) ****
             **** DENSITY FILE WAS UPDATED (H2O.scfp) ****
Total SCF time: 0 days 0 hours 0 min 1 sec 

-------------------------   --------------------
FINAL SINGLE POINT ENERGY       -76.360139054248
-------------------------   --------------------

Storing actual gbw-file in H2O.005.gbw ... done

                            ***************************************
                            *     ORCA property calculations      *
                            ***************************************

                                    ---------------------
                                    Active property flags
                                    ---------------------
   (+) Dipole Moment


------------------------------------------------------------------------------
                       ORCA ELECTRIC PROPERTIES CALCULATION
------------------------------------------------------------------------------

Dipole Moment Calculation                       ... on
Quadrupole Moment Calculation                   ... off
Polarizability Calculation                      ... off
GBWName                                         ... H2O.gbw
Electron density file                           ... H2O.scfp
The origin for moment calculation is the CENTER OF MASS  = ( 0.063833,  0.086739  0.000000)

-------------
DIPOLE MOMENT
-------------
                                X             Y             Z
Electronic contribution:     -0.03396      -0.04619       0.00000
Nuclear contribution   :      0.50249       0.68281       0.00000
                        -----------------------------------------
Total Dipole Moment    :      0.46853       0.63662       0.00000
                        -----------------------------------------
Magnitude (a.u.)       :      0.79045
Magnitude (Debye)      :      2.00916



--------------------
Rotational spectrum 
--------------------
 
Rotational constants in cm-1:    36.304928    17.461532    11.790616 
Rotational constants in MHz : 1088394.371096 523483.566159 353473.767213 

 Dipole components along the rotational axes: 
x,y,z [a.u.] :    -0.000026     0.790448     0.000000 
x,y,z [Debye]:    -0.000065     2.009160     0.000000 

 

         *************************************************************
                                TRAJECTORY STEP   6
                  R  :   0.95920000
         *************************************************************
---------------------------------
CARTESIAN COORDINATES (ANGSTROEM)
---------------------------------
  O      0.000000    0.000000    0.000000
  H      0.959200    0.000000    0.000000
  H     -0.285242    0.915807    0.000000

----------------------------
CARTESIAN COORDINATES (A.U.)
----------------------------
  NO LB      ZA    FRAG     MASS         X           Y           Z
   0 O     8.0000    0    15.999    0.000000    0.000000    0.000000
   1 H     1.0000    0     1.008    1.812625    0.000000    0.000000
   2 H     1.0000    0     1.008   -0.539029    1.730624    0.000000

--------------------------------
INTERNAL COORDINATES (ANGSTROEM)
--------------------------------
 O      0   0   0     0.000000000000     0.00000000     0.00000000
 H      1   0   0     0.959200000000     0.00000000     0.00000000
 H      1   2   0     0.959200000000   107.30000000     0.00000000

---------------------------
INTERNAL COORDINATES (A.U.)
---------------------------
 O      0   0   0     0.000000000000     0.00000000     0.00000000
 H      1   0   0     1.812625307657     0.00000000     0.00000000
 H      1   2   0     1.812625307657   107.30000000     0.00000000


Diagonalization of the overlap matrix:
Smallest eigenvalue                        ... 6.353e-02
Time for diagonalization                   ...    0.000 sec
Threshold for overlap eigenvalues          ... 1.000e-08
Number of eigenvalues below threshold      ... 0
Time for construction of square roots      ...    0.000 sec
Total time needed                          ...    0.001 sec

-------------------
DFT GRID GENERATION
-------------------

General Integration Accuracy     IntAcc      ...  4.670
Radial Grid Type                 RadialGrid  ... Gauss-Chebyshev
Angular Grid (max. acc.)         AngularGrid ... Lebedev-302
Angular grid pruning method      GridPruning ... 3 (G Style)
Weight generation scheme         WeightScheme... Becke
Basis function cutoff            BFCut       ...    1.0000e-10
Integration weight cutoff        WCut        ...    1.0000e-14
Grids for H and He will be reduced by one unit

# of grid points (after initial pruning)     ...  13000 (   0.0 sec)
# of grid points (after weights+screening)   ...  12887 (   0.0 sec)
nearest neighbour list constructed           ...    0.0 sec
Grid point re-assignment to atoms done       ...    0.0 sec
Grid point division into batches done        ...    0.0 sec
Reduced shell lists constructed in    0.1 sec

Total number of grid points                  ...    12887
Total number of batches                      ...      203
Average number of points per batch           ...       63
Average number of grid points per atom       ...     4296
Average number of shells per batch           ...     8.37 (83.68%)
Average number of basis functions per batch  ...    15.17 (84.29%)
Average number of large shells per batch     ...     7.91 (94.49%)
Average number of large basis fcns per batch ...    14.48 (95.41%)
Maximum spatial batch extension              ...  15.51, 14.25, 18.62 au
Average spatial batch extension              ...   3.18,  3.11,  3.67 au

Time for grid setup =    0.063 sec

--------------
SCF ITERATIONS
--------------
ITER       Energy         Delta-E        Max-DP      RMS-DP      [F,P]   Gradient Norm
               ***  Starting incremental Fock matrix formation  ***
                             ****Resetting KDIIS****
                             ****Turning on KDIIS(Cayley)****
  0    -76.3790705819   0.000000000000 0.00625526  0.00083096  0.0324998   0.036940335
  1    -76.3806221330  -0.001551551152 0.00838026  0.00119182  0.0273322   0.032128927
  2    -76.3823971642  -0.001775031225 0.01796867  0.00232036  0.0230470   0.026554106
  3    -76.3848444669  -0.002447302666 0.02907702  0.00368343  0.0138252   0.016073640
  4    -76.3862832718  -0.001438804926 0.00023191  0.00004337  0.0001786   0.000184367
                          ***Energy convergence achieved***
  5    -76.3862835203  -0.000000248421 0.00006540  0.00000756  0.0000239   0.000020918

            ***Energy convergence in two consecutive cycles with***
                    ***'reasonable' density convergence***
                       *** signaling convergence ***

                    *** KDIIS BlockDiag ( 1.240 sec) ***

               *****************************************************
               *                     SUCCESS                       *
               *           SCF CONVERGED AFTER   6 CYCLES          *
               *****************************************************

Setting up the final grid:

General Integration Accuracy     IntAcc      ...  5.010
Radial Grid Type                 RadialGrid  ... Gauss-Chebyshev
Angular Grid (max. acc.)         AngularGrid ... Lebedev-434
Angular grid pruning method      GridPruning ... 3 (G Style)
Weight generation scheme         WeightScheme... Becke
Basis function cutoff            BFCut       ...    1.0000e-10
Integration weight cutoff        WCut        ...    1.0000e-14
Grids for H and He will be reduced by one unit

# of grid points (after initial pruning)     ...  24226 (   0.0 sec)
# of grid points (after weights+screening)   ...  24010 (   0.0 sec)
nearest neighbour list constructed           ...    0.0 sec
Grid point re-assignment to atoms done       ...    0.0 sec
Grid point division into batches done        ...    0.2 sec
Reduced shell lists constructed in    0.2 sec

Total number of grid points                  ...    24010
Total number of batches                      ...      376
Average number of points per batch           ...       63
Average number of grid points per atom       ...     8003
Average number of shells per batch           ...     8.23 (82.31%)
Average number of basis functions per batch  ...    14.95 (83.04%)
Average number of large shells per batch     ...     7.69 (93.46%)
Average number of large basis fcns per batch ...    14.11 (94.37%)
Maximum spatial batch extension              ...  15.63, 14.43, 17.00 au
Average spatial batch extension              ...   2.59,  2.67,  2.84 au

Final grid set up in    0.2 sec
Final integration                            ... done (   0.1 sec)
Change in XC energy                          ...    -0.000112909
Integrated number of electrons               ...    10.000000505
Previous integrated no of electrons          ...     9.999982365
Total Energy       :          -76.38639643 Eh           -2078.57952 eV
  Last Energy change         ...   -4.6021e-09  Tolerance :   1.0000e-06
  Last MAX-Density change    ...    1.1509e-05  Tolerance :   1.0000e-05
             **** THE GBW FILE WAS UPDATED (H2O.gbw) ****
             **** DENSITY FILE WAS UPDATED (H2O.scfp) ****
             **** ENERGY FILE WAS UPDATED (H2O.en.tmp) ****
             **** THE GBW FILE WAS UPDATED (H2O.gbw) ****
             **** DENSITY FILE WAS UPDATED (H2O.scfp) ****
Total SCF time: 0 days 0 hours 0 min 1 sec 

-------------------------   --------------------
FINAL SINGLE POINT ENERGY       -76.386396433445
-------------------------   --------------------

Storing actual gbw-file in H2O.006.gbw ... done

                            ***************************************
                            *     ORCA property calculations      *
                            ***************************************

                                    ---------------------
                                    Active property flags
                                    ---------------------
   (+) Dipole Moment


------------------------------------------------------------------------------
                       ORCA ELECTRIC PROPERTIES CALCULATION
------------------------------------------------------------------------------

Dipole Moment Calculation                       ... on
Quadrupole Moment Calculation                   ... off
Polarizability Calculation                      ... off
GBWName                                         ... H2O.gbw
Electron density file                           ... H2O.scfp
The origin for moment calculation is the CENTER OF MASS  = ( 0.071262,  0.096834  0.000000)

-------------
DIPOLE MOMENT
-------------
                                X             Y             Z
Electronic contribution:     -0.07523      -0.10226       0.00000
Nuclear contribution   :      0.56098       0.76228       0.00000
                        -----------------------------------------
Total Dipole Moment    :      0.48575       0.66002       0.00000
                        -----------------------------------------
Magnitude (a.u.)       :      0.81950
Magnitude (Debye)      :      2.08301



--------------------
Rotational spectrum 
--------------------
 
Rotational constants in cm-1:    29.129684    14.010465     9.460339 
Rotational constants in MHz : 873285.971278 420023.170517 283613.817123 

 Dipole components along the rotational axes: 
x,y,z [a.u.] :    -0.000021     0.819502     0.000000 
x,y,z [Debye]:    -0.000053     2.083010     0.000000 

 

         *************************************************************
                                TRAJECTORY STEP   7
                  R  :   1.05920000
         *************************************************************
---------------------------------
CARTESIAN COORDINATES (ANGSTROEM)
---------------------------------
  O      0.000000    0.000000    0.000000
  H      1.059200    0.000000    0.000000
  H     -0.314979    1.011283    0.000000

----------------------------
CARTESIAN COORDINATES (A.U.)
----------------------------
  NO LB      ZA    FRAG     MASS         X           Y           Z
   0 O     8.0000    0    15.999    0.000000    0.000000    0.000000
   1 H     1.0000    0     1.008    2.001598    0.000000    0.000000
   2 H     1.0000    0     1.008   -0.595225    1.911047    0.000000

--------------------------------
INTERNAL COORDINATES (ANGSTROEM)
--------------------------------
 O      0   0   0     0.000000000000     0.00000000     0.00000000
 H      1   0   0     1.059200000000     0.00000000     0.00000000
 H      1   2   0     1.059200000000   107.30000000     0.00000000

---------------------------
INTERNAL COORDINATES (A.U.)
---------------------------
 O      0   0   0     0.000000000000     0.00000000     0.00000000
 H      1   0   0     2.001597921049     0.00000000     0.00000000
 H      1   2   0     2.001597921049   107.30000000     0.00000000


Diagonalization of the overlap matrix:
Smallest eigenvalue                        ... 8.015e-02
Time for diagonalization                   ...    0.000 sec
Threshold for overlap eigenvalues          ... 1.000e-08
Number of eigenvalues below threshold      ... 0
Time for construction of square roots      ...    0.000 sec
Total time needed                          ...    0.001 sec

-------------------
DFT GRID GENERATION
-------------------

General Integration Accuracy     IntAcc      ...  4.670
Radial Grid Type                 RadialGrid  ... Gauss-Chebyshev
Angular Grid (max. acc.)         AngularGrid ... Lebedev-302
Angular grid pruning method      GridPruning ... 3 (G Style)
Weight generation scheme         WeightScheme... Becke
Basis function cutoff            BFCut       ...    1.0000e-10
Integration weight cutoff        WCut        ...    1.0000e-14
Grids for H and He will be reduced by one unit

# of grid points (after initial pruning)     ...  13000 (   0.0 sec)
# of grid points (after weights+screening)   ...  12896 (   0.0 sec)
nearest neighbour list constructed           ...    0.0 sec
Grid point re-assignment to atoms done       ...    0.0 sec
Grid point division into batches done        ...    0.0 sec
Reduced shell lists constructed in    0.1 sec

Total number of grid points                  ...    12896
Total number of batches                      ...      203
Average number of points per batch           ...       63
Average number of grid points per atom       ...     4299
Average number of shells per batch           ...     8.36 (83.63%)
Average number of basis functions per batch  ...    15.16 (84.20%)
Average number of large shells per batch     ...     7.87 (94.08%)
Average number of large basis fcns per batch ...    14.44 (95.25%)
Maximum spatial batch extension              ...  15.43, 14.43, 18.62 au
Average spatial batch extension              ...   3.29,  3.11,  3.75 au

Time for grid setup =    0.063 sec

--------------
SCF ITERATIONS
--------------
ITER       Energy         Delta-E        Max-DP      RMS-DP      [F,P]   Gradient Norm
               ***  Starting incremental Fock matrix formation  ***
                             ****Resetting KDIIS****
                             ****Turning on KDIIS(Cayley)****
  0    -76.3662489561   0.000000000000 0.00504692  0.00069474  0.0287255   0.030213961
  1    -76.3673993244  -0.001150368256 0.00510761  0.00100697  0.0242485   0.026302010
  2    -76.3687420804  -0.001342756013 0.01068432  0.00204770  0.0204996   0.021894373
  3    -76.3706729447  -0.001930864293 0.01732775  0.00326892  0.0123543   0.013294988
  4    -76.3718170465  -0.001144101833 0.00034792  0.00005132  0.0002010   0.000193226
                          ***Energy convergence achieved***
  5    -76.3718173881  -0.000000341657 0.00007274  0.00000956  0.0000283   0.000024672

            ***Energy convergence in two consecutive cycles with***
                    ***'reasonable' density convergence***
                       *** signaling convergence ***

                    *** KDIIS BlockDiag ( 1.240 sec) ***

               *****************************************************
               *                     SUCCESS                       *
               *           SCF CONVERGED AFTER   6 CYCLES          *
               *****************************************************

Setting up the final grid:

General Integration Accuracy     IntAcc      ...  5.010
Radial Grid Type                 RadialGrid  ... Gauss-Chebyshev
Angular Grid (max. acc.)         AngularGrid ... Lebedev-434
Angular grid pruning method      GridPruning ... 3 (G Style)
Weight generation scheme         WeightScheme... Becke
Basis function cutoff            BFCut       ...    1.0000e-10
Integration weight cutoff        WCut        ...    1.0000e-14
Grids for H and He will be reduced by one unit

# of grid points (after initial pruning)     ...  24226 (   0.0 sec)
# of grid points (after weights+screening)   ...  24025 (   0.0 sec)
nearest neighbour list constructed           ...    0.0 sec
[...]


Diagonalization of the overlap matrix:
Smallest eigenvalue                        ... 2.333e-01
Time for diagonalization                   ...    0.000 sec
Threshold for overlap eigenvalues          ... 1.000e-08
Number of eigenvalues below threshold      ... 0
Time for construction of square roots      ...    0.000 sec
Total time needed                          ...    0.001 sec

-------------------
DFT GRID GENERATION
-------------------

General Integration Accuracy     IntAcc      ...  4.670
Radial Grid Type                 RadialGrid  ... Gauss-Chebyshev
Angular Grid (max. acc.)         AngularGrid ... Lebedev-302
Angular grid pruning method      GridPruning ... 3 (G Style)
Weight generation scheme         WeightScheme... Becke
Basis function cutoff            BFCut       ...    1.0000e-10
Integration weight cutoff        WCut        ...    1.0000e-14
Grids for H and He will be reduced by one unit

# of grid points (after initial pruning)     ...  13000 (   0.0 sec)
# of grid points (after weights+screening)   ...  12990 (   0.0 sec)
nearest neighbour list constructed           ...    0.0 sec
Grid point re-assignment to atoms done       ...    0.0 sec
Grid point division into batches done        ...    0.0 sec
Reduced shell lists constructed in    0.1 sec

Total number of grid points                  ...    12990
Total number of batches                      ...      205
Average number of points per batch           ...       63
Average number of grid points per atom       ...     4330
Average number of shells per batch           ...     5.10 (50.97%)
Average number of basis functions per batch  ...     9.38 (52.10%)
Average number of large shells per batch     ...     3.61 (70.86%)
Average number of large basis fcns per batch ...     6.94 (74.02%)
Maximum spatial batch extension              ...  15.76, 16.19, 19.94 au
Average spatial batch extension              ...   4.03,  3.86,  4.01 au

Time for grid setup =    0.064 sec

--------------
SCF ITERATIONS
--------------
ITER       Energy         Delta-E        Max-DP      RMS-DP      [F,P]   Gradient Norm
               ***  Starting incremental Fock matrix formation  ***
                             ****Resetting KDIIS****
                             ****Turning on KDIIS(Cayley)****
  0    -75.6805374067   0.000000000000 0.00008678  0.00001299  0.0002615   0.000233883
                          ***Energy convergence achieved***
  1    -75.6805376063  -0.000000199514 0.00005498  0.00000928  0.0001660   0.000184765
  2    -75.6805377093  -0.000000103016 0.00009073  0.00001495  0.0001373   0.000152065
  3    -75.6805378519  -0.000000142634 0.00013979  0.00002365  0.0000837   0.000092217
  4    -75.6805379367  -0.000000084777 0.00009954  0.00001023  0.0000103   0.000005799

            ***Energy convergence in two consecutive cycles with***
                    ***'reasonable' density convergence***
                       *** signaling convergence ***

                    *** KDIIS BlockDiag ( 1.048 sec) ***

               *****************************************************
               *                     SUCCESS                       *
               *           SCF CONVERGED AFTER   5 CYCLES          *
               *****************************************************

Setting up the final grid:

General Integration Accuracy     IntAcc      ...  5.010
Radial Grid Type                 RadialGrid  ... Gauss-Chebyshev
Angular Grid (max. acc.)         AngularGrid ... Lebedev-434
Angular grid pruning method      GridPruning ... 3 (G Style)
Weight generation scheme         WeightScheme... Becke
Basis function cutoff            BFCut       ...    1.0000e-10
Integration weight cutoff        WCut        ...    1.0000e-14
Grids for H and He will be reduced by one unit

# of grid points (after initial pruning)     ...  24226 (   0.0 sec)
# of grid points (after weights+screening)   ...  24209 (   0.0 sec)
nearest neighbour list constructed           ...    0.0 sec
Grid point re-assignment to atoms done       ...    0.0 sec
Grid point division into batches done        ...    0.2 sec
Reduced shell lists constructed in    0.2 sec

Total number of grid points                  ...    24209
Total number of batches                      ...      379
Average number of points per batch           ...       63
Average number of grid points per atom       ...     8070
Average number of shells per batch           ...     4.76 (47.58%)
Average number of basis functions per batch  ...     8.72 (48.42%)
Average number of large shells per batch     ...     3.43 (72.12%)
Average number of large basis fcns per batch ...     6.46 (74.15%)
Maximum spatial batch extension              ...  17.16, 16.27, 23.86 au
Average spatial batch extension              ...   3.27,  3.26,  3.28 au

Final grid set up in    0.2 sec
Final integration                            ... done (   0.1 sec)
Change in XC energy                          ...    -0.000066506
Integrated number of electrons               ...     9.999998143
Previous integrated no of electrons          ...    10.000020808
Total Energy       :          -75.68060444 Eh           -2059.37394 eV
  Last Energy change         ...    3.9617e-09  Tolerance :   1.0000e-06
  Last MAX-Density change    ...    2.0623e-05  Tolerance :   1.0000e-05
             **** THE GBW FILE WAS UPDATED (H2O.gbw) ****
             **** DENSITY FILE WAS UPDATED (H2O.scfp) ****
             **** ENERGY FILE WAS UPDATED (H2O.en.tmp) ****
             **** THE GBW FILE WAS UPDATED (H2O.gbw) ****
             **** DENSITY FILE WAS UPDATED (H2O.scfp) ****
Total SCF time: 0 days 0 hours 0 min 1 sec 

-------------------------   --------------------
FINAL SINGLE POINT ENERGY       -75.680604438751
-------------------------   --------------------

Storing actual gbw-file in H2O.045.gbw ... done

                            ***************************************
                            *     ORCA property calculations      *
                            ***************************************

                                    ---------------------
                                    Active property flags
                                    ---------------------
   (+) Dipole Moment


------------------------------------------------------------------------------
                       ORCA ELECTRIC PROPERTIES CALCULATION
------------------------------------------------------------------------------

Dipole Moment Calculation                       ... on
Quadrupole Moment Calculation                   ... off
Polarizability Calculation                      ... off
GBWName                                         ... H2O.gbw
Electron density file                           ... H2O.scfp
The origin for moment calculation is the CENTER OF MASS  = ( 0.361005,  0.490551  0.000000)

-------------
DIPOLE MOMENT
-------------
                                X             Y             Z
Electronic contribution:     -2.21914      -3.01580      -0.00000
Nuclear contribution   :      2.84184       3.86163       0.00000
                        -----------------------------------------
Total Dipole Moment    :      0.62270       0.84583      -0.00000
                        -----------------------------------------
Magnitude (a.u.)       :      1.05032
Magnitude (Debye)      :      2.66971



--------------------
Rotational spectrum 
--------------------
 
Rotational constants in cm-1:     1.135075     0.545936     0.368634 
Rotational constants in MHz : 34028.693463 16366.734594 11051.371443 

 Dipole components along the rotational axes: 
x,y,z [a.u.] :    -0.000194     1.050323    -0.000000 
x,y,z [Debye]:    -0.000492     2.669709    -0.000000 

 

         *************************************************************
                                TRAJECTORY STEP  46
                  R  :   4.95920000
         *************************************************************
---------------------------------
CARTESIAN COORDINATES (ANGSTROEM)
---------------------------------
  O      0.000000    0.000000    0.000000
  H      4.959200    0.000000    0.000000
  H     -1.474741    4.734850    0.000000

----------------------------
CARTESIAN COORDINATES (A.U.)
----------------------------
  NO LB      ZA    FRAG     MASS         X           Y           Z
   0 O     8.0000    0    15.999    0.000000    0.000000    0.000000
   1 H     1.0000    0     1.008    9.371530    0.000000    0.000000
   2 H     1.0000    0     1.008   -2.786858    8.947569    0.000000

--------------------------------
INTERNAL COORDINATES (ANGSTROEM)
--------------------------------
 O      0   0   0     0.000000000000     0.00000000     0.00000000
 H      1   0   0     4.959200000000     0.00000000     0.00000000
 H      1   2   0     4.959200000000   107.30000000     0.00000000

---------------------------
INTERNAL COORDINATES (A.U.)
---------------------------
 O      0   0   0     0.000000000000     0.00000000     0.00000000
 H      1   0   0     9.371529843342     0.00000000     0.00000000
 H      1   2   0     9.371529843342   107.30000000     0.00000000


Diagonalization of the overlap matrix:
Smallest eigenvalue                        ... 2.333e-01
Time for diagonalization                   ...    0.000 sec
Threshold for overlap eigenvalues          ... 1.000e-08
Number of eigenvalues below threshold      ... 0
Time for construction of square roots      ...    0.000 sec
Total time needed                          ...    0.001 sec

-------------------
DFT GRID GENERATION
-------------------

General Integration Accuracy     IntAcc      ...  4.670
Radial Grid Type                 RadialGrid  ... Gauss-Chebyshev
Angular Grid (max. acc.)         AngularGrid ... Lebedev-302
Angular grid pruning method      GridPruning ... 3 (G Style)
Weight generation scheme         WeightScheme... Becke
Basis function cutoff            BFCut       ...    1.0000e-10
Integration weight cutoff        WCut        ...    1.0000e-14
Grids for H and He will be reduced by one unit

# of grid points (after initial pruning)     ...  13000 (   0.0 sec)
# of grid points (after weights+screening)   ...  12990 (   0.0 sec)
nearest neighbour list constructed           ...    0.0 sec
Grid point re-assignment to atoms done       ...    0.0 sec
Grid point division into batches done        ...    0.0 sec
Reduced shell lists constructed in    0.1 sec

Total number of grid points                  ...    12990
Total number of batches                      ...      204
Average number of points per batch           ...       63
Average number of grid points per atom       ...     4330
Average number of shells per batch           ...     5.02 (50.24%)
Average number of basis functions per batch  ...     9.22 (51.22%)
Average number of large shells per batch     ...     3.57 (71.07%)
Average number of large basis fcns per batch ...     6.87 (74.50%)
Maximum spatial batch extension              ...  15.76, 22.27, 22.27 au
Average spatial batch extension              ...   3.98,  3.89,  4.05 au

Time for grid setup =    0.064 sec

--------------
SCF ITERATIONS
--------------
ITER       Energy         Delta-E        Max-DP      RMS-DP      [F,P]   Gradient Norm
               ***  Starting incremental Fock matrix formation  ***
                             ****Resetting KDIIS****
                             ****Turning on KDIIS(Cayley)****
  0    -75.6779903494   0.000000000000 0.00008481  0.00001230  0.0002469   0.000213560
                          ***Energy convergence achieved***
  1    -75.6779905228  -0.000000173418 0.00004972  0.00000839  0.0001460   0.000166691
  2    -75.6779906075  -0.000000084624 0.00008190  0.00001350  0.0001208   0.000137236
  3    -75.6779907251  -0.000000117678 0.00012518  0.00002129  0.0000736   0.000083205

            ***Energy convergence in two consecutive cycles with***
                    ***'reasonable' density convergence***
                       *** signaling convergence ***

                    *** KDIIS BlockDiag ( 0.924 sec) ***

               *****************************************************
               *                     SUCCESS                       *
               *           SCF CONVERGED AFTER   4 CYCLES          *
               *****************************************************

Setting up the final grid:

General Integration Accuracy     IntAcc      ...  5.010
Radial Grid Type                 RadialGrid  ... Gauss-Chebyshev
Angular Grid (max. acc.)         AngularGrid ... Lebedev-434
Angular grid pruning method      GridPruning ... 3 (G Style)
Weight generation scheme         WeightScheme... Becke
Basis function cutoff            BFCut       ...    1.0000e-10
Integration weight cutoff        WCut        ...    1.0000e-14
Grids for H and He will be reduced by one unit

# of grid points (after initial pruning)     ...  24226 (   0.0 sec)
# of grid points (after weights+screening)   ...  24211 (   0.0 sec)
nearest neighbour list constructed           ...    0.0 sec
Grid point re-assignment to atoms done       ...    0.0 sec
Grid point division into batches done        ...    0.2 sec
Reduced shell lists constructed in    0.2 sec

Total number of grid points                  ...    24211
Total number of batches                      ...      380
Average number of points per batch           ...       63
Average number of grid points per atom       ...     8070
Average number of shells per batch           ...     4.64 (46.35%)
Average number of basis functions per batch  ...     8.46 (47.01%)
Average number of large shells per batch     ...     3.40 (73.27%)
Average number of large basis fcns per batch ...     6.41 (75.74%)
Maximum spatial batch extension              ...  16.55, 16.45, 23.86 au
Average spatial batch extension              ...   3.29,  3.25,  3.31 au

Final grid set up in    0.2 sec
Final integration                            ... done (   0.1 sec)
Change in XC energy                          ...    -0.000066907
Integrated number of electrons               ...     9.999998355
Previous integrated no of electrons          ...    10.000017399
Total Energy       :          -75.67805770 Eh           -2059.30464 eV
  Last Energy change         ...   -6.9662e-08  Tolerance :   1.0000e-06
  Last MAX-Density change    ...    8.0060e-05  Tolerance :   1.0000e-05
             **** THE GBW FILE WAS UPDATED (H2O.gbw) ****
             **** DENSITY FILE WAS UPDATED (H2O.scfp) ****
             **** ENERGY FILE WAS UPDATED (H2O.en.tmp) ****
             **** THE GBW FILE WAS UPDATED (H2O.gbw) ****
             **** DENSITY FILE WAS UPDATED (H2O.scfp) ****
Total SCF time: 0 days 0 hours 0 min 1 sec 

-------------------------   --------------------
FINAL SINGLE POINT ENERGY       -75.678057701560
-------------------------   --------------------

Storing actual gbw-file in H2O.046.gbw ... done

                            ***************************************
                            *     ORCA property calculations      *
                            ***************************************

                                    ---------------------
                                    Active property flags
                                    ---------------------
   (+) Dipole Moment


------------------------------------------------------------------------------
                       ORCA ELECTRIC PROPERTIES CALCULATION
------------------------------------------------------------------------------

Dipole Moment Calculation                       ... on
Quadrupole Moment Calculation                   ... off
Polarizability Calculation                      ... off
GBWName                                         ... H2O.gbw
Electron density file                           ... H2O.scfp
The origin for moment calculation is the CENTER OF MASS  = ( 0.368435,  0.500647  0.000000)

-------------
DIPOLE MOMENT
-------------
                                X             Y             Z
Electronic contribution:     -2.26817      -3.08238       0.00000
Nuclear contribution   :      2.90033       3.94110       0.00000
                        -----------------------------------------
Total Dipole Moment    :      0.63216       0.85872       0.00000
                        -----------------------------------------
Magnitude (a.u.)       :      1.06631
Magnitude (Debye)      :      2.71035



--------------------
Rotational spectrum 
--------------------
 
Rotational constants in cm-1:     1.089760     0.524140     0.353917 
Rotational constants in MHz : 32670.183746 15713.334016 10610.173326 

 Dipole components along the rotational axes: 
x,y,z [a.u.] :    -0.000171     1.066313     0.000000 
x,y,z [Debye]:    -0.000434     2.710353     0.000000 

 
                              **** TRAJECTORY DONE ***

                         SUMMARY OF THE CALCULATED SURFACE

------------------
TRAJECTORY RESULTS
------------------

Column   1: R

The Calculated Surface using the 'Actual Energy'
   0.45920000 -74.20469061
   0.55920000 -75.41212937
   0.65920000 -75.98800424
   0.75920000 -76.25303699
   0.85920000 -76.36013905
   0.95920000 -76.38639643
   1.05920000 -76.37190914
   1.15920000 -76.33781799
   1.25920000 -76.29535142
   1.35920000 -76.25040914
   1.45920000 -76.20595666
   1.55920000 -76.16332448
   1.65920000 -76.12309907
   1.75920000 -76.08540082
   1.85920000 -76.05030204
   1.95920000 -76.01774797
   2.05920000 -75.98766038
   2.15920000 -75.95990223
   2.25920000 -75.93436536
   2.35920000 -75.91086985
   2.45920000 -75.88923758
   2.55920000 -75.86933905
   2.65920000 -75.85102899
   2.75920000 -75.83417011
   2.85920000 -75.81866489
   2.95920000 -75.80443236
   3.05920000 -75.79129102
   3.15920000 -75.77928879
   3.25920000 -75.76830760
   3.35920000 -75.75828794
   3.45920000 -75.74915943
   3.55920000 -75.74085238
   3.65920000 -75.73330336
   3.75920000 -75.72644273
   3.85920000 -75.72020676
   3.95920000 -75.71453360
   4.05920000 -75.70936588
   4.15920000 -75.70464672
   4.25920000 -75.70032505
   4.35920000 -75.69636002
   4.45920000 -75.69271352
   4.55920000 -75.68934713
   4.65920000 -75.68622588
   4.75920000 -75.68331993
   4.85920000 -75.68060444
   4.95920000 -75.67805770

The Calculated Surface using the SCF energy
   0.45920000 -74.20469061
   0.55920000 -75.41212937
   0.65920000 -75.98800424
   0.75920000 -76.25303699
   0.85920000 -76.36013905
   0.95920000 -76.38639643
   1.05920000 -76.37190914
   1.15920000 -76.33781799
   1.25920000 -76.29535142
   1.35920000 -76.25040914
   1.45920000 -76.20595666
   1.55920000 -76.16332448
   1.65920000 -76.12309907
   1.75920000 -76.08540082
   1.85920000 -76.05030204
   1.95920000 -76.01774797
   2.05920000 -75.98766038
   2.15920000 -75.95990223
   2.25920000 -75.93436536
   2.35920000 -75.91086985
   2.45920000 -75.88923758
   2.55920000 -75.86933905
   2.65920000 -75.85102899
   2.75920000 -75.83417011
   2.85920000 -75.81866489
   2.95920000 -75.80443236
   3.05920000 -75.79129102
   3.15920000 -75.77928879
   3.25920000 -75.76830760
   3.35920000 -75.75828794
   3.45920000 -75.74915943
   3.55920000 -75.74085238
   3.65920000 -75.73330336
   3.75920000 -75.72644273
   3.85920000 -75.72020676
   3.95920000 -75.71453360
   4.05920000 -75.70936588
   4.15920000 -75.70464672
   4.25920000 -75.70032505
   4.35920000 -75.69636002
   4.45920000 -75.69271352
   4.55920000 -75.68934713
   4.65920000 -75.68622588
   4.75920000 -75.68331993
   4.85920000 -75.68060444
   4.95920000 -75.67805770


Timings for individual modules:

Sum of individual times         ...       84.213 sec (=   1.404 min)
GTO integral calculation        ...       11.012 sec (=   0.184 min)  13.1 %
SCF iterations                  ...       73.201 sec (=   1.220 min)  86.9 %
                             ****ORCA TERMINATED NORMALLY****
TOTAL RUN TIME: 0 days 0 hours 1 minutes 28 seconds 240 msec
