
                                 *****************
                                 * O   R   C   A *
                                 *****************

           --- An Ab Initio, DFT and Semiempirical electronic structure package ---

                  #######################################################
                  #                        -***-                        #
                  #          Department of theory and spectroscopy      #
                  #               Directorship: Frank Neese             #
                  #        Max Planck Institute fuer Kohlenforschung    #
                  #                Kaiser Wilhelm Platz 1               #
                  #                 D-45470 Muelheim/Ruhr               #
                  #                      Germany                        #
                  #                                                     #
                  #                  All rights reserved                #
                  #                        -***-                        #
                  #######################################################


                         Program Version 4.2.0 -  RELEASE  -


 With contributions from (in alphabetic order):
   Daniel Aravena         : Magnetic Suceptibility
   Michael Atanasov       : Ab Initio Ligand Field Theory (pilot matlab implementation)
   Alexander A. Auer      : GIAO ZORA, VPT2
   Ute Becker             : Parallelization
   Giovanni Bistoni       : ED, misc. LED, open-shell LED, HFLED
   Martin Brehm           : Molecular dynamics
   Dmytro Bykov           : SCF Hessian
   Vijay G. Chilkuri      : MRCI spin determinant printing, contributions to CSF-ICE
   Dipayan Datta          : RHF DLPNO-CCSD density
   Achintya Kumar Dutta   : EOM-CC, STEOM-CC
   Dmitry Ganyushin       : Spin-Orbit,Spin-Spin,Magnetic field MRCI
   Miquel Garcia          : C-PCM Hessian, Gaussian charge scheme
   Yang Guo               : DLPNO-NEVPT2, CIM, IAO-localization
   Andreas Hansen         : Spin unrestricted coupled pair/coupled cluster methods
   Benjamin Helmich-Paris : CASSCF linear response (MC-RPA)
   Lee Huntington         : MR-EOM, pCC
   Robert Izsak           : Overlap fitted RIJCOSX, COSX-SCS-MP3, EOM
   Christian Kollmar      : KDIIS, OOCD, Brueckner-CCSD(T), CCSD density
   Simone Kossmann        : Meta GGA functionals, TD-DFT gradient, OOMP2, MP2 Hessian
   Martin Krupicka        : AUTO-CI
   Lucas Lang             : DCDCAS
   Dagmar Lenk            : GEPOL surface, SMD
   Dimitrios Liakos       : Extrapolation schemes; Compound Job, initial MDCI parallelization
   Dimitrios Manganas     : Further ROCIS development; embedding schemes
   Dimitrios Pantazis     : SARC Basis sets
   Taras Petrenko         : DFT Hessian,TD-DFT gradient, ASA, ECA, R-Raman, ABS, FL, XAS/XES, NRVS
   Peter Pinski           : DLPNO-MP2, DLPNO-MP2 Gradient
   Christoph Reimann      : Effective Core Potentials
   Marius Retegan         : Local ZFS, SOC
   Christoph Riplinger    : Optimizer, TS searches, QM/MM, DLPNO-CCSD(T), (RO)-DLPNO pert. Triples
   Tobias Risthaus        : Range-separated hybrids, TD-DFT gradient, RPA, STAB
   Michael Roemelt        : Original ROCIS implementation
   Masaaki Saitow         : Open-shell DLPNO-CCSD energy and density
   Barbara Sandhoefer     : DKH picture change effects
   Avijit Sen             : IP-ROCIS
   Kantharuban Sivalingam : CASSCF convergence, NEVPT2, FIC-MRCI
   Bernardo de Souza      : ESD, SOC TD-DFT
   Georgi Stoychev        : AutoAux, RI-MP2 NMR
   Willem Van den Heuvel  : Paramagnetic NMR
   Boris Wezisla          : Elementary symmetry handling
   Frank Wennmohs         : Technical directorship


 We gratefully acknowledge several colleagues who have allowed us to
 interface, adapt or use parts of their codes:
   Stefan Grimme, W. Hujo, H. Kruse,             : VdW corrections, initial TS optimization,
                  C. Bannwarth                     DFT functionals, gCP, sTDA/sTD-DF
   Ed Valeev, F. Pavosevic, A. Kumar             : LibInt (2-el integral package), F12 methods
   Garnet Chan, S. Sharma, J. Yang, R. Olivares  : DMRG
   Ulf Ekstrom                                   : XCFun DFT Library
   Mihaly Kallay                                 : mrcc  (arbitrary order and MRCC methods)
   Andreas Klamt, Michael Diedenhofen            : otool_cosmo (COSMO solvation model)
   Jiri Pittner, Ondrej Demel                    : Mk-CCSD
   Frank Weinhold                                : gennbo (NPA and NBO analysis)
   Christopher J. Cramer and Donald G. Truhlar   : smd solvation model
   Lars Goerigk                                  : TD-DFT with DH, B97 family of functionals
   V. Asgeirsson, H. Jonsson                     : NEB implementation
   FAccTs GmbH                                   : IRC, NEB, NEB-TS, Multilevel, MM, QM/MM, CI optimization
   S Lehtola, MJT Oliveira, MAL Marques          : LibXC Library


 Your calculation uses the libint2 library for the computation of 2-el integrals
 For citations please refer to: http://libint.valeyev.net

 Your ORCA version has been built with support for libXC version: 4.2.3
 For citations please refer to: https://tddft.org/programs/libxc/

 This ORCA versions uses:
   CBLAS   interface :  Fast vector & matrix operations
   LAPACKE interface :  Fast linear algebra routines
   SCALAPACK package :  Parallel linear algebra routines


XCFun DFT library Copyright 2009-2010 Ulf Ekstrom and contributors.
See http://admol.org/xcfun for more information. This is free soft-
ware; see the source code for copying conditions. There is ABSOLUTELY
NO WARRANTY; not even for MERCHANTABILITY or FITNESS FOR A PARTICULAR
PURPOSE. For details see the documentation. Scientific users of this 
library should cite U. Ekstrom, L. Visscher, R. Bast, A. J. Thorvald-
sen and K. Ruud; J.Chem.Theor.Comp. 2010, DOI: 10.1021/ct100117s
XCFun Version 0.99 
----- Orbital basis set information -----
Your calculation utilizes the basis: 6-31G(d)
   H-He, Li-Ne : W. J. Hehre, R. Ditchfield and J.A. Pople, J. Chem. Phys. 56, 2257 (1972).
                 Note: He and Ne are unpublished basis sets taken from the Gaussian program.
                 Note: Li and B from J. D. Dill and J. A. Pople, J. Chem. Phys. 62, 2921 (1975).
   Na - Ar     : M. M. Francl, W. J. Pietro, W. J. Hehre, J. S. Binkley, M. S. Gordon, 
                 D. J. DeFrees and J. A. Pople, J. Chem. Phys. 77, 3654 (1982).
   K - Zn      : V. A. Rassolov, J. A. Pople, M. A. Ratner, and T. L. Windus, J. Chem. Phys. 109, 1223 (1998).

================================================================================
                                        WARNINGS
                       Please study these warnings very carefully!
================================================================================


INFO   : the flag for use of LIBINT has been found!

================================================================================
                                       INPUT FILE
================================================================================
NAME = HCCH.inp
|  1> ! wB97X 6-31G(d) KDIIS NOSOSCF VerySlowConv Grid4
|  2> %paras
|  3> R= 0.6937,5.1937,46
|  4> end
|  5> * xyz 0 1
|  6>    C 0.0 0.0 0.0
|  7>    C {R} 0.0 0.0
|  8>    H -1.0498 0.0 0.0
|  9>    H {R+1.0498} 0.0 0.0
| 10> *
| 11> 
| 12>                          ****END OF INPUT****
================================================================================

                       ******************************
                       * Parameter Scan Calculation *
                       ******************************

Trajectory settings:
    -> SCF surface will be mapped

There are 1 parameter(s) to be scanned
             R: range=   0.69370000 ..   5.19370000  steps=   46
There will be   46 energy evaluations


         *************************************************************
                                TRAJECTORY STEP   1
                  R  :   0.69370000
         *************************************************************
---------------------------------
CARTESIAN COORDINATES (ANGSTROEM)
---------------------------------
  C      0.000000    0.000000    0.000000
  C      0.693700    0.000000    0.000000
  H     -1.049800    0.000000    0.000000
  H      1.743500    0.000000    0.000000

----------------------------
CARTESIAN COORDINATES (A.U.)
----------------------------
  NO LB      ZA    FRAG     MASS         X           Y           Z
   0 C     6.0000    0    12.011    0.000000    0.000000    0.000000
   1 C     6.0000    0    12.011    1.310903    0.000000    0.000000
   2 H     1.0000    0     1.008   -1.983834    0.000000    0.000000
   3 H     1.0000    0     1.008    3.294738    0.000000    0.000000

--------------------------------
INTERNAL COORDINATES (ANGSTROEM)
--------------------------------
 C      0   0   0     0.000000000000     0.00000000     0.00000000
 C      1   0   0     0.693700000000     0.00000000     0.00000000
 H      1   2   0     1.049800000000   179.99999915     0.00000000
 H      2   1   3     1.049800000000   179.99999915     0.00000000

---------------------------
INTERNAL COORDINATES (A.U.)
---------------------------
 C      0   0   0     0.000000000000     0.00000000     0.00000000
 C      1   0   0     1.310903019101     0.00000000     0.00000000
 H      1   2   0     1.983834495391   179.99999915     0.00000000
 H      2   1   3     1.983834495391   179.99999915     0.00000000

---------------------
BASIS SET INFORMATION
---------------------
There are 2 groups of distinct atoms

 Group   1 Type C   : 10s4p1d contracted to 3s2p1d pattern {631/31/1}
 Group   2 Type H   : 4s contracted to 2s pattern {31}

Atom   0C    basis set group =>   1
Atom   1C    basis set group =>   1
Atom   2H    basis set group =>   2
Atom   3H    basis set group =>   2
------------------------------------------------------------------------------
                           ORCA GTO INTEGRAL CALCULATION
------------------------------------------------------------------------------

                         BASIS SET STATISTICS AND STARTUP INFO

 # of primitive gaussian shells          ...   38
 # of primitive gaussian functions       ...   62
 # of contracted shells                  ...   16
 # of contracted basis functions         ...   32
 Highest angular momentum                ...    2
 Maximum contraction depth               ...    6
 Integral package used                   ... LIBINT
 Integral threshhold            Thresh   ...  1.000e-10
 Primitive cut-off              TCut     ...  1.000e-11


------------------------------ INTEGRAL EVALUATION ----------------------------


 * One electron integrals 
 Pre-screening matrix                    ... done
 Shell pair data                         ... done (   0.000 sec)

-------------------------------------------------------------------------------
                                 ORCA SCF
-------------------------------------------------------------------------------

------------
SCF SETTINGS
------------
Hamiltonian:
 Density Functional     Method          .... DFT(GTOs)
 Exchange Functional    Exchange        .... WB97X
 Correlation Functional Correlation     .... WB97X
 Gradients option       PostSCFGGA      .... off
 Hybrid DFT is turned on
   Fraction HF Exchange ScalHFX         ....  0.157706
   Scaling of DF-GGA-X  ScalDFX         ....  0.000000
   Scaling of DF-GGA-C  ScalDFC         ....  1.000000
   Scaling of DF-LDA-C  ScalLDAC        ....  1.000000
   Perturbative correction              ....  0.000000
   Density functional embedding theory  .... OFF
 Long-range corrected/Screened/Range-Separated Hybrid DFT is turned on
   Amount of maximum screened exact exchange              ....  0.842294
   Range separation parameter mu (erf(mu*r12)/r12)        ....  0.300000


General Settings:
 Integral files         IntName         .... HCCH
 Hartree-Fock type      HFTyp           .... RHF
 Total Charge           Charge          ....    0
 Multiplicity           Mult            ....    1
 Number of Electrons    NEL             ....   14
 Basis Dimension        Dim             ....   32
 Nuclear Repulsion      ENuc            ....     37.3424943763 Eh

Convergence Acceleration:
 DIIS                   CNVDIIS         .... on
   Start iteration      DIISMaxIt       ....     0
   Startup error        DIISStart       ....  0.200000
   # of expansion vecs  DIISMaxEq       ....     5
   Bias factor          DIISBfac        ....   1.050
   Max. coefficient     DIISMaxC        ....  10.000
 Newton-Raphson         CNVNR           .... off
 SOSCF                  CNVSOSCF        .... off
 Level Shifting         CNVShift        .... off
 Zerner damping         CNVZerner       .... off
 Static damping         CNVDamp         .... off
 Fernandez-Rico         CNVRico         .... off

SCF Procedure:
 Maximum # iterations   MaxIter         ....   125
 SCF integral mode      SCFMode         .... Direct
   Integral package                     .... LIBINT
 Reset frequency        DirectResetFreq ....    20
 Integral Threshold     Thresh          ....  1.000e-10 Eh
 Primitive CutOff       TCut            ....  1.000e-11 Eh

Convergence Tolerance:
 Convergence Check Mode ConvCheckMode   .... All-Criteria
 Convergence forced     ConvForced      .... 0
 Energy Change          TolE            ....  1.000e-06 Eh
 Max Density Change     TolMaxP         ....  1.000e-05
 RMS Density Change     TolRMSP         ....  1.000e-06
 DIIS Error             TolErr          ....  1.000e-06


Diagonalization of the overlap matrix:
Smallest eigenvalue                        ... 2.386e-05
Time for diagonalization                   ...    0.001 sec
Threshold for overlap eigenvalues          ... 1.000e-08
Number of eigenvalues below threshold      ... 0
Time for construction of square roots      ...    0.000 sec
Total time needed                          ...    0.001 sec

-------------------
DFT GRID GENERATION
-------------------

General Integration Accuracy     IntAcc      ...  4.670
Radial Grid Type                 RadialGrid  ... Gauss-Chebyshev
Angular Grid (max. acc.)         AngularGrid ... Lebedev-302
Angular grid pruning method      GridPruning ... 3 (G Style)
Weight generation scheme         WeightScheme... Becke
Basis function cutoff            BFCut       ...    1.0000e-10
Integration weight cutoff        WCut        ...    1.0000e-14
Grids for H and He will be reduced by one unit

# of grid points (after initial pruning)     ...  19212 (   0.0 sec)
# of grid points (after weights+screening)   ...  18778 (   0.0 sec)
nearest neighbour list constructed           ...    0.0 sec
Grid point re-assignment to atoms done       ...    0.0 sec
Grid point division into batches done        ...    0.1 sec
Reduced shell lists constructed in    0.1 sec

Total number of grid points                  ...    18778
Total number of batches                      ...      294
Average number of points per batch           ...       63
Average number of grid points per atom       ...     4694
Average number of shells per batch           ...    12.98 (81.10%)
Average number of basis functions per batch  ...    26.39 (82.46%)
Average number of large shells per batch     ...    12.05 (92.87%)
Average number of large basis fcns per batch ...    24.93 (94.49%)
Maximum spatial batch extension              ...  18.35, 24.43, 25.05 au
Average spatial batch extension              ...   2.84,  4.37,  4.44 au

Time for grid setup =    0.107 sec

------------------------------
INITIAL GUESS: MODEL POTENTIAL
------------------------------
Loading Hartree-Fock densities                     ... done
Calculating cut-offs                               ... done
Setting up the integral package                    ... done
Initializing the effective Hamiltonian             ... done
Starting the Coulomb interaction                   ... done (   0.0 sec)
Reading the grid                                   ... done
Mapping shells                                     ... done
Starting the XC term evaluation                    ... done (   0.0 sec)
  promolecular density results
     # of electrons  =     13.999029126
     EX              =    -11.017779810
     EC              =     -0.437544445
     EX+EC           =    -11.455324256
Transforming the Hamiltonian                       ... done (   0.0 sec)
Diagonalizing the Hamiltonian                      ... done (   0.0 sec)
Back transforming the eigenvectors                 ... done (   0.0 sec)
Now organizing SCF variables                       ... done
                      ------------------
                      INITIAL GUESS DONE (   0.2 sec)
                      ------------------
--------------
SCF ITERATIONS
--------------
ITER       Energy         Delta-E        Max-DP      RMS-DP      [F,P]   Gradient Norm
               ***  Starting incremental Fock matrix formation  ***
                             ****Resetting KDIIS****
                             ****Turning on KDIIS(Cayley)****
  0    -75.2498927546   0.000000000000 0.09278261  0.00948204  0.2414634   0.238106519
  1    -75.3674495637  -0.117556809060 0.12027668  0.01183949  0.2147679   0.200779968
  2    -75.4872057705  -0.119756206798 0.15963504  0.01551564  0.1602637   0.156422528
  3    -75.6073795375  -0.120173766994 0.13680998  0.01362926  0.0771949   0.085319435
  4    -75.6457153402  -0.038335802733 0.10758589  0.00984235  0.0489088   0.023734235
  5    -75.6520303366  -0.006314996420 0.26802243  0.03172845  0.0310877   0.014961681
  6    -75.6544257706  -0.002395433982 0.05573350  0.00609274  0.0239317   0.009734828
  7    -75.6563136243  -0.001887853738 0.00404848  0.00047044  0.0027471   0.001837458
  8    -75.6563421060  -0.000028481704 0.00065966  0.00008002  0.0001380   0.000132611
                          ***Energy convergence achieved***
  9    -75.6563422685  -0.000000162436 0.00010600  0.00001248  0.0000150   0.000016448

            ***Energy convergence in two consecutive cycles with***
                    ***'reasonable' density convergence***
                       *** signaling convergence ***

                    *** KDIIS BlockDiag ( 2.980 sec) ***

               *****************************************************
               *                     SUCCESS                       *
               *           SCF CONVERGED AFTER  10 CYCLES          *
               *****************************************************

Setting up the final grid:

General Integration Accuracy     IntAcc      ...  5.010
Radial Grid Type                 RadialGrid  ... Gauss-Chebyshev
Angular Grid (max. acc.)         AngularGrid ... Lebedev-434
Angular grid pruning method      GridPruning ... 3 (G Style)
Weight generation scheme         WeightScheme... Becke
Basis function cutoff            BFCut       ...    1.0000e-10
Integration weight cutoff        WCut        ...    1.0000e-14
Grids for H and He will be reduced by one unit

# of grid points (after initial pruning)     ...  34780 (   0.0 sec)
# of grid points (after weights+screening)   ...  33998 (   0.0 sec)
nearest neighbour list constructed           ...    0.0 sec
Grid point re-assignment to atoms done       ...    0.0 sec
Grid point division into batches done        ...    0.2 sec
Reduced shell lists constructed in    0.3 sec

Total number of grid points                  ...    33998
Total number of batches                      ...      534
Average number of points per batch           ...       63
Average number of grid points per atom       ...     8500
Average number of shells per batch           ...    12.72 (79.52%)
Average number of basis functions per batch  ...    25.92 (81.01%)
Average number of large shells per batch     ...    11.73 (92.16%)
Average number of large basis fcns per batch ...    24.27 (93.63%)
Maximum spatial batch extension              ...  15.90, 27.58, 27.58 au
Average spatial batch extension              ...   2.52,  3.36,  3.28 au

Final grid set up in    0.3 sec
Final integration                            ... done (   0.2 sec)
Change in XC energy                          ...    -0.000014876
Integrated number of electrons               ...    13.999997790
Previous integrated no of electrons          ...    14.000008403

----------------
TOTAL SCF ENERGY
----------------

Total Energy       :          -75.65635715 Eh           -2058.71414 eV

Components:
Nuclear Repulsion  :           37.34249438 Eh            1016.14093 eV
Electronic Energy  :         -112.99885152 Eh           -3074.85507 eV
One Electron Energy:         -172.97745335 Eh           -4706.95580 eV
Two Electron Energy:           59.97860182 Eh            1632.10073 eV

Virial components:
Potential Energy   :         -157.81982840 Eh           -4294.49586 eV
Kinetic Energy     :           82.16347125 Eh            2235.78172 eV
Virial Ratio       :            1.92080283


DFT components:
N(Alpha)           :        6.999998894774 electrons
N(Beta)            :        6.999998894774 electrons
N(Total)           :       13.999997789548 electrons
E(XC)              :       -8.545927374513 Eh       
DFET-embed. en.    :        0.000000000000 Eh       

---------------
SCF CONVERGENCE
---------------

  Last Energy change         ...   -2.9705e-09  Tolerance :   1.0000e-06
  Last MAX-Density change    ...    2.0539e-05  Tolerance :   1.0000e-05
  Last RMS-Density change    ...    1.6793e-06  Tolerance :   1.0000e-06
  Last DIIS Error            ...    4.8683e-06  Tolerance :   1.0000e-06

             **** THE GBW FILE WAS UPDATED (HCCH.gbw) ****
             **** DENSITY FILE WAS UPDATED (HCCH.scfp) ****
             **** ENERGY FILE WAS UPDATED (HCCH.en.tmp) ****
             **** THE GBW FILE WAS UPDATED (HCCH.gbw) ****
             **** DENSITY FILE WAS UPDATED (HCCH.scfp) ****
----------------
ORBITAL ENERGIES
----------------

  NO   OCC          E(Eh)            E(eV) 
   0   2.0000     -10.409614      -283.2600 
   1   2.0000     -10.213125      -277.9133 
   2   2.0000      -0.831604       -22.6291 
   3   2.0000      -0.599224       -16.3057 
   4   2.0000      -0.550120       -14.9695 
   5   2.0000      -0.550120       -14.9695 
   6   2.0000      -0.528764       -14.3884 
   7   0.0000       0.270273         7.3545 
   8   0.0000       0.276374         7.5205 
   9   0.0000       0.328272         8.9327 
  10   0.0000       0.328272         8.9327 
  11   0.0000       0.512282        13.9399 
  12   0.0000       0.512282        13.9399 
  13   0.0000       0.609374        16.5819 
  14   0.0000       0.706691        19.2300 
  15   0.0000       0.869873        23.6704 
  16   0.0000       0.919271        25.0146 
  17   0.0000       1.019987        27.7553 
  18   0.0000       1.019987        27.7553 
  19   0.0000       1.390069        37.8257 
  20   0.0000       1.561779        42.4982 
  21   0.0000       1.561803        42.4988 
  22   0.0000       1.717635        46.7392 
  23   0.0000       2.157401        58.7059 
  24   0.0000       2.157401        58.7059 
  25   0.0000       2.429583        66.1123 
  26   0.0000       2.429594        66.1126 
  27   0.0000       2.581091        70.2351 
  28   0.0000       2.868747        78.0626 
  29   0.0000       3.664683        99.7211 
  30   0.0000       3.664683        99.7211 
  31   0.0000       8.718002       237.2289 

                    ********************************
                    * MULLIKEN POPULATION ANALYSIS *
                    ********************************

-----------------------
MULLIKEN ATOMIC CHARGES
-----------------------
   0 C :   -0.110159
   1 C :   -0.110163
   2 H :    0.110161
   3 H :    0.110161
Sum of atomic charges:    0.0000000

--------------------------------
MULLIKEN REDUCED ORBITAL CHARGES
--------------------------------
  0 C s       :     2.972663  s :     2.972663
      pz      :     0.979874  p :     3.089868
      px      :     1.130119
      py      :     0.979874
      dz2     :     0.001844  d :     0.047628
      dxz     :     0.020126
      dyz     :     0.000000
      dx2y2   :     0.005532
      dxy     :     0.020126
  1 C s       :     2.972666  s :     2.972666
      pz      :     0.979874  p :     3.089869
      px      :     1.130120
      py      :     0.979874
      dz2     :     0.001844  d :     0.047628
      dxz     :     0.020126
      dyz     :     0.000000
      dx2y2   :     0.005532
      dxy     :     0.020126
  2 H s       :     0.889839  s :     0.889839
  3 H s       :     0.889839  s :     0.889839


                     *******************************
                     * LOEWDIN POPULATION ANALYSIS *
                     *******************************

----------------------
LOEWDIN ATOMIC CHARGES
----------------------
   0 C :   -0.135043
   1 C :   -0.135043
   2 H :    0.135043
   3 H :    0.135043

-------------------------------
LOEWDIN REDUCED ORBITAL CHARGES
-------------------------------
  0 C s       :     2.795072  s :     2.795072
      pz      :     0.951994  p :     3.126716
      px      :     1.222729
      py      :     0.951994
      dz2     :     0.029310  d :     0.213255
      dxz     :     0.048006
      dyz     :     0.000000
      dx2y2   :     0.087931
      dxy     :     0.048006
  1 C s       :     2.795072  s :     2.795072
      pz      :     0.951994  p :     3.126716
      px      :     1.222729
      py      :     0.951994
      dz2     :     0.029310  d :     0.213255
      dxz     :     0.048006
      dyz     :     0.000000
      dx2y2   :     0.087931
      dxy     :     0.048006
  2 H s       :     0.864957  s :     0.864957
  3 H s       :     0.864957  s :     0.864957


                      *****************************
                      * MAYER POPULATION ANALYSIS *
                      *****************************

  NA   - Mulliken gross atomic population
  ZA   - Total nuclear charge
  QA   - Mulliken gross atomic charge
  VA   - Mayer's total valence
  BVA  - Mayer's bonded valence
  FA   - Mayer's free valence

  ATOM       NA         ZA         QA         VA         BVA        FA
  0 C      6.1102     6.0000    -0.1102     4.3935     4.3935     0.0000
  1 C      6.1102     6.0000    -0.1102     4.3935     4.3935     0.0000
  2 H      0.8898     1.0000     0.1102     0.9042     0.9042    -0.0000
  3 H      0.8898     1.0000     0.1102     0.9042     0.9042     0.0000

  Mayer bond orders larger than 0.100000
B(  0-C ,  1-C ) :   3.4908 B(  0-C ,  2-H ) :   0.8417 B(  1-C ,  3-H ) :   0.8417 


-------
TIMINGS
-------

Total SCF time: 0 days 0 hours 0 min 3 sec 

Total time                  ....       3.487 sec
Sum of individual times     ....       3.319 sec  ( 95.2%)

Fock matrix formation       ....       2.777 sec  ( 79.6%)
  XC integration            ....       1.504 sec  ( 54.2% of F)
    Basis function eval.    ....       0.337 sec  ( 22.4% of XC)
    Density eval.           ....       0.107 sec  (  7.1% of XC)
    XC-Functional eval.     ....       0.897 sec  ( 59.6% of XC)
    XC-Potential eval.      ....       0.103 sec  (  6.8% of XC)
Diagonalization             ....       0.003 sec  (  0.1%)
Density matrix formation    ....       0.000 sec  (  0.0%)
Population analysis         ....       0.001 sec  (  0.0%)
Initial guess               ....       0.135 sec  (  3.9%)
Orbital Transformation      ....       0.000 sec  (  0.0%)
Orbital Orthonormalization  ....       0.000 sec  (  0.0%)
DIIS solution               ....       0.000 sec  (  0.0%)
Grid generation             ....       0.403 sec  ( 11.5%)

-------------------------   --------------------
FINAL SINGLE POINT ENERGY       -75.656357147538
-------------------------   --------------------

Storing actual gbw-file in HCCH.001.gbw ... done

                            ***************************************
                            *     ORCA property calculations      *
                            ***************************************

                                    ---------------------
                                    Active property flags
                                    ---------------------
   (+) Dipole Moment


------------------------------------------------------------------------------
                       ORCA ELECTRIC PROPERTIES CALCULATION
------------------------------------------------------------------------------

Dipole Moment Calculation                       ... on
Quadrupole Moment Calculation                   ... off
Polarizability Calculation                      ... off
GBWName                                         ... HCCH.gbw
Electron density file                           ... HCCH.scfp
The origin for moment calculation is the CENTER OF MASS  = ( 0.655452,  0.000000  0.000000)

-------------
DIPOLE MOMENT
-------------
                                X             Y             Z
Electronic contribution:      0.00000       0.00000       0.00000
Nuclear contribution   :     -0.00000       0.00000       0.00000
                        -----------------------------------------
Total Dipole Moment    :      0.00000       0.00000       0.00000
                        -----------------------------------------
Magnitude (a.u.)       :      0.00000
Magnitude (Debye)      :      0.00000



--------------------
Rotational spectrum 
--------------------
 
Rotational constants in cm-1:     0.000000     2.470912     2.470912 
Rotational constants in MHz :     0.000000 74076.089026 74076.089026 

 Dipole components along the rotational axes: 
x,y,z [a.u.] :     0.000000     0.000000     0.000000 
x,y,z [Debye]:     0.000000     0.000000     0.000000 

 

         *************************************************************
                                TRAJECTORY STEP   2
                  R  :   0.79370000
         *************************************************************
---------------------------------
CARTESIAN COORDINATES (ANGSTROEM)
---------------------------------
  C      0.000000    0.000000    0.000000
  C      0.793700    0.000000    0.000000
  H     -1.049800    0.000000    0.000000
  H      1.843500    0.000000    0.000000

----------------------------
CARTESIAN COORDINATES (A.U.)
----------------------------
  NO LB      ZA    FRAG     MASS         X           Y           Z
   0 C     6.0000    0    12.011    0.000000    0.000000    0.000000
   1 C     6.0000    0    12.011    1.499876    0.000000    0.000000
   2 H     1.0000    0     1.008   -1.983834    0.000000    0.000000
   3 H     1.0000    0     1.008    3.483710    0.000000    0.000000

--------------------------------
INTERNAL COORDINATES (ANGSTROEM)
--------------------------------
 C      0   0   0     0.000000000000     0.00000000     0.00000000
 C      1   0   0     0.793700000000     0.00000000     0.00000000
 H      1   2   0     1.049800000000   180.00000000     0.00000000
 H      2   1   3     1.049800000000   179.99999879     0.00000000

---------------------------
INTERNAL COORDINATES (A.U.)
---------------------------
 C      0   0   0     0.000000000000     0.00000000     0.00000000
 C      1   0   0     1.499875632493     0.00000000     0.00000000
 H      1   2   0     1.983834495391   180.00000000     0.00000000
 H      2   1   3     1.983834495391   179.99999879     0.00000000


Diagonalization of the overlap matrix:
Smallest eigenvalue                        ... 6.030e-05
Time for diagonalization                   ...    0.001 sec
Threshold for overlap eigenvalues          ... 1.000e-08
Number of eigenvalues below threshold      ... 0
Time for construction of square roots      ...    0.000 sec
Total time needed                          ...    0.001 sec

-------------------
DFT GRID GENERATION
-------------------

General Integration Accuracy     IntAcc      ...  4.670
Radial Grid Type                 RadialGrid  ... Gauss-Chebyshev
Angular Grid (max. acc.)         AngularGrid ... Lebedev-302
Angular grid pruning method      GridPruning ... 3 (G Style)
Weight generation scheme         WeightScheme... Becke
Basis function cutoff            BFCut       ...    1.0000e-10
Integration weight cutoff        WCut        ...    1.0000e-14
Grids for H and He will be reduced by one unit

# of grid points (after initial pruning)     ...  19212 (   0.0 sec)
# of grid points (after weights+screening)   ...  18796 (   0.0 sec)
nearest neighbour list constructed           ...    0.0 sec
Grid point re-assignment to atoms done       ...    0.0 sec
Grid point division into batches done        ...    0.1 sec
Reduced shell lists constructed in    0.1 sec

Total number of grid points                  ...    18796
Total number of batches                      ...      296
Average number of points per batch           ...       63
Average number of grid points per atom       ...     4699
Average number of shells per batch           ...    12.97 (81.06%)
Average number of basis functions per batch  ...    26.36 (82.37%)
Average number of large shells per batch     ...    12.01 (92.60%)
Average number of large basis fcns per batch ...    24.77 (93.98%)
Maximum spatial batch extension              ...  18.98, 20.53, 25.05 au
Average spatial batch extension              ...   2.86,  4.36,  4.36 au

Time for grid setup =    0.106 sec

--------------
SCF ITERATIONS
--------------
ITER       Energy         Delta-E        Max-DP      RMS-DP      [F,P]   Gradient Norm
               ***  Starting incremental Fock matrix formation  ***
                             ****Resetting KDIIS****
                             ****Turning on KDIIS(Cayley)****
  0    -76.4470888680   0.000000000000 0.01703304  0.00165514  0.0675417   0.064831239
  1    -76.4509133716  -0.003824503578 0.02950702  0.00286600  0.0605545   0.058149802
  2    -76.4561633798  -0.005250008183 0.03623031  0.00402615  0.0483454   0.046997763
  3    -76.4630085763  -0.006845196545 0.04220051  0.00548082  0.0290023   0.028226129
  4    -76.4668593721  -0.003850795751 0.00463370  0.00059886  0.0004457   0.000282249
                          ***Energy convergence achieved***
  5    -76.4668602755  -0.000000903424 0.00104668  0.00013409  0.0000759   0.000072852
  6    -76.4668603294  -0.000000053914 0.00048486  0.00006245  0.0000262   0.000017496
Warning: badly conditioned DIIS matrix, 1 vectors out of 5 destroyed

            ***Energy convergence in two consecutive cycles with***
                    ***'reasonable' density convergence***
                       *** signaling convergence ***

                    *** KDIIS BlockDiag ( 2.185 sec) ***

               *****************************************************
               *                     SUCCESS                       *
               *           SCF CONVERGED AFTER   7 CYCLES          *
               *****************************************************

Setting up the final grid:

General Integration Accuracy     IntAcc      ...  5.010
Radial Grid Type                 RadialGrid  ... Gauss-Chebyshev
Angular Grid (max. acc.)         AngularGrid ... Lebedev-434
Angular grid pruning method      GridPruning ... 3 (G Style)
Weight generation scheme         WeightScheme... Becke
Basis function cutoff            BFCut       ...    1.0000e-10
Integration weight cutoff        WCut        ...    1.0000e-14
Grids for H and He will be reduced by one unit

# of grid points (after initial pruning)     ...  34780 (   0.0 sec)
# of grid points (after weights+screening)   ...  34030 (   0.0 sec)
nearest neighbour list constructed           ...    0.0 sec
Grid point re-assignment to atoms done       ...    0.0 sec
Grid point division into batches done        ...    0.2 sec
Reduced shell lists constructed in    0.3 sec

Total number of grid points                  ...    34030
Total number of batches                      ...      532
Average number of points per batch           ...       63
Average number of grid points per atom       ...     8508
Average number of shells per batch           ...    12.66 (79.13%)
Average number of basis functions per batch  ...    25.83 (80.73%)
Average number of large shells per batch     ...    11.65 (92.01%)
Average number of large basis fcns per batch ...    24.12 (93.37%)
Maximum spatial batch extension              ...  15.51, 27.58, 27.58 au
Average spatial batch extension              ...   2.51,  3.35,  3.24 au

Final grid set up in    0.3 sec
Final integration                            ... done (   0.2 sec)
Change in XC energy                          ...    -0.000066994
Integrated number of electrons               ...    13.999996615
Previous integrated no of electrons          ...    14.000009154
Total Energy       :          -76.46692733 Eh           -2080.77088 eV
  Last Energy change         ...   -4.2438e-09  Tolerance :   1.0000e-06
  Last MAX-Density change    ...    1.4477e-05  Tolerance :   1.0000e-05
             **** THE GBW FILE WAS UPDATED (HCCH.gbw) ****
             **** DENSITY FILE WAS UPDATED (HCCH.scfp) ****
             **** ENERGY FILE WAS UPDATED (HCCH.en.tmp) ****
             **** THE GBW FILE WAS UPDATED (HCCH.gbw) ****
             **** DENSITY FILE WAS UPDATED (HCCH.scfp) ****
Total SCF time: 0 days 0 hours 0 min 2 sec 

-------------------------   --------------------
FINAL SINGLE POINT ENERGY       -76.466927328135
-------------------------   --------------------

Storing actual gbw-file in HCCH.002.gbw ... done

                            ***************************************
                            *     ORCA property calculations      *
                            ***************************************

                                    ---------------------
                                    Active property flags
                                    ---------------------
   (+) Dipole Moment


------------------------------------------------------------------------------
                       ORCA ELECTRIC PROPERTIES CALCULATION
------------------------------------------------------------------------------

Dipole Moment Calculation                       ... on
Quadrupole Moment Calculation                   ... off
Polarizability Calculation                      ... off
GBWName                                         ... HCCH.gbw
Electron density file                           ... HCCH.scfp
The origin for moment calculation is the CENTER OF MASS  = ( 0.749938,  0.000000  0.000000)

-------------
DIPOLE MOMENT
-------------
                                X             Y             Z
Electronic contribution:      0.00000      -0.00000      -0.00000
Nuclear contribution   :     -0.00000       0.00000       0.00000
                        -----------------------------------------
Total Dipole Moment    :      0.00000      -0.00000      -0.00000
                        -----------------------------------------
Magnitude (a.u.)       :      0.00000
Magnitude (Debye)      :      0.00000



--------------------
Rotational spectrum 
--------------------
 
Rotational constants in cm-1:     0.000000     2.106600     2.106600 
Rotational constants in MHz :     0.000000 63154.277294 63154.277294 

 Dipole components along the rotational axes: 
x,y,z [a.u.] :     0.000000    -0.000000    -0.000000 
x,y,z [Debye]:     0.000000    -0.000000    -0.000000 

 

         *************************************************************
                                TRAJECTORY STEP   3
                  R  :   0.89370000
         *************************************************************
---------------------------------
CARTESIAN COORDINATES (ANGSTROEM)
---------------------------------
  C      0.000000    0.000000    0.000000
  C      0.893700    0.000000    0.000000
  H     -1.049800    0.000000    0.000000
  H      1.943500    0.000000    0.000000

----------------------------
CARTESIAN COORDINATES (A.U.)
----------------------------
  NO LB      ZA    FRAG     MASS         X           Y           Z
   0 C     6.0000    0    12.011    0.000000    0.000000    0.000000
   1 C     6.0000    0    12.011    1.688848    0.000000    0.000000
   2 H     1.0000    0     1.008   -1.983834    0.000000    0.000000
   3 H     1.0000    0     1.008    3.672683    0.000000    0.000000

--------------------------------
INTERNAL COORDINATES (ANGSTROEM)
--------------------------------
 C      0   0   0     0.000000000000     0.00000000     0.00000000
 C      1   0   0     0.893700000000     0.00000000     0.00000000
 H      1   2   0     1.049800000000   180.00000000     0.00000000
 H      2   1   3     1.049800000000   180.00000000     0.00000000

---------------------------
INTERNAL COORDINATES (A.U.)
---------------------------
 C      0   0   0     0.000000000000     0.00000000     0.00000000
 C      1   0   0     1.688848245885     0.00000000     0.00000000
 H      1   2   0     1.983834495391   180.00000000     0.00000000
 H      2   1   3     1.983834495391   180.00000000     0.00000000


Diagonalization of the overlap matrix:
Smallest eigenvalue                        ... 1.371e-04
Time for diagonalization                   ...    0.001 sec
Threshold for overlap eigenvalues          ... 1.000e-08
Number of eigenvalues below threshold      ... 0
Time for construction of square roots      ...    0.000 sec
Total time needed                          ...    0.001 sec

-------------------
DFT GRID GENERATION
-------------------

General Integration Accuracy     IntAcc      ...  4.670
Radial Grid Type                 RadialGrid  ... Gauss-Chebyshev
Angular Grid (max. acc.)         AngularGrid ... Lebedev-302
Angular grid pruning method      GridPruning ... 3 (G Style)
Weight generation scheme         WeightScheme... Becke
Basis function cutoff            BFCut       ...    1.0000e-10
Integration weight cutoff        WCut        ...    1.0000e-14
Grids for H and He will be reduced by one unit

# of grid points (after initial pruning)     ...  19212 (   0.0 sec)
# of grid points (after weights+screening)   ...  18820 (   0.0 sec)
nearest neighbour list constructed           ...    0.0 sec
Grid point re-assignment to atoms done       ...    0.0 sec
Grid point division into batches done        ...    0.1 sec
Reduced shell lists constructed in    0.1 sec

Total number of grid points                  ...    18820
Total number of batches                      ...      296
Average number of points per batch           ...       63
Average number of grid points per atom       ...     4705
Average number of shells per batch           ...    12.91 (80.66%)
Average number of basis functions per batch  ...    26.31 (82.21%)
Average number of large shells per batch     ...    11.94 (92.49%)
Average number of large basis fcns per batch ...    24.62 (93.57%)
Maximum spatial batch extension              ...  18.86, 25.05, 22.27 au
Average spatial batch extension              ...   2.90,  4.55,  4.53 au

Time for grid setup =    0.107 sec

--------------
SCF ITERATIONS
--------------
ITER       Energy         Delta-E        Max-DP      RMS-DP      [F,P]   Gradient Norm
               ***  Starting incremental Fock matrix formation  ***
                             ****Resetting KDIIS****
                             ****Turning on KDIIS(Cayley)****
  0    -76.9082765323   0.000000000000 0.00672917  0.00099932  0.0566106   0.048255359
  1    -76.9110006211  -0.002724088866 0.01371633  0.00167285  0.0508586   0.042813361
  2    -76.9142575135  -0.003256892397 0.02223695  0.00269245  0.0406449   0.034609482
  3    -76.9184117528  -0.004154239277 0.03431914  0.00387900  0.0243591   0.020776335
  4    -76.9207466667  -0.002334913864 0.00113243  0.00015417  0.0001692   0.000117675
                          ***Energy convergence achieved***
  5    -76.9207468240  -0.000000157329 0.00015679  0.00002272  0.0000192   0.000019327
Warning: badly conditioned DIIS matrix, 1 vectors out of 5 destroyed

            ***Energy convergence in two consecutive cycles with***
                    ***'reasonable' density convergence***
                       *** signaling convergence ***

                    *** KDIIS BlockDiag ( 1.903 sec) ***

               *****************************************************
               *                     SUCCESS                       *
               *           SCF CONVERGED AFTER   6 CYCLES          *
               *****************************************************

Setting up the final grid:

General Integration Accuracy     IntAcc      ...  5.010
Radial Grid Type                 RadialGrid  ... Gauss-Chebyshev
Angular Grid (max. acc.)         AngularGrid ... Lebedev-434
Angular grid pruning method      GridPruning ... 3 (G Style)
Weight generation scheme         WeightScheme... Becke
Basis function cutoff            BFCut       ...    1.0000e-10
Integration weight cutoff        WCut        ...    1.0000e-14
Grids for H and He will be reduced by one unit

# of grid points (after initial pruning)     ...  34780 (   0.0 sec)
# of grid points (after weights+screening)   ...  34040 (   0.0 sec)
nearest neighbour list constructed           ...    0.0 sec
Grid point re-assignment to atoms done       ...    0.0 sec
Grid point division into batches done        ...    0.2 sec
Reduced shell lists constructed in    0.3 sec

Total number of grid points                  ...    34040
Total number of batches                      ...      534
Average number of points per batch           ...       63
Average number of grid points per atom       ...     8510
Average number of shells per batch           ...    12.64 (78.97%)
Average number of basis functions per batch  ...    25.79 (80.61%)
Average number of large shells per batch     ...    11.60 (91.79%)
Average number of large basis fcns per batch ...    24.00 (93.05%)
Maximum spatial batch extension              ...  15.70, 27.58, 27.58 au
Average spatial batch extension              ...   2.53,  3.36,  3.27 au

Final grid set up in    0.3 sec
Final integration                            ... done (   0.2 sec)
Change in XC energy                          ...    -0.000117302
Integrated number of electrons               ...    13.999998638
Previous integrated no of electrons          ...    13.999995034
Total Energy       :          -76.92086413 Eh           -2093.12313 eV
  Last Energy change         ...   -3.8112e-09  Tolerance :   1.0000e-06
  Last MAX-Density change    ...    3.0146e-05  Tolerance :   1.0000e-05
             **** THE GBW FILE WAS UPDATED (HCCH.gbw) ****
             **** DENSITY FILE WAS UPDATED (HCCH.scfp) ****
             **** ENERGY FILE WAS UPDATED (HCCH.en.tmp) ****
             **** THE GBW FILE WAS UPDATED (HCCH.gbw) ****
             **** DENSITY FILE WAS UPDATED (HCCH.scfp) ****
Total SCF time: 0 days 0 hours 0 min 2 sec 

-------------------------   --------------------
FINAL SINGLE POINT ENERGY       -76.920864129858
-------------------------   --------------------

Storing actual gbw-file in HCCH.003.gbw ... done

                            ***************************************
                            *     ORCA property calculations      *
                            ***************************************

                                    ---------------------
                                    Active property flags
                                    ---------------------
   (+) Dipole Moment


------------------------------------------------------------------------------
                       ORCA ELECTRIC PROPERTIES CALCULATION
------------------------------------------------------------------------------

Dipole Moment Calculation                       ... on
Quadrupole Moment Calculation                   ... off
Polarizability Calculation                      ... off
GBWName                                         ... HCCH.gbw
Electron density file                           ... HCCH.scfp
The origin for moment calculation is the CENTER OF MASS  = ( 0.844424,  0.000000  0.000000)

-------------
DIPOLE MOMENT
-------------
                                X             Y             Z
Electronic contribution:     -0.00000      -0.00000       0.00000
Nuclear contribution   :      0.00000       0.00000       0.00000
                        -----------------------------------------
Total Dipole Moment    :     -0.00000      -0.00000       0.00000
                        -----------------------------------------
Magnitude (a.u.)       :      0.00000
Magnitude (Debye)      :      0.00000



--------------------
Rotational spectrum 
--------------------
 
Rotational constants in cm-1:     0.000000     1.810246     1.810246 
Rotational constants in MHz :     0.000000 54269.795168 54269.795168 

 Dipole components along the rotational axes: 
x,y,z [a.u.] :    -0.000000    -0.000000     0.000000 
x,y,z [Debye]:    -0.000000    -0.000000     0.000000 

 

         *************************************************************
                                TRAJECTORY STEP   4
                  R  :   0.99370000
         *************************************************************
---------------------------------
CARTESIAN COORDINATES (ANGSTROEM)
---------------------------------
  C      0.000000    0.000000    0.000000
  C      0.993700    0.000000    0.000000
  H     -1.049800    0.000000    0.000000
  H      2.043500    0.000000    0.000000

----------------------------
CARTESIAN COORDINATES (A.U.)
----------------------------
  NO LB      ZA    FRAG     MASS         X           Y           Z
   0 C     6.0000    0    12.011    0.000000    0.000000    0.000000
   1 C     6.0000    0    12.011    1.877821    0.000000    0.000000
   2 H     1.0000    0     1.008   -1.983834    0.000000    0.000000
   3 H     1.0000    0     1.008    3.861655    0.000000    0.000000

--------------------------------
INTERNAL COORDINATES (ANGSTROEM)
--------------------------------
 C      0   0   0     0.000000000000     0.00000000     0.00000000
 C      1   0   0     0.993700000000     0.00000000     0.00000000
 H      1   2   0     1.049800000000   179.99999829     0.00000000
 H      2   1   3     1.049800000000   180.00000000     0.00000000

---------------------------
INTERNAL COORDINATES (A.U.)
---------------------------
 C      0   0   0     0.000000000000     0.00000000     0.00000000
 C      1   0   0     1.877820859278     0.00000000     0.00000000
 H      1   2   0     1.983834495391   179.99999829     0.00000000
 H      2   1   3     1.983834495391   180.00000000     0.00000000


Diagonalization of the overlap matrix:
Smallest eigenvalue                        ... 2.838e-04
Time for diagonalization                   ...    0.001 sec
Threshold for overlap eigenvalues          ... 1.000e-08
Number of eigenvalues below threshold      ... 0
Time for construction of square roots      ...    0.000 sec
Total time needed                          ...    0.001 sec

-------------------
DFT GRID GENERATION
-------------------

General Integration Accuracy     IntAcc      ...  4.670
Radial Grid Type                 RadialGrid  ... Gauss-Chebyshev
Angular Grid (max. acc.)         AngularGrid ... Lebedev-302
Angular grid pruning method      GridPruning ... 3 (G Style)
Weight generation scheme         WeightScheme... Becke
Basis function cutoff            BFCut       ...    1.0000e-10
Integration weight cutoff        WCut        ...    1.0000e-14
Grids for H and He will be reduced by one unit

# of grid points (after initial pruning)     ...  19212 (   0.0 sec)
# of grid points (after weights+screening)   ...  18830 (   0.0 sec)
nearest neighbour list constructed           ...    0.0 sec
Grid point re-assignment to atoms done       ...    0.0 sec
Grid point division into batches done        ...    0.1 sec
Reduced shell lists constructed in    0.1 sec

Total number of grid points                  ...    18830
Total number of batches                      ...      296
Average number of points per batch           ...       63
Average number of grid points per atom       ...     4708
Average number of shells per batch           ...    12.85 (80.30%)
Average number of basis functions per batch  ...    26.28 (82.11%)
Average number of large shells per batch     ...    11.85 (92.24%)
Average number of large basis fcns per batch ...    24.42 (92.95%)
Maximum spatial batch extension              ...  18.86, 19.90, 19.90 au
Average spatial batch extension              ...   2.90,  4.34,  4.34 au

Time for grid setup =    0.106 sec

--------------
SCF ITERATIONS
--------------
ITER       Energy         Delta-E        Max-DP      RMS-DP      [F,P]   Gradient Norm
               ***  Starting incremental Fock matrix formation  ***
                             ****Resetting KDIIS****
                             ****Turning on KDIIS(Cayley)****
  0    -77.1489381128   0.000000000000 0.00461046  0.00067920  0.0381654   0.037975398
  1    -77.1509553521  -0.002017239339 0.00970870  0.00114729  0.0339267   0.033462151
  2    -77.1532871347  -0.002331782509 0.01529779  0.00193955  0.0272425   0.027042116
  3    -77.1562003330  -0.002913198385 0.02284728  0.00284921  0.0164112   0.016244696
  4    -77.1578440422  -0.001643709162 0.00029256  0.00003465  0.0000749   0.000070042
                          ***Energy convergence achieved***
  5    -77.1578440877  -0.000000045509 0.00001854  0.00000243  0.0000106   0.000011037
Warning: badly conditioned DIIS matrix, 1 vectors out of 5 destroyed
Warning: badly conditioned DIIS matrix, 1 vectors out of 4 destroyed
                           ***RMSP convergence achieved***
                           ***MAXP convergence achieved***
                    *** KDIIS BlockDiag ( 1.908 sec) ***

               *****************************************************
               *                     SUCCESS                       *
               *           SCF CONVERGED AFTER   6 CYCLES          *
               *****************************************************

Setting up the final grid:

General Integration Accuracy     IntAcc      ...  5.010
Radial Grid Type                 RadialGrid  ... Gauss-Chebyshev
Angular Grid (max. acc.)         AngularGrid ... Lebedev-434
Angular grid pruning method      GridPruning ... 3 (G Style)
Weight generation scheme         WeightScheme... Becke
Basis function cutoff            BFCut       ...    1.0000e-10
Integration weight cutoff        WCut        ...    1.0000e-14
Grids for H and He will be reduced by one unit

# of grid points (after initial pruning)     ...  34780 (   0.0 sec)
# of grid points (after weights+screening)   ...  34074 (   0.0 sec)
nearest neighbour list constructed           ...    0.0 sec
Grid point re-assignment to atoms done       ...    0.0 sec
Grid point division into batches done        ...    0.2 sec
Reduced shell lists constructed in    0.3 sec

Total number of grid points                  ...    34074
Total number of batches                      ...      534
Average number of points per batch           ...       63
Average number of grid points per atom       ...     8518
Average number of shells per batch           ...    12.60 (78.77%)
Average number of basis functions per batch  ...    25.77 (80.53%)
Average number of large shells per batch     ...    11.55 (91.64%)
Average number of large basis fcns per batch ...    23.92 (92.83%)
Maximum spatial batch extension              ...  15.89, 27.58, 27.58 au
Average spatial batch extension              ...   2.57,  3.43,  3.34 au

Final grid set up in    0.3 sec
Final integration                            ... done (   0.2 sec)
Change in XC energy                          ...    -0.000128316
Integrated number of electrons               ...    14.000002712
Previous integrated no of electrons          ...    14.000000078
Total Energy       :          -77.15797240 Eh           -2099.57517 eV
  Last Energy change         ...   -9.3819e-10  Tolerance :   1.0000e-06
  Last MAX-Density change    ...    6.1101e-06  Tolerance :   1.0000e-05
             **** THE GBW FILE WAS UPDATED (HCCH.gbw) ****
             **** DENSITY FILE WAS UPDATED (HCCH.scfp) ****
             **** ENERGY FILE WAS UPDATED (HCCH.en.tmp) ****
             **** THE GBW FILE WAS UPDATED (HCCH.gbw) ****
             **** DENSITY FILE WAS UPDATED (HCCH.scfp) ****
Total SCF time: 0 days 0 hours 0 min 2 sec 

-------------------------   --------------------
FINAL SINGLE POINT ENERGY       -77.157972404679
-------------------------   --------------------

Storing actual gbw-file in HCCH.004.gbw ... done

                            ***************************************
                            *     ORCA property calculations      *
                            ***************************************

                                    ---------------------
                                    Active property flags
                                    ---------------------
   (+) Dipole Moment


------------------------------------------------------------------------------
                       ORCA ELECTRIC PROPERTIES CALCULATION
------------------------------------------------------------------------------

Dipole Moment Calculation                       ... on
Quadrupole Moment Calculation                   ... off
Polarizability Calculation                      ... off
GBWName                                         ... HCCH.gbw
Electron density file                           ... HCCH.scfp
The origin for moment calculation is the CENTER OF MASS  = ( 0.938910,  0.000000  0.000000)

-------------
DIPOLE MOMENT
-------------
                                X             Y             Z
Electronic contribution:     -0.00000       0.00000       0.00000
Nuclear contribution   :     -0.00000       0.00000       0.00000
                        -----------------------------------------
Total Dipole Moment    :     -0.00000       0.00000       0.00000
                        -----------------------------------------
Magnitude (a.u.)       :      0.00000
Magnitude (Debye)      :      0.00000



--------------------
Rotational spectrum 
--------------------
 
Rotational constants in cm-1:     0.000000     1.567774     1.567774 
Rotational constants in MHz :     0.000000 47000.696587 47000.696587 

 Dipole components along the rotational axes: 
x,y,z [a.u.] :    -0.000000     0.000000     0.000000 
x,y,z [Debye]:    -0.000000     0.000000     0.000000 

 

         *************************************************************
                                TRAJECTORY STEP   5
                  R  :   1.09370000
         *************************************************************
---------------------------------
CARTESIAN COORDINATES (ANGSTROEM)
---------------------------------
  C      0.000000    0.000000    0.000000
  C      1.093700    0.000000    0.000000
  H     -1.049800    0.000000    0.000000
  H      2.143500    0.000000    0.000000

----------------------------
CARTESIAN COORDINATES (A.U.)
----------------------------
  NO LB      ZA    FRAG     MASS         X           Y           Z
   0 C     6.0000    0    12.011    0.000000    0.000000    0.000000
   1 C     6.0000    0    12.011    2.066793    0.000000    0.000000
   2 H     1.0000    0     1.008   -1.983834    0.000000    0.000000
   3 H     1.0000    0     1.008    4.050628    0.000000    0.000000

--------------------------------
INTERNAL COORDINATES (ANGSTROEM)
--------------------------------
 C      0   0   0     0.000000000000     0.00000000     0.00000000
 C      1   0   0     1.093700000000     0.00000000     0.00000000
 H      1   2   0     1.049800000000   180.00000000     0.00000000
 H      2   1   3     1.049800000000   180.00000000     0.00000000

---------------------------
INTERNAL COORDINATES (A.U.)
---------------------------
 C      0   0   0     0.000000000000     0.00000000     0.00000000
 C      1   0   0     2.066793472670     0.00000000     0.00000000
 H      1   2   0     1.983834495391   180.00000000     0.00000000
 H      2   1   3     1.983834495391   180.00000000     0.00000000


Diagonalization of the overlap matrix:
Smallest eigenvalue                        ... 5.430e-04
Time for diagonalization                   ...    0.001 sec
Threshold for overlap eigenvalues          ... 1.000e-08
Number of eigenvalues below threshold      ... 0
Time for construction of square roots      ...    0.000 sec
Total time needed                          ...    0.001 sec

-------------------
DFT GRID GENERATION
-------------------

General Integration Accuracy     IntAcc      ...  4.670
Radial Grid Type                 RadialGrid  ... Gauss-Chebyshev
Angular Grid (max. acc.)         AngularGrid ... Lebedev-302
Angular grid pruning method      GridPruning ... 3 (G Style)
Weight generation scheme         WeightScheme... Becke
Basis function cutoff            BFCut       ...    1.0000e-10
Integration weight cutoff        WCut        ...    1.0000e-14
Grids for H and He will be reduced by one unit

# of grid points (after initial pruning)     ...  19212 (   0.0 sec)
# of grid points (after weights+screening)   ...  18848 (   0.0 sec)
nearest neighbour list constructed           ...    0.0 sec
Grid point re-assignment to atoms done       ...    0.0 sec
Grid point division into batches done        ...    0.1 sec
Reduced shell lists constructed in    0.1 sec

Total number of grid points                  ...    18848
Total number of batches                      ...      296
Average number of points per batch           ...       63
Average number of grid points per atom       ...     4712
Average number of shells per batch           ...    12.87 (80.43%)
Average number of basis functions per batch  ...    26.33 (82.28%)
Average number of large shells per batch     ...    11.78 (91.58%)
Average number of large basis fcns per batch ...    24.36 (92.51%)
Maximum spatial batch extension              ...  18.86, 25.71, 25.71 au
Average spatial batch extension              ...   2.92,  4.35,  4.33 au

Time for grid setup =    0.106 sec

--------------
SCF ITERATIONS
--------------
ITER       Energy         Delta-E        Max-DP      RMS-DP      [F,P]   Gradient Norm
               ***  Starting incremental Fock matrix formation  ***
                             ****Resetting KDIIS****
                             ****Turning on KDIIS(Cayley)****
  0    -77.2587410875   0.000000000000 0.00361317  0.00049756  0.0315655   0.030389428
  1    -77.2601880437  -0.001446956268 0.00577779  0.00083042  0.0275632   0.026702684
  2    -77.2618710118  -0.001682968108 0.00911702  0.00142697  0.0224577   0.021576091
  3    -77.2639526178  -0.002081605950 0.01365152  0.00212191  0.0135262   0.012968298
  4    -77.2651298028  -0.001177185066 0.00010353  0.00001247  0.0000487   0.000046100
                          ***Energy convergence achieved***
                           ***RMSP convergence achieved***
                           ***MAXP convergence achieved***
                    *** KDIIS BlockDiag ( 1.675 sec) ***

               *****************************************************
               *                     SUCCESS                       *
               *           SCF CONVERGED AFTER   5 CYCLES          *
               *****************************************************

Setting up the final grid:

General Integration Accuracy     IntAcc      ...  5.010
Radial Grid Type                 RadialGrid  ... Gauss-Chebyshev
Angular Grid (max. acc.)         AngularGrid ... Lebedev-434
Angular grid pruning method      GridPruning ... 3 (G Style)
Weight generation scheme         WeightScheme... Becke
Basis function cutoff            BFCut       ...    1.0000e-10
Integration weight cutoff        WCut        ...    1.0000e-14
Grids for H and He will be reduced by one unit

# of grid points (after initial pruning)     ...  34780 (   0.0 sec)
# of grid points (after weights+screening)   ...  34116 (   0.0 sec)
nearest neighbour list constructed           ...    0.0 sec
Grid point re-assignment to atoms done       ...    0.0 sec
Grid point division into batches done        ...    0.2 sec
Reduced shell lists constructed in    0.3 sec

Total number of grid points                  ...    34116
Total number of batches                      ...      534
Average number of points per batch           ...       63
Average number of grid points per atom       ...     8529
Average number of shells per batch           ...    12.56 (78.50%)
Average number of basis functions per batch  ...    25.65 (80.15%)
Average number of large shells per batch     ...    11.46 (91.25%)
Average number of large basis fcns per batch ...    23.84 (92.95%)
Maximum spatial batch extension              ...  15.86, 27.58, 27.58 au
Average spatial batch extension              ...   2.55,  3.40,  3.33 au

Final grid set up in    0.3 sec
Final integration                            ... done (   0.2 sec)
Change in XC energy                          ...    -0.000069147
Integrated number of electrons               ...    14.000000444
Previous integrated no of electrons          ...    14.000005459
Total Energy       :          -77.26519897 Eh           -2102.49295 eV
  Last Energy change         ...   -1.9809e-08  Tolerance :   1.0000e-06
  Last MAX-Density change    ...    7.1401e-06  Tolerance :   1.0000e-05
             **** THE GBW FILE WAS UPDATED (HCCH.gbw) ****
             **** DENSITY FILE WAS UPDATED (HCCH.scfp) ****
             **** ENERGY FILE WAS UPDATED (HCCH.en.tmp) ****
             **** THE GBW FILE WAS UPDATED (HCCH.gbw) ****
             **** DENSITY FILE WAS UPDATED (HCCH.scfp) ****
Total SCF time: 0 days 0 hours 0 min 2 sec 

-------------------------   --------------------
FINAL SINGLE POINT ENERGY       -77.265198970026
-------------------------   --------------------

Storing actual gbw-file in HCCH.005.gbw ... done

                            ***************************************
                            *     ORCA property calculations      *
                            ***************************************

                                    ---------------------
                                    Active property flags
                                    ---------------------
   (+) Dipole Moment


------------------------------------------------------------------------------
                       ORCA ELECTRIC PROPERTIES CALCULATION
------------------------------------------------------------------------------

Dipole Moment Calculation                       ... on
Quadrupole Moment Calculation                   ... off
Polarizability Calculation                      ... off
GBWName                                         ... HCCH.gbw
Electron density file                           ... HCCH.scfp
The origin for moment calculation is the CENTER OF MASS  = ( 1.033397,  0.000000  0.000000)

-------------
DIPOLE MOMENT
-------------
                                X             Y             Z
Electronic contribution:      0.00000      -0.00000      -0.00000
Nuclear contribution   :     -0.00000       0.00000       0.00000
                        -----------------------------------------
Total Dipole Moment    :      0.00000      -0.00000      -0.00000
                        -----------------------------------------
Magnitude (a.u.)       :      0.00000
Magnitude (Debye)      :      0.00000



--------------------
Rotational spectrum 
--------------------
 
Rotational constants in cm-1:     0.000000     1.367979     1.367979 
Rotational constants in MHz :     0.000000 41010.981241 41010.981241 

 Dipole components along the rotational axes: 
x,y,z [a.u.] :     0.000000    -0.000000    -0.000000 
x,y,z [Debye]:     0.000000    -0.000000    -0.000000 

 

         *************************************************************
                                TRAJECTORY STEP   6
                  R  :   1.19370000
         *************************************************************
---------------------------------
CARTESIAN COORDINATES (ANGSTROEM)
---------------------------------
  C      0.000000    0.000000    0.000000
  C      1.193700    0.000000    0.000000
  H     -1.049800    0.000000    0.000000
  H      2.243500    0.000000    0.000000

----------------------------
CARTESIAN COORDINATES (A.U.)
----------------------------
  NO LB      ZA    FRAG     MASS         X           Y           Z
   0 C     6.0000    0    12.011    0.000000    0.000000    0.000000
   1 C     6.0000    0    12.011    2.255766    0.000000    0.000000
   2 H     1.0000    0     1.008   -1.983834    0.000000    0.000000
   3 H     1.0000    0     1.008    4.239601    0.000000    0.000000

--------------------------------
INTERNAL COORDINATES (ANGSTROEM)
--------------------------------
 C      0   0   0     0.000000000000     0.00000000     0.00000000
 C      1   0   0     1.193700000000     0.00000000     0.00000000
 H      1   2   0     1.049800000000   180.00000000     0.00000000
 H      2   1   3     1.049800000000   180.00000000     0.00000000

---------------------------
INTERNAL COORDINATES (A.U.)
---------------------------
 C      0   0   0     0.000000000000     0.00000000     0.00000000
 C      1   0   0     2.255766086062     0.00000000     0.00000000
 H      1   2   0     1.983834495391   180.00000000     0.00000000
 H      2   1   3     1.983834495391   180.00000000     0.00000000


Diagonalization of the overlap matrix:
Smallest eigenvalue                        ... 9.733e-04
Time for diagonalization                   ...    0.001 sec
Threshold for overlap eigenvalues          ... 1.000e-08
Number of eigenvalues below threshold      ... 0
Time for construction of square roots      ...    0.000 sec
Total time needed                          ...    0.001 sec

-------------------
DFT GRID GENERATION
-------------------

General Integration Accuracy     IntAcc      ...  4.670
Radial Grid Type                 RadialGrid  ... Gauss-Chebyshev
Angular Grid (max. acc.)         AngularGrid ... Lebedev-302
Angular grid pruning method      GridPruning ... 3 (G Style)
Weight generation scheme         WeightScheme... Becke
Basis function cutoff            BFCut       ...    1.0000e-10
Integration weight cutoff        WCut        ...    1.0000e-14
Grids for H and He will be reduced by one unit

# of grid points (after initial pruning)     ...  19212 (   0.0 sec)
# of grid points (after weights+screening)   ...  18848 (   0.0 sec)
nearest neighbour list constructed           ...    0.0 sec
Grid point re-assignment to atoms done       ...    0.0 sec
Grid point division into batches done        ...    0.1 sec
Reduced shell lists constructed in    0.1 sec

Total number of grid points                  ...    18848
Total number of batches                      ...      296
Average number of points per batch           ...       63
Average number of grid points per atom       ...     4712
Average number of shells per batch           ...    12.80 (80.01%)
Average number of basis functions per batch  ...    26.23 (81.97%)
Average number of large shells per batch     ...    11.61 (90.69%)
Average number of large basis fcns per batch ...    24.10 (91.89%)
Maximum spatial batch extension              ...  18.87, 25.71, 25.71 au
Average spatial batch extension              ...   2.93,  4.32,  4.30 au

Time for grid setup =    0.107 sec

--------------
SCF ITERATIONS
--------------
ITER       Energy         Delta-E        Max-DP      RMS-DP      [F,P]   Gradient Norm
               ***  Starting incremental Fock matrix formation  ***
                             ****Resetting KDIIS****
                             ****Turning on KDIIS(Cayley)****
  0    -77.2906799297   0.000000000000 0.00300929  0.00039080  0.0213001   0.024368163
  1    -77.2916906369  -0.001010707282 0.00431269  0.00064225  0.0185302   0.021413314
  2    -77.2928931404  -0.001202503502 0.00758578  0.00110958  0.0149494   0.017311104
  3    -77.2943797436  -0.001486603153 0.01136866  0.00165778  0.0089646   0.010405086
  4    -77.2952208810  -0.000841137451 0.00005119  0.00000652  0.0000367   0.000032420
                          ***Energy convergence achieved***
                           ***RMSP convergence achieved***
                           ***MAXP convergence achieved***
                    *** KDIIS BlockDiag ( 1.688 sec) ***

               *****************************************************
               *                     SUCCESS                       *
               *           SCF CONVERGED AFTER   5 CYCLES          *
               *****************************************************

Setting up the final grid:

General Integration Accuracy     IntAcc      ...  5.010
Radial Grid Type                 RadialGrid  ... Gauss-Chebyshev
Angular Grid (max. acc.)         AngularGrid ... Lebedev-434
Angular grid pruning method      GridPruning ... 3 (G Style)
Weight generation scheme         WeightScheme... Becke
Basis function cutoff            BFCut       ...    1.0000e-10
Integration weight cutoff        WCut        ...    1.0000e-14
Grids for H and He will be reduced by one unit

# of grid points (after initial pruning)     ...  34780 (   0.0 sec)
# of grid points (after weights+screening)   ...  34148 (   0.0 sec)
nearest neighbour list constructed           ...    0.0 sec
Grid point re-assignment to atoms done       ...    0.0 sec
Grid point division into batches done        ...    0.2 sec
Reduced shell lists constructed in    0.3 sec

Total number of grid points                  ...    34148
Total number of batches                      ...      536
Average number of points per batch           ...       63
Average number of grid points per atom       ...     8537
Average number of shells per batch           ...    12.46 (77.85%)
Average number of basis functions per batch  ...    25.51 (79.72%)
Average number of large shells per batch     ...    11.28 (90.52%)
Average number of large basis fcns per batch ...    23.49 (92.09%)
Maximum spatial batch extension              ...  15.74, 27.58, 27.58 au
Average spatial batch extension              ...   2.61,  3.41,  3.40 au

Final grid set up in    0.3 sec
Final integration                            ... done (   0.2 sec)
Change in XC energy                          ...    -0.000030944
Integrated number of electrons               ...    13.999998568
Previous integrated no of electrons          ...    13.999994115
Total Energy       :          -77.29525183 Eh           -2103.31073 eV
  Last Energy change         ...   -1.0037e-08  Tolerance :   1.0000e-06
  Last MAX-Density change    ...    8.1586e-06  Tolerance :   1.0000e-05
             **** THE GBW FILE WAS UPDATED (HCCH.gbw) ****
             **** DENSITY FILE WAS UPDATED (HCCH.scfp) ****
             **** ENERGY FILE WAS UPDATED (HCCH.en.tmp) ****
             **** THE GBW FILE WAS UPDATED (HCCH.gbw) ****
             **** DENSITY FILE WAS UPDATED (HCCH.scfp) ****
Total SCF time: 0 days 0 hours 0 min 2 sec 

-------------------------   --------------------
FINAL SINGLE POINT ENERGY       -77.295251834809
-------------------------   --------------------

Storing actual gbw-file in HCCH.006.gbw ... done

                            ***************************************
                            *     ORCA property calculations      *
                            ***************************************

                                    ---------------------
                                    Active property flags
                                    ---------------------
   (+) Dipole Moment


------------------------------------------------------------------------------
                       ORCA ELECTRIC PROPERTIES CALCULATION
------------------------------------------------------------------------------

Dipole Moment Calculation                       ... on
Quadrupole Moment Calculation                   ... off
Polarizability Calculation                      ... off
GBWName                                         ... HCCH.gbw
Electron density file                           ... HCCH.scfp
The origin for moment calculation is the CENTER OF MASS  = ( 1.127883,  0.000000  0.000000)

-------------
DIPOLE MOMENT
-------------
                                X             Y             Z
Electronic contribution:     -0.00000      -0.00000      -0.00000
Nuclear contribution   :     -0.00000       0.00000       0.00000
                        -----------------------------------------
Total Dipole Moment    :     -0.00000      -0.00000      -0.00000
                        -----------------------------------------
Magnitude (a.u.)       :      0.00000
Magnitude (Debye)      :      0.00000



--------------------
Rotational spectrum 
--------------------
 
Rotational constants in cm-1:     0.000000     1.202087     1.202087 
Rotational constants in MHz :     0.000000 36037.653942 36037.653942 

 Dipole components along the rotational axes: 
x,y,z [a.u.] :    -0.000000    -0.000000    -0.000000 
x,y,z [Debye]:    -0.000001    -0.000000    -0.000000 

 

         *************************************************************
                                TRAJECTORY STEP   7
                  R  :   1.29370000
         *************************************************************
---------------------------------
CARTESIAN COORDINATES (ANGSTROEM)
---------------------------------
  C      0.000000    0.000000    0.000000
  C      1.293700    0.000000    0.000000
  H     -1.049800    0.000000    0.000000
  H      2.343500    0.000000    0.000000

----------------------------
CARTESIAN COORDINATES (A.U.)
----------------------------
  NO LB      ZA    FRAG     MASS         X           Y           Z
   0 C     6.0000    0    12.011    0.000000    0.000000    0.000000
   1 C     6.0000    0    12.011    2.444739    0.000000    0.000000
   2 H     1.0000    0     1.008   -1.983834    0.000000    0.000000
   3 H     1.0000    0     1.008    4.428573    0.000000    0.000000

--------------------------------
INTERNAL COORDINATES (ANGSTROEM)
--------------------------------
 C      0   0   0     0.000000000000     0.00000000     0.00000000
 C      1   0   0     1.293700000000     0.00000000     0.00000000
 H      1   2   0     1.049800000000   179.99999829     0.00000000
 H      2   1   3     1.049800000000   179.99999915     0.00000000

---------------------------
INTERNAL COORDINATES (A.U.)
---------------------------
 C      0   0   0     0.000000000000     0.00000000     0.00000000
 C      1   0   0     2.444738699454     0.00000000     0.00000000
 H      1   2   0     1.983834495391   179.99999829     0.00000000
 H      2   1   3     1.983834495391   179.99999915     0.00000000


Diagonalization of the overlap matrix:
Smallest eigenvalue                        ... 1.648e-03
Time for diagonalization                   ...    0.001 sec
Threshold for overlap eigenvalues          ... 1.000e-08
Number of eigenvalues below threshold      ... 0
Time for construction of square roots      ...    0.000 sec
Total time needed                          ...    0.001 sec

-------------------
DFT GRID GENERATION
-------------------

General Integration Accuracy     IntAcc      ...  4.670
Radial Grid Type                 RadialGrid  ... Gauss-Chebyshev
Angular Grid (max. acc.)         AngularGrid ... Lebedev-302
Angular grid pruning method      GridPruning ... 3 (G Style)
Weight generation scheme         WeightScheme... Becke
Basis function cutoff            BFCut       ...    1.0000e-10
Integration weight cutoff        WCut        ...    1.0000e-14
Grids for H and He will be reduced by one unit

# of grid points (after initial pruning)     ...  19212 (   0.0 sec)
# of grid points (after weights+screening)   ...  18874 (   0.0 sec)
nearest neighbour list constructed           ...    0.0 sec
Grid point re-assignment to atoms done       ...    0.0 sec
[...]
Total time needed                          ...    0.001 sec

-------------------
DFT GRID GENERATION
-------------------

General Integration Accuracy     IntAcc      ...  4.670
Radial Grid Type                 RadialGrid  ... Gauss-Chebyshev
Angular Grid (max. acc.)         AngularGrid ... Lebedev-302
Angular grid pruning method      GridPruning ... 3 (G Style)
Weight generation scheme         WeightScheme... Becke
Basis function cutoff            BFCut       ...    1.0000e-10
Integration weight cutoff        WCut        ...    1.0000e-14
Grids for H and He will be reduced by one unit

# of grid points (after initial pruning)     ...  19212 (   0.0 sec)
# of grid points (after weights+screening)   ...  19086 (   0.0 sec)
nearest neighbour list constructed           ...    0.0 sec
Grid point re-assignment to atoms done       ...    0.0 sec
Grid point division into batches done        ...    0.1 sec
Reduced shell lists constructed in    0.1 sec

Total number of grid points                  ...    19086
Total number of batches                      ...      300
Average number of points per batch           ...       63
Average number of grid points per atom       ...     4772
Average number of shells per batch           ...     8.96 (56.00%)
Average number of basis functions per batch  ...    17.88 (55.89%)
Average number of large shells per batch     ...     6.96 (77.72%)
Average number of large basis fcns per batch ...    14.15 (79.14%)
Maximum spatial batch extension              ...  21.54, 31.15, 24.37 au
Average spatial batch extension              ...   3.30,  4.45,  4.31 au

Time for grid setup =    0.105 sec

--------------
SCF ITERATIONS
--------------
ITER       Energy         Delta-E        Max-DP      RMS-DP      [F,P]   Gradient Norm
               ***  Starting incremental Fock matrix formation  ***
                             ****Resetting KDIIS****
                             ****Turning on KDIIS(Cayley)****
  0    -76.3576925463   0.000000000000 0.00016075  0.00001812  0.0005668   0.000310129
                          ***Energy convergence achieved***
  1    -76.3576928745  -0.000000328154 0.00042524  0.00004512  0.0005193   0.000286099
  2    -76.3576935815  -0.000000707053 0.00068134  0.00007248  0.0004176   0.000230237
  3    -76.3576944040  -0.000000822426 0.00104840  0.00010927  0.0002536   0.000140710
  4    -76.3576949207  -0.000000516796 0.00017204  0.00001999  0.0000586   0.000029330

            ***Energy convergence in two consecutive cycles with***
                    ***'reasonable' density convergence***
                       *** signaling convergence ***

                    *** KDIIS BlockDiag ( 1.440 sec) ***

               *****************************************************
               *                     SUCCESS                       *
               *           SCF CONVERGED AFTER   5 CYCLES          *
               *****************************************************

Setting up the final grid:

General Integration Accuracy     IntAcc      ...  5.010
Radial Grid Type                 RadialGrid  ... Gauss-Chebyshev
Angular Grid (max. acc.)         AngularGrid ... Lebedev-434
Angular grid pruning method      GridPruning ... 3 (G Style)
Weight generation scheme         WeightScheme... Becke
Basis function cutoff            BFCut       ...    1.0000e-10
Integration weight cutoff        WCut        ...    1.0000e-14
Grids for H and He will be reduced by one unit

# of grid points (after initial pruning)     ...  34780 (   0.0 sec)
# of grid points (after weights+screening)   ...  34548 (   0.0 sec)
nearest neighbour list constructed           ...    0.0 sec
Grid point re-assignment to atoms done       ...    0.0 sec
Grid point division into batches done        ...    0.2 sec
Reduced shell lists constructed in    0.3 sec

Total number of grid points                  ...    34548
Total number of batches                      ...      542
Average number of points per batch           ...       63
Average number of grid points per atom       ...     8637
Average number of shells per batch           ...     8.53 (53.29%)
Average number of basis functions per batch  ...    16.88 (52.74%)
Average number of large shells per batch     ...     6.71 (78.68%)
Average number of large basis fcns per batch ...    13.62 (80.70%)
Maximum spatial batch extension              ...  22.66, 21.36, 21.36 au
Average spatial batch extension              ...   2.79,  3.44,  3.44 au

Final grid set up in    0.3 sec
Final integration                            ... done (   0.2 sec)
Change in XC energy                          ...    -0.000383975
Integrated number of electrons               ...    13.999999982
Previous integrated no of electrons          ...    14.000004782
Total Energy       :          -76.35807883 Eh           -2077.80896 eV
  Last Energy change         ...    6.2661e-08  Tolerance :   1.0000e-06
  Last MAX-Density change    ...    2.1139e-05  Tolerance :   1.0000e-05
             **** THE GBW FILE WAS UPDATED (HCCH.gbw) ****
             **** DENSITY FILE WAS UPDATED (HCCH.scfp) ****
             **** ENERGY FILE WAS UPDATED (HCCH.en.tmp) ****
             **** THE GBW FILE WAS UPDATED (HCCH.gbw) ****
             **** DENSITY FILE WAS UPDATED (HCCH.scfp) ****
Total SCF time: 0 days 0 hours 0 min 1 sec 

-------------------------   --------------------
FINAL SINGLE POINT ENERGY       -76.358078832869
-------------------------   --------------------

Storing actual gbw-file in HCCH.045.gbw ... done

                            ***************************************
                            *     ORCA property calculations      *
                            ***************************************

                                    ---------------------
                                    Active property flags
                                    ---------------------
   (+) Dipole Moment


------------------------------------------------------------------------------
                       ORCA ELECTRIC PROPERTIES CALCULATION
------------------------------------------------------------------------------

Dipole Moment Calculation                       ... on
Quadrupole Moment Calculation                   ... off
Polarizability Calculation                      ... off
GBWName                                         ... HCCH.gbw
Electron density file                           ... HCCH.scfp
The origin for moment calculation is the CENTER OF MASS  = ( 4.812849,  0.000000  0.000000)

-------------
DIPOLE MOMENT
-------------
                                X             Y             Z
Electronic contribution:     -0.00007      -0.00000       0.00000
Nuclear contribution   :      0.00000       0.00000       0.00000
                        -----------------------------------------
Total Dipole Moment    :     -0.00007      -0.00000       0.00000
                        -----------------------------------------
Magnitude (a.u.)       :      0.00007
Magnitude (Debye)      :      0.00018



--------------------
Rotational spectrum 
--------------------
 
Rotational constants in cm-1:     0.000000     0.092677     0.092677 
Rotational constants in MHz :     0.000000  2778.395897  2778.395897 

 Dipole components along the rotational axes: 
x,y,z [a.u.] :    -0.000071    -0.000000     0.000000 
x,y,z [Debye]:    -0.000181    -0.000000     0.000000 

 

         *************************************************************
                                TRAJECTORY STEP  46
                  R  :   5.19370000
         *************************************************************
---------------------------------
CARTESIAN COORDINATES (ANGSTROEM)
---------------------------------
  C      0.000000    0.000000    0.000000
  C      5.193700    0.000000    0.000000
  H     -1.049800    0.000000    0.000000
  H      6.243500    0.000000    0.000000

----------------------------
CARTESIAN COORDINATES (A.U.)
----------------------------
  NO LB      ZA    FRAG     MASS         X           Y           Z
   0 C     6.0000    0    12.011    0.000000    0.000000    0.000000
   1 C     6.0000    0    12.011    9.814671    0.000000    0.000000
   2 H     1.0000    0     1.008   -1.983834    0.000000    0.000000
   3 H     1.0000    0     1.008   11.798505    0.000000    0.000000

--------------------------------
INTERNAL COORDINATES (ANGSTROEM)
--------------------------------
 C      0   0   0     0.000000000000     0.00000000     0.00000000
 C      1   0   0     5.193700000000     0.00000000     0.00000000
 H      1   2   0     1.049800000000   180.00000000     0.00000000
 H      2   1   3     1.049800000000   180.00000000     0.00000000

---------------------------
INTERNAL COORDINATES (A.U.)
---------------------------
 C      0   0   0     0.000000000000     0.00000000     0.00000000
 C      1   0   0     9.814670621747     0.00000000     0.00000000
 H      1   2   0     1.983834495391   180.00000000     0.00000000
 H      2   1   3     1.983834495391   180.00000000     0.00000000


Diagonalization of the overlap matrix:
Smallest eigenvalue                        ... 4.121e-02
Time for diagonalization                   ...    0.001 sec
Threshold for overlap eigenvalues          ... 1.000e-08
Number of eigenvalues below threshold      ... 0
Time for construction of square roots      ...    0.000 sec
Total time needed                          ...    0.001 sec

-------------------
DFT GRID GENERATION
-------------------

General Integration Accuracy     IntAcc      ...  4.670
Radial Grid Type                 RadialGrid  ... Gauss-Chebyshev
Angular Grid (max. acc.)         AngularGrid ... Lebedev-302
Angular grid pruning method      GridPruning ... 3 (G Style)
Weight generation scheme         WeightScheme... Becke
Basis function cutoff            BFCut       ...    1.0000e-10
Integration weight cutoff        WCut        ...    1.0000e-14
Grids for H and He will be reduced by one unit

# of grid points (after initial pruning)     ...  19212 (   0.0 sec)
# of grid points (after weights+screening)   ...  19086 (   0.0 sec)
nearest neighbour list constructed           ...    0.0 sec
Grid point re-assignment to atoms done       ...    0.0 sec
Grid point division into batches done        ...    0.1 sec
Reduced shell lists constructed in    0.1 sec

Total number of grid points                  ...    19086
Total number of batches                      ...      300
Average number of points per batch           ...       63
Average number of grid points per atom       ...     4772
Average number of shells per batch           ...     8.81 (55.07%)
Average number of basis functions per batch  ...    17.62 (55.07%)
Average number of large shells per batch     ...     6.92 (78.51%)
Average number of large basis fcns per batch ...    13.98 (79.34%)
Maximum spatial batch extension              ...  21.54, 31.15, 24.37 au
Average spatial batch extension              ...   3.27,  4.50,  4.33 au

Time for grid setup =    0.105 sec

--------------
SCF ITERATIONS
--------------
ITER       Energy         Delta-E        Max-DP      RMS-DP      [F,P]   Gradient Norm
               ***  Starting incremental Fock matrix formation  ***
                             ****Resetting KDIIS****
                             ****Turning on KDIIS(Cayley)****
  0    -76.3541352161   0.000000000000 0.00014510  0.00001627  0.0004973   0.000276510
                          ***Energy convergence achieved***
  1    -76.3541354787  -0.000000262671 0.00038074  0.00004056  0.0004556   0.000255131
  2    -76.3541360471  -0.000000568392 0.00060993  0.00006512  0.0003663   0.000205190
  3    -76.3541367077  -0.000000660578 0.00092883  0.00009797  0.0002219   0.000125363
  4    -76.3541371174  -0.000000409655 0.00010076  0.00001460  0.0000467   0.000027222

            ***Energy convergence in two consecutive cycles with***
                    ***'reasonable' density convergence***
                       *** signaling convergence ***

                    *** KDIIS BlockDiag ( 1.450 sec) ***

               *****************************************************
               *                     SUCCESS                       *
               *           SCF CONVERGED AFTER   5 CYCLES          *
               *****************************************************

Setting up the final grid:

General Integration Accuracy     IntAcc      ...  5.010
Radial Grid Type                 RadialGrid  ... Gauss-Chebyshev
Angular Grid (max. acc.)         AngularGrid ... Lebedev-434
Angular grid pruning method      GridPruning ... 3 (G Style)
Weight generation scheme         WeightScheme... Becke
Basis function cutoff            BFCut       ...    1.0000e-10
Integration weight cutoff        WCut        ...    1.0000e-14
Grids for H and He will be reduced by one unit

# of grid points (after initial pruning)     ...  34780 (   0.0 sec)
# of grid points (after weights+screening)   ...  34556 (   0.0 sec)
nearest neighbour list constructed           ...    0.0 sec
Grid point re-assignment to atoms done       ...    0.0 sec
Grid point division into batches done        ...    0.2 sec
Reduced shell lists constructed in    0.3 sec

Total number of grid points                  ...    34556
Total number of batches                      ...      542
Average number of points per batch           ...       63
Average number of grid points per atom       ...     8639
Average number of shells per batch           ...     8.38 (52.39%)
Average number of basis functions per batch  ...    16.66 (52.07%)
Average number of large shells per batch     ...     6.66 (79.39%)
Average number of large basis fcns per batch ...    13.50 (80.99%)
Maximum spatial batch extension              ...  22.34, 21.36, 21.36 au
Average spatial batch extension              ...   2.82,  3.49,  3.46 au

Final grid set up in    0.3 sec
Final integration                            ... done (   0.2 sec)
Change in XC energy                          ...    -0.000385679
Integrated number of electrons               ...    14.000000138
Previous integrated no of electrons          ...    14.000006144
Total Energy       :          -76.35452275 Eh           -2077.71219 eV
  Last Energy change         ...    4.2283e-08  Tolerance :   1.0000e-06
  Last MAX-Density change    ...    2.2920e-05  Tolerance :   1.0000e-05
             **** THE GBW FILE WAS UPDATED (HCCH.gbw) ****
             **** DENSITY FILE WAS UPDATED (HCCH.scfp) ****
             **** ENERGY FILE WAS UPDATED (HCCH.en.tmp) ****
             **** THE GBW FILE WAS UPDATED (HCCH.gbw) ****
             **** DENSITY FILE WAS UPDATED (HCCH.scfp) ****
Total SCF time: 0 days 0 hours 0 min 1 sec 

-------------------------   --------------------
FINAL SINGLE POINT ENERGY       -76.354522753671
-------------------------   --------------------

Storing actual gbw-file in HCCH.046.gbw ... done

                            ***************************************
                            *     ORCA property calculations      *
                            ***************************************

                                    ---------------------
                                    Active property flags
                                    ---------------------
   (+) Dipole Moment


------------------------------------------------------------------------------
                       ORCA ELECTRIC PROPERTIES CALCULATION
------------------------------------------------------------------------------

Dipole Moment Calculation                       ... on
Quadrupole Moment Calculation                   ... off
Polarizability Calculation                      ... off
GBWName                                         ... HCCH.gbw
Electron density file                           ... HCCH.scfp
The origin for moment calculation is the CENTER OF MASS  = ( 4.907335,  0.000000  0.000000)

-------------
DIPOLE MOMENT
-------------
                                X             Y             Z
Electronic contribution:     -0.00008       0.00000      -0.00000
Nuclear contribution   :      0.00000       0.00000       0.00000
                        -----------------------------------------
Total Dipole Moment    :     -0.00008       0.00000      -0.00000
                        -----------------------------------------
Magnitude (a.u.)       :      0.00008
Magnitude (Debye)      :      0.00020



--------------------
Rotational spectrum 
--------------------
 
Rotational constants in cm-1:     0.000000     0.089286     0.089286 
Rotational constants in MHz :     0.000000  2676.736286  2676.736286 

 Dipole components along the rotational axes: 
x,y,z [a.u.] :    -0.000079     0.000000    -0.000000 
x,y,z [Debye]:    -0.000200     0.000000    -0.000000 

 
                              **** TRAJECTORY DONE ***

                         SUMMARY OF THE CALCULATED SURFACE

------------------
TRAJECTORY RESULTS
------------------

Column   1: R

The Calculated Surface using the 'Actual Energy'
   0.69370000 -75.65635715
   0.79370000 -76.46692733
   0.89370000 -76.92086413
   0.99370000 -77.15797240
   1.09370000 -77.26519897
   1.19370000 -77.29525183
   1.29370000 -77.28032164
   1.39370000 -77.24004409
   1.49370000 -77.18643623
   1.59370000 -77.12686753
   1.69370000 -77.06580021
   1.79370000 -77.00588277
   1.89370000 -76.94864311
   1.99370000 -76.89493743
   2.09370000 -76.84524915
   2.19370000 -76.79961524
   2.29370000 -76.75793831
   2.39370000 -76.72003953
   2.49370000 -76.68561988
   2.59370000 -76.65437772
   2.69370000 -76.62598763
   2.79370000 -76.60020710
   2.89370000 -76.57677336
   2.99370000 -76.55543556
   3.09370000 -76.53594919
   3.19370000 -76.51815290
   3.29370000 -76.50187100
   3.39370000 -76.48695860
   3.49370000 -76.47328579
   3.59370000 -76.46072956
   3.69370000 -76.44919356
   3.79370000 -76.43859816
   3.89370000 -76.42888177
   3.99370000 -76.41996933
   4.09370000 -76.41178674
   4.19370000 -76.40427420
   4.29370000 -76.39738026
   4.39370000 -76.39104091
   4.49370000 -76.38520221
   4.59370000 -76.37981526
   4.69370000 -76.37482846
   4.79370000 -76.37019795
   4.89370000 -76.36588582
   4.99370000 -76.36185725
   5.09370000 -76.35807883
   5.19370000 -76.35452275

The Calculated Surface using the SCF energy
   0.69370000 -75.65635715
   0.79370000 -76.46692733
   0.89370000 -76.92086413
   0.99370000 -77.15797240
   1.09370000 -77.26519897
   1.19370000 -77.29525183
   1.29370000 -77.28032164
   1.39370000 -77.24004409
   1.49370000 -77.18643623
   1.59370000 -77.12686753
   1.69370000 -77.06580021
   1.79370000 -77.00588277
   1.89370000 -76.94864311
   1.99370000 -76.89493743
   2.09370000 -76.84524915
   2.19370000 -76.79961524
   2.29370000 -76.75793831
   2.39370000 -76.72003953
   2.49370000 -76.68561988
   2.59370000 -76.65437772
   2.69370000 -76.62598763
   2.79370000 -76.60020710
   2.89370000 -76.57677336
   2.99370000 -76.55543556
   3.09370000 -76.53594919
   3.19370000 -76.51815290
   3.29370000 -76.50187100
   3.39370000 -76.48695860
   3.49370000 -76.47328579
   3.59370000 -76.46072956
   3.69370000 -76.44919356
   3.79370000 -76.43859816
   3.89370000 -76.42888177
   3.99370000 -76.41996933
   4.09370000 -76.41178674
   4.19370000 -76.40427420
   4.29370000 -76.39738026
   4.39370000 -76.39104091
   4.49370000 -76.38520221
   4.59370000 -76.37981526
   4.69370000 -76.37482846
   4.79370000 -76.37019795
   4.89370000 -76.36588582
   4.99370000 -76.36185725
   5.09370000 -76.35807883
   5.19370000 -76.35452275


Timings for individual modules:

Sum of individual times         ...      115.055 sec (=   1.918 min)
GTO integral calculation        ...       11.135 sec (=   0.186 min)   9.7 %
SCF iterations                  ...      103.920 sec (=   1.732 min)  90.3 %
                             ****ORCA TERMINATED NORMALLY****
TOTAL RUN TIME: 0 days 0 hours 1 minutes 59 seconds 50 msec
