
                                 *****************
                                 * O   R   C   A *
                                 *****************

           --- An Ab Initio, DFT and Semiempirical electronic structure package ---

                  #######################################################
                  #                        -***-                        #
                  #          Department of theory and spectroscopy      #
                  #               Directorship: Frank Neese             #
                  #        Max Planck Institute fuer Kohlenforschung    #
                  #                Kaiser Wilhelm Platz 1               #
                  #                 D-45470 Muelheim/Ruhr               #
                  #                      Germany                        #
                  #                                                     #
                  #                  All rights reserved                #
                  #                        -***-                        #
                  #######################################################


                         Program Version 4.2.0 -  RELEASE  -


 With contributions from (in alphabetic order):
   Daniel Aravena         : Magnetic Suceptibility
   Michael Atanasov       : Ab Initio Ligand Field Theory (pilot matlab implementation)
   Alexander A. Auer      : GIAO ZORA, VPT2
   Ute Becker             : Parallelization
   Giovanni Bistoni       : ED, misc. LED, open-shell LED, HFLED
   Martin Brehm           : Molecular dynamics
   Dmytro Bykov           : SCF Hessian
   Vijay G. Chilkuri      : MRCI spin determinant printing, contributions to CSF-ICE
   Dipayan Datta          : RHF DLPNO-CCSD density
   Achintya Kumar Dutta   : EOM-CC, STEOM-CC
   Dmitry Ganyushin       : Spin-Orbit,Spin-Spin,Magnetic field MRCI
   Miquel Garcia          : C-PCM Hessian, Gaussian charge scheme
   Yang Guo               : DLPNO-NEVPT2, CIM, IAO-localization
   Andreas Hansen         : Spin unrestricted coupled pair/coupled cluster methods
   Benjamin Helmich-Paris : CASSCF linear response (MC-RPA)
   Lee Huntington         : MR-EOM, pCC
   Robert Izsak           : Overlap fitted RIJCOSX, COSX-SCS-MP3, EOM
   Christian Kollmar      : KDIIS, OOCD, Brueckner-CCSD(T), CCSD density
   Simone Kossmann        : Meta GGA functionals, TD-DFT gradient, OOMP2, MP2 Hessian
   Martin Krupicka        : AUTO-CI
   Lucas Lang             : DCDCAS
   Dagmar Lenk            : GEPOL surface, SMD
   Dimitrios Liakos       : Extrapolation schemes; Compound Job, initial MDCI parallelization
   Dimitrios Manganas     : Further ROCIS development; embedding schemes
   Dimitrios Pantazis     : SARC Basis sets
   Taras Petrenko         : DFT Hessian,TD-DFT gradient, ASA, ECA, R-Raman, ABS, FL, XAS/XES, NRVS
   Peter Pinski           : DLPNO-MP2, DLPNO-MP2 Gradient
   Christoph Reimann      : Effective Core Potentials
   Marius Retegan         : Local ZFS, SOC
   Christoph Riplinger    : Optimizer, TS searches, QM/MM, DLPNO-CCSD(T), (RO)-DLPNO pert. Triples
   Tobias Risthaus        : Range-separated hybrids, TD-DFT gradient, RPA, STAB
   Michael Roemelt        : Original ROCIS implementation
   Masaaki Saitow         : Open-shell DLPNO-CCSD energy and density
   Barbara Sandhoefer     : DKH picture change effects
   Avijit Sen             : IP-ROCIS
   Kantharuban Sivalingam : CASSCF convergence, NEVPT2, FIC-MRCI
   Bernardo de Souza      : ESD, SOC TD-DFT
   Georgi Stoychev        : AutoAux, RI-MP2 NMR
   Willem Van den Heuvel  : Paramagnetic NMR
   Boris Wezisla          : Elementary symmetry handling
   Frank Wennmohs         : Technical directorship


 We gratefully acknowledge several colleagues who have allowed us to
 interface, adapt or use parts of their codes:
   Stefan Grimme, W. Hujo, H. Kruse,             : VdW corrections, initial TS optimization,
                  C. Bannwarth                     DFT functionals, gCP, sTDA/sTD-DF
   Ed Valeev, F. Pavosevic, A. Kumar             : LibInt (2-el integral package), F12 methods
   Garnet Chan, S. Sharma, J. Yang, R. Olivares  : DMRG
   Ulf Ekstrom                                   : XCFun DFT Library
   Mihaly Kallay                                 : mrcc  (arbitrary order and MRCC methods)
   Andreas Klamt, Michael Diedenhofen            : otool_cosmo (COSMO solvation model)
   Jiri Pittner, Ondrej Demel                    : Mk-CCSD
   Frank Weinhold                                : gennbo (NPA and NBO analysis)
   Christopher J. Cramer and Donald G. Truhlar   : smd solvation model
   Lars Goerigk                                  : TD-DFT with DH, B97 family of functionals
   V. Asgeirsson, H. Jonsson                     : NEB implementation
   FAccTs GmbH                                   : IRC, NEB, NEB-TS, Multilevel, MM, QM/MM, CI optimization
   S Lehtola, MJT Oliveira, MAL Marques          : LibXC Library


 Your calculation uses the libint2 library for the computation of 2-el integrals
 For citations please refer to: http://libint.valeyev.net

 Your ORCA version has been built with support for libXC version: 4.2.3
 For citations please refer to: https://tddft.org/programs/libxc/

 This ORCA versions uses:
   CBLAS   interface :  Fast vector & matrix operations
   LAPACKE interface :  Fast linear algebra routines
   SCALAPACK package :  Parallel linear algebra routines


XCFun DFT library Copyright 2009-2010 Ulf Ekstrom and contributors.
See http://admol.org/xcfun for more information. This is free soft-
ware; see the source code for copying conditions. There is ABSOLUTELY
NO WARRANTY; not even for MERCHANTABILITY or FITNESS FOR A PARTICULAR
PURPOSE. For details see the documentation. Scientific users of this 
library should cite U. Ekstrom, L. Visscher, R. Bast, A. J. Thorvald-
sen and K. Ruud; J.Chem.Theor.Comp. 2010, DOI: 10.1021/ct100117s
XCFun Version 0.99 
----- Orbital basis set information -----
Your calculation utilizes the basis: 6-31G(d)
   H-He, Li-Ne : W. J. Hehre, R. Ditchfield and J.A. Pople, J. Chem. Phys. 56, 2257 (1972).
                 Note: He and Ne are unpublished basis sets taken from the Gaussian program.
                 Note: Li and B from J. D. Dill and J. A. Pople, J. Chem. Phys. 62, 2921 (1975).
   Na - Ar     : M. M. Francl, W. J. Pietro, W. J. Hehre, J. S. Binkley, M. S. Gordon, 
                 D. J. DeFrees and J. A. Pople, J. Chem. Phys. 77, 3654 (1982).
   K - Zn      : V. A. Rassolov, J. A. Pople, M. A. Ratner, and T. L. Windus, J. Chem. Phys. 109, 1223 (1998).

================================================================================
                                        WARNINGS
                       Please study these warnings very carefully!
================================================================================


INFO   : the flag for use of LIBINT has been found!

================================================================================
                                       INPUT FILE
================================================================================
NAME = HCN.inp
|  1> ! wB97X 6-31G(d) KDIIS NOSOSCF VerySlowConv Grid4
|  2> %paras
|  3> R= 0.6375,5.1375,46
|  4> end
|  5> * int 0  1
|  6> C 0 0 0 0 0 0
|  7> N 1 0 0 {R} 0 0
|  8> H 1 2 3 1.0584 179.98 0
|  9> *
| 10> 
| 11>                          ****END OF INPUT****
================================================================================

                       ******************************
                       * Parameter Scan Calculation *
                       ******************************

Trajectory settings:
    -> SCF surface will be mapped

There are 1 parameter(s) to be scanned
             R: range=   0.63750000 ..   5.13750000  steps=   46
There will be   46 energy evaluations


         *************************************************************
                                TRAJECTORY STEP   1
                  R  :   0.63750000
         *************************************************************
---------------------------------
CARTESIAN COORDINATES (ANGSTROEM)
---------------------------------
  C      0.000000    0.000000    0.000000
  N      0.637500    0.000000    0.000000
  H     -1.058400    0.000369    0.000000

----------------------------
CARTESIAN COORDINATES (A.U.)
----------------------------
  NO LB      ZA    FRAG     MASS         X           Y           Z
   0 C     6.0000    0    12.011    0.000000    0.000000    0.000000
   1 N     7.0000    0    14.007    1.204700    0.000000    0.000000
   2 H     1.0000    0     1.008   -2.000086    0.000698    0.000000

--------------------------------
INTERNAL COORDINATES (ANGSTROEM)
--------------------------------
 C      0   0   0     0.000000000000     0.00000000     0.00000000
 N      1   0   0     0.637500000000     0.00000000     0.00000000
 H      1   2   3     1.058400000000   179.98000000     0.00000000

---------------------------
INTERNAL COORDINATES (A.U.)
---------------------------
 C      0   0   0     0.000000000000     0.00000000     0.00000000
 N      1   0   0     1.204700410375     0.00000000     0.00000000
 H      1   2   3     2.000086140142   179.98000000     0.00000000

---------------------
BASIS SET INFORMATION
---------------------
There are 3 groups of distinct atoms

 Group   1 Type C   : 10s4p1d contracted to 3s2p1d pattern {631/31/1}
 Group   2 Type N   : 10s4p1d contracted to 3s2p1d pattern {631/31/1}
 Group   3 Type H   : 4s contracted to 2s pattern {31}

Atom   0C    basis set group =>   1
Atom   1N    basis set group =>   2
Atom   2H    basis set group =>   3
------------------------------------------------------------------------------
                           ORCA GTO INTEGRAL CALCULATION
------------------------------------------------------------------------------

                         BASIS SET STATISTICS AND STARTUP INFO

 # of primitive gaussian shells          ...   34
 # of primitive gaussian functions       ...   58
 # of contracted shells                  ...   14
 # of contracted basis functions         ...   30
 Highest angular momentum                ...    2
 Maximum contraction depth               ...    6
 Integral package used                   ... LIBINT
 Integral threshhold            Thresh   ...  1.000e-10
 Primitive cut-off              TCut     ...  1.000e-11


------------------------------ INTEGRAL EVALUATION ----------------------------


 * One electron integrals 
 Pre-screening matrix                    ... done
 Shell pair data                         ... done (   0.000 sec)

-------------------------------------------------------------------------------
                                 ORCA SCF
-------------------------------------------------------------------------------

------------
SCF SETTINGS
------------
Hamiltonian:
 Density Functional     Method          .... DFT(GTOs)
 Exchange Functional    Exchange        .... WB97X
 Correlation Functional Correlation     .... WB97X
 Gradients option       PostSCFGGA      .... off
 Hybrid DFT is turned on
   Fraction HF Exchange ScalHFX         ....  0.157706
   Scaling of DF-GGA-X  ScalDFX         ....  0.000000
   Scaling of DF-GGA-C  ScalDFC         ....  1.000000
   Scaling of DF-LDA-C  ScalLDAC        ....  1.000000
   Perturbative correction              ....  0.000000
   Density functional embedding theory  .... OFF
 Long-range corrected/Screened/Range-Separated Hybrid DFT is turned on
   Amount of maximum screened exact exchange              ....  0.842294
   Range separation parameter mu (erf(mu*r12)/r12)        ....  0.300000


General Settings:
 Integral files         IntName         .... HCN
 Hartree-Fock type      HFTyp           .... RHF
 Total Charge           Charge          ....    0
 Multiplicity           Mult            ....    1
 Number of Electrons    NEL             ....   14
 Basis Dimension        Dim             ....   30
 Nuclear Repulsion      ENuc            ....     40.0475432632 Eh

Convergence Acceleration:
 DIIS                   CNVDIIS         .... on
   Start iteration      DIISMaxIt       ....     0
   Startup error        DIISStart       ....  0.200000
   # of expansion vecs  DIISMaxEq       ....     5
   Bias factor          DIISBfac        ....   1.050
   Max. coefficient     DIISMaxC        ....  10.000
 Newton-Raphson         CNVNR           .... off
 SOSCF                  CNVSOSCF        .... off
 Level Shifting         CNVShift        .... off
 Zerner damping         CNVZerner       .... off
 Static damping         CNVDamp         .... off
 Fernandez-Rico         CNVRico         .... off

SCF Procedure:
 Maximum # iterations   MaxIter         ....   125
 SCF integral mode      SCFMode         .... Direct
   Integral package                     .... LIBINT
 Reset frequency        DirectResetFreq ....    20
 Integral Threshold     Thresh          ....  1.000e-10 Eh
 Primitive CutOff       TCut            ....  1.000e-11 Eh

Convergence Tolerance:
 Convergence Check Mode ConvCheckMode   .... All-Criteria
 Convergence forced     ConvForced      .... 0
 Energy Change          TolE            ....  1.000e-06 Eh
 Max Density Change     TolMaxP         ....  1.000e-05
 RMS Density Change     TolRMSP         ....  1.000e-06
 DIIS Error             TolErr          ....  1.000e-06


Diagonalization of the overlap matrix:
Smallest eigenvalue                        ... 1.831e-03
Time for diagonalization                   ...    0.001 sec
Threshold for overlap eigenvalues          ... 1.000e-08
Number of eigenvalues below threshold      ... 0
Time for construction of square roots      ...    0.000 sec
Total time needed                          ...    0.001 sec

-------------------
DFT GRID GENERATION
-------------------

General Integration Accuracy     IntAcc      ...  4.670
Radial Grid Type                 RadialGrid  ... Gauss-Chebyshev
Angular Grid (max. acc.)         AngularGrid ... Lebedev-302
Angular grid pruning method      GridPruning ... 3 (G Style)
Weight generation scheme         WeightScheme... Becke
Basis function cutoff            BFCut       ...    1.0000e-10
Integration weight cutoff        WCut        ...    1.0000e-14
Grids for H and He will be reduced by one unit

# of grid points (after initial pruning)     ...  15818 (   0.0 sec)
# of grid points (after weights+screening)   ...  15618 (   0.0 sec)
nearest neighbour list constructed           ...    0.0 sec
Grid point re-assignment to atoms done       ...    0.0 sec
Grid point division into batches done        ...    0.1 sec
Reduced shell lists constructed in    0.1 sec

Total number of grid points                  ...    15618
Total number of batches                      ...      245
Average number of points per batch           ...       63
Average number of grid points per atom       ...     5206
Average number of shells per batch           ...    11.30 (80.75%)
Average number of basis functions per batch  ...    24.69 (82.29%)
Average number of large shells per batch     ...    10.61 (93.89%)
Average number of large basis fcns per batch ...    23.38 (94.70%)
Maximum spatial batch extension              ...  19.97, 17.44, 25.05 au
Average spatial batch extension              ...   3.13,  4.06,  4.19 au

Time for grid setup =    0.098 sec

------------------------------
INITIAL GUESS: MODEL POTENTIAL
------------------------------
Loading Hartree-Fock densities                     ... done
Calculating cut-offs                               ... done
Setting up the integral package                    ... done
Initializing the effective Hamiltonian             ... done
Starting the Coulomb interaction                   ... done (   0.0 sec)
Reading the grid                                   ... done
Mapping shells                                     ... done
Starting the XC term evaluation                    ... done (   0.0 sec)
  promolecular density results
     # of electrons  =     13.999492184
     EX              =    -12.207859037
     EC              =     -0.451807492
     EX+EC           =    -12.659666529
Transforming the Hamiltonian                       ... done (   0.0 sec)
Diagonalizing the Hamiltonian                      ... done (   0.0 sec)
Back transforming the eigenvectors                 ... done (   0.0 sec)
Now organizing SCF variables                       ... done
                      ------------------
                      INITIAL GUESS DONE (   0.2 sec)
                      ------------------
--------------
SCF ITERATIONS
--------------
ITER       Energy         Delta-E        Max-DP      RMS-DP      [F,P]   Gradient Norm
               ***  Starting incremental Fock matrix formation  ***
                             ****Resetting KDIIS****
                             ****Turning on KDIIS(Cayley)****
  0    -90.6937048225   0.000000000000 0.06980589  0.00716550  0.1782133   0.244660473
  1    -90.8047082416  -0.111003419061 0.07239661  0.00579180  0.1475689   0.203480922
  2    -90.8962491551  -0.091540913547 0.10490125  0.00922132  0.1164469   0.164143774
  3    -90.9941266974  -0.097877542280 0.15937113  0.01547800  0.0707846   0.101305999
  4    -91.0524731778  -0.058346480341 0.04053626  0.00326642  0.0229638   0.013304975
  5    -91.0540503234  -0.001577145685 0.12940945  0.01038316  0.0159792   0.009270574
  6    -91.0556434603  -0.001593136868 0.02722013  0.00256281  0.0049993   0.003442463
  7    -91.0557862088  -0.000142748482 0.01762211  0.00125391  0.0017093   0.001125613
  8    -91.0558083595  -0.000022150706 0.00111028  0.00007792  0.0001367   0.000090404
                          ***Energy convergence achieved***
  9    -91.0558084551  -0.000000095618 0.00053707  0.00003568  0.0000302   0.000039351

            ***Energy convergence in two consecutive cycles with***
                    ***'reasonable' density convergence***
                       *** signaling convergence ***

                    *** KDIIS BlockDiag ( 2.533 sec) ***

               *****************************************************
               *                     SUCCESS                       *
               *           SCF CONVERGED AFTER  10 CYCLES          *
               *****************************************************

Setting up the final grid:

General Integration Accuracy     IntAcc      ...  5.010
Radial Grid Type                 RadialGrid  ... Gauss-Chebyshev
Angular Grid (max. acc.)         AngularGrid ... Lebedev-434
Angular grid pruning method      GridPruning ... 3 (G Style)
Weight generation scheme         WeightScheme... Becke
Basis function cutoff            BFCut       ...    1.0000e-10
Integration weight cutoff        WCut        ...    1.0000e-14
Grids for H and He will be reduced by one unit

# of grid points (after initial pruning)     ...  27980 (   0.0 sec)
# of grid points (after weights+screening)   ...  27551 (   0.0 sec)
nearest neighbour list constructed           ...    0.0 sec
Grid point re-assignment to atoms done       ...    0.0 sec
Grid point division into batches done        ...    0.2 sec
Reduced shell lists constructed in    0.3 sec

Total number of grid points                  ...    27551
Total number of batches                      ...      432
Average number of points per batch           ...       63
Average number of grid points per atom       ...     9184
Average number of shells per batch           ...    11.07 (79.10%)
Average number of basis functions per batch  ...    24.24 (80.81%)
Average number of large shells per batch     ...    10.36 (93.60%)
Average number of large basis fcns per batch ...    22.84 (94.22%)
Maximum spatial batch extension              ...  17.17, 27.58, 27.58 au
Average spatial batch extension              ...   2.53,  3.39,  3.38 au

Final grid set up in    0.3 sec
Final integration                            ... done (   0.2 sec)
Change in XC energy                          ...    -0.000106373
Integrated number of electrons               ...    14.000000236
Previous integrated no of electrons          ...    13.999997069

----------------
TOTAL SCF ENERGY
----------------

Total Energy       :          -91.05591484 Eh           -2477.75741 eV

Components:
Nuclear Repulsion  :           40.04754326 Eh            1089.74905 eV
Electronic Energy  :         -131.10345811 Eh           -3567.50646 eV
One Electron Energy:         -199.21890982 Eh           -5421.02214 eV
Two Electron Energy:           68.11545172 Eh            1853.51567 eV

Virial components:
Potential Energy   :         -191.15312440 Eh           -5201.54096 eV
Kinetic Energy     :          100.09720956 Eh            2723.78355 eV
Virial Ratio       :            1.90967486


DFT components:
N(Alpha)           :        7.000000118074 electrons
N(Beta)            :        7.000000118074 electrons
N(Total)           :       14.000000236147 electrons
E(XC)              :       -9.611260010864 Eh       
DFET-embed. en.    :        0.000000000000 Eh       

---------------
SCF CONVERGENCE
---------------

  Last Energy change         ...   -1.4264e-08  Tolerance :   1.0000e-06
  Last MAX-Density change    ...    3.3310e-05  Tolerance :   1.0000e-05
  Last RMS-Density change    ...    2.8943e-06  Tolerance :   1.0000e-06
  Last DIIS Error            ...    5.2618e-06  Tolerance :   1.0000e-06

             **** THE GBW FILE WAS UPDATED (HCN.gbw) ****
             **** DENSITY FILE WAS UPDATED (HCN.scfp) ****
             **** ENERGY FILE WAS UPDATED (HCN.en.tmp) ****
             **** THE GBW FILE WAS UPDATED (HCN.gbw) ****
             **** DENSITY FILE WAS UPDATED (HCN.scfp) ****
----------------
ORBITAL ENERGIES
----------------

  NO   OCC          E(Eh)            E(eV) 
   0   2.0000     -14.464850      -393.6086 
   1   2.0000     -10.401338      -283.0348 
   2   2.0000      -1.013832       -27.5878 
   3   2.0000      -0.693562       -18.8728 
   4   2.0000      -0.693562       -18.8728 
   5   2.0000      -0.657623       -17.8948 
   6   2.0000      -0.368490       -10.0271 
   7   0.0000       0.235560         6.4099 
   8   0.0000       0.327460         8.9106 
   9   0.0000       0.327460         8.9106 
  10   0.0000       0.380320        10.3490 
  11   0.0000       0.588288        16.0081 
  12   0.0000       0.588288        16.0081 
  13   0.0000       0.723414        19.6851 
  14   0.0000       0.898607        24.4524 
  15   0.0000       1.083930        29.4952 
  16   0.0000       1.085911        29.5492 
  17   0.0000       1.085912        29.5492 
  18   0.0000       1.532832        41.7105 
  19   0.0000       1.532832        41.7105 
  20   0.0000       1.725926        46.9648 
  21   0.0000       2.281929        62.0944 
  22   0.0000       2.281929        62.0944 
  23   0.0000       2.469557        67.2001 
  24   0.0000       2.469560        67.2001 
  25   0.0000       2.508091        68.2486 
  26   0.0000       3.348820        91.1260 
  27   0.0000       3.724389       101.3458 
  28   0.0000       3.724389       101.3458 
  29   0.0000       8.994383       244.7496 

                    ********************************
                    * MULLIKEN POPULATION ANALYSIS *
                    ********************************

-----------------------
MULLIKEN ATOMIC CHARGES
-----------------------
   0 C :   -0.418069
   1 N :    0.227307
   2 H :    0.190762
Sum of atomic charges:    0.0000000

--------------------------------
MULLIKEN REDUCED ORBITAL CHARGES
--------------------------------
  0 C s       :     3.149177  s :     3.149177
      pz      :     0.944482  p :     3.245665
      px      :     1.356701
      py      :     0.944482
      dz2     :    -0.003422  d :     0.023227
      dxz     :     0.018457
      dyz     :     0.000000
      dx2y2   :    -0.010265
      dxy     :     0.018457
  1 N s       :     3.073543  s :     3.073543
      pz      :     1.002918  p :     3.636769
      px      :     1.630932
      py      :     1.002918
      dz2     :    -0.001476  d :     0.062382
      dxz     :     0.034143
      dyz     :     0.000000
      dx2y2   :    -0.004428
      dxy     :     0.034143
  2 H s       :     0.809238  s :     0.809238


                     *******************************
                     * LOEWDIN POPULATION ANALYSIS *
                     *******************************

----------------------
LOEWDIN ATOMIC CHARGES
----------------------
   0 C :   -0.217988
   1 N :    0.051165
   2 H :    0.166823

-------------------------------
LOEWDIN REDUCED ORBITAL CHARGES
-------------------------------
  0 C s       :     2.842810  s :     2.842810
      pz      :     0.896492  p :     3.149339
      px      :     1.356356
      py      :     0.896492
      dz2     :     0.027460  d :     0.225839
      dxz     :     0.058000
      dyz     :     0.000000
      dx2y2   :     0.082379
      dxy     :     0.058000
  1 N s       :     3.061534  s :     3.061534
      pz      :     0.983839  p :     3.658932
      px      :     1.691254
      py      :     0.983839
      dz2     :     0.026258  d :     0.228369
      dxz     :     0.061669
      dyz     :     0.000000
      dx2y2   :     0.078773
      dxy     :     0.061669
  2 H s       :     0.833177  s :     0.833177


                      *****************************
                      * MAYER POPULATION ANALYSIS *
                      *****************************

  NA   - Mulliken gross atomic population
  ZA   - Total nuclear charge
  QA   - Mulliken gross atomic charge
  VA   - Mayer's total valence
  BVA  - Mayer's bonded valence
  FA   - Mayer's free valence

  ATOM       NA         ZA         QA         VA         BVA        FA
  0 C      6.4181     6.0000    -0.4181     4.5947     4.5947     0.0000
  1 N      6.7727     7.0000     0.2273     3.7164     3.7164     0.0000
  2 H      0.8092     1.0000     0.1908     0.9135     0.9135     0.0000

  Mayer bond orders larger than 0.100000
B(  0-C ,  1-N ) :   3.6988 B(  0-C ,  2-H ) :   0.8959 

-------
TIMINGS
-------

Total SCF time: 0 days 0 hours 0 min 2 sec 

Total time                  ....       2.961 sec
Sum of individual times     ....       2.815 sec  ( 95.1%)

Fock matrix formation       ....       2.328 sec  ( 78.6%)
  XC integration            ....       1.185 sec  ( 50.9% of F)
    Basis function eval.    ....       0.250 sec  ( 21.1% of XC)
    Density eval.           ....       0.083 sec  (  7.0% of XC)
    XC-Functional eval.     ....       0.726 sec  ( 61.3% of XC)
    XC-Potential eval.      ....       0.077 sec  (  6.5% of XC)
Diagonalization             ....       0.004 sec  (  0.1%)
Density matrix formation    ....       0.000 sec  (  0.0%)
Population analysis         ....       0.001 sec  (  0.0%)
Initial guess               ....       0.122 sec  (  4.1%)
Orbital Transformation      ....       0.000 sec  (  0.0%)
Orbital Orthonormalization  ....       0.000 sec  (  0.0%)
DIIS solution               ....       0.000 sec  (  0.0%)
Grid generation             ....       0.361 sec  ( 12.2%)

-------------------------   --------------------
FINAL SINGLE POINT ENERGY       -91.055914842167
-------------------------   --------------------

Storing actual gbw-file in HCN.001.gbw ... done

                            ***************************************
                            *     ORCA property calculations      *
                            ***************************************

                                    ---------------------
                                    Active property flags
                                    ---------------------
   (+) Dipole Moment


------------------------------------------------------------------------------
                       ORCA ELECTRIC PROPERTIES CALCULATION
------------------------------------------------------------------------------

Dipole Moment Calculation                       ... on
Quadrupole Moment Calculation                   ... off
Polarizability Calculation                      ... off
GBWName                                         ... HCN.gbw
Electron density file                           ... HCN.scfp
The origin for moment calculation is the CENTER OF MASS  = ( 0.549773,  0.000026  0.000000)

-------------
DIPOLE MOMENT
-------------
                                X             Y             Z
Electronic contribution:      0.23511      -0.00024       0.00000
Nuclear contribution   :     -1.26400       0.00033       0.00000
                        -----------------------------------------
Total Dipole Moment    :     -1.02889       0.00009       0.00000
                        -----------------------------------------
Magnitude (a.u.)       :      1.02889
Magnitude (Debye)      :      2.61523



--------------------
Rotational spectrum 
--------------------
 
Rotational constants in cm-1: 219596675.783042     3.717836     3.717836 
Rotational constants in MHz : 6583342720162.731445 111457.921174 111457.919287 

 Dipole components along the rotational axes: 
x,y,z [a.u.] :     1.028892    -0.000020     0.000000 
x,y,z [Debye]:     2.615235    -0.000050     0.000000 

 

         *************************************************************
                                TRAJECTORY STEP   2
                  R  :   0.73750000
         *************************************************************
---------------------------------
CARTESIAN COORDINATES (ANGSTROEM)
---------------------------------
  C      0.000000    0.000000    0.000000
  N      0.737500    0.000000    0.000000
  H     -1.058400    0.000369    0.000000

----------------------------
CARTESIAN COORDINATES (A.U.)
----------------------------
  NO LB      ZA    FRAG     MASS         X           Y           Z
   0 C     6.0000    0    12.011    0.000000    0.000000    0.000000
   1 N     7.0000    0    14.007    1.393673    0.000000    0.000000
   2 H     1.0000    0     1.008   -2.000086    0.000698    0.000000

--------------------------------
INTERNAL COORDINATES (ANGSTROEM)
--------------------------------
 C      0   0   0     0.000000000000     0.00000000     0.00000000
 N      1   0   0     0.737500000000     0.00000000     0.00000000
 H      1   2   3     1.058400000000   179.98000000     0.00000000

---------------------------
INTERNAL COORDINATES (A.U.)
---------------------------
 C      0   0   0     0.000000000000     0.00000000     0.00000000
 N      1   0   0     1.393673023767     0.00000000     0.00000000
 H      1   2   3     2.000086140142   179.98000000     0.00000000


Diagonalization of the overlap matrix:
Smallest eigenvalue                        ... 1.922e-03
Time for diagonalization                   ...    0.001 sec
Threshold for overlap eigenvalues          ... 1.000e-08
Number of eigenvalues below threshold      ... 0
Time for construction of square roots      ...    0.000 sec
Total time needed                          ...    0.001 sec

-------------------
DFT GRID GENERATION
-------------------

General Integration Accuracy     IntAcc      ...  4.670
Radial Grid Type                 RadialGrid  ... Gauss-Chebyshev
Angular Grid (max. acc.)         AngularGrid ... Lebedev-302
Angular grid pruning method      GridPruning ... 3 (G Style)
Weight generation scheme         WeightScheme... Becke
Basis function cutoff            BFCut       ...    1.0000e-10
Integration weight cutoff        WCut        ...    1.0000e-14
Grids for H and He will be reduced by one unit

# of grid points (after initial pruning)     ...  15818 (   0.0 sec)
# of grid points (after weights+screening)   ...  15631 (   0.0 sec)
nearest neighbour list constructed           ...    0.0 sec
Grid point re-assignment to atoms done       ...    0.0 sec
Grid point division into batches done        ...    0.1 sec
Reduced shell lists constructed in    0.1 sec

Total number of grid points                  ...    15631
Total number of batches                      ...      245
Average number of points per batch           ...       63
Average number of grid points per atom       ...     5210
Average number of shells per batch           ...    11.28 (80.55%)
Average number of basis functions per batch  ...    24.63 (82.09%)
Average number of large shells per batch     ...    10.57 (93.73%)
Average number of large basis fcns per batch ...    23.28 (94.55%)
Maximum spatial batch extension              ...  19.78, 17.44, 25.05 au
Average spatial batch extension              ...   3.16,  4.06,  4.20 au

Time for grid setup =    0.098 sec

--------------
SCF ITERATIONS
--------------
ITER       Energy         Delta-E        Max-DP      RMS-DP      [F,P]   Gradient Norm
               ***  Starting incremental Fock matrix formation  ***
                             ****Resetting KDIIS****
                             ****Turning on KDIIS(Cayley)****
  0    -92.2230117459   0.000000000000 0.01167643  0.00108134  0.0627746   0.069609519
  1    -92.2279637651  -0.004952019189 0.01913525  0.00181302  0.0562875   0.062602771
  2    -92.2348349638  -0.006871198642 0.02936041  0.00298355  0.0459712   0.050726432
  3    -92.2435721318  -0.008737168024 0.04456040  0.00450883  0.0281642   0.030498981
  4    -92.2485205252  -0.004948393393 0.00072304  0.00007996  0.0004889   0.000457663
  5    -92.2485219519  -0.000001426712 0.00019873  0.00001724  0.0000347   0.000036537
                          ***Energy convergence achieved***
  6    -92.2485219715  -0.000000019637 0.00013182  0.00001024  0.0000133   0.000010762
Warning: badly conditioned DIIS matrix, 1 vectors out of 5 destroyed

            ***Energy convergence in two consecutive cycles with***
                    ***'reasonable' density convergence***
                       *** signaling convergence ***

                    *** KDIIS BlockDiag ( 1.830 sec) ***

               *****************************************************
               *                     SUCCESS                       *
               *           SCF CONVERGED AFTER   7 CYCLES          *
               *****************************************************

Setting up the final grid:

General Integration Accuracy     IntAcc      ...  5.010
Radial Grid Type                 RadialGrid  ... Gauss-Chebyshev
Angular Grid (max. acc.)         AngularGrid ... Lebedev-434
Angular grid pruning method      GridPruning ... 3 (G Style)
Weight generation scheme         WeightScheme... Becke
Basis function cutoff            BFCut       ...    1.0000e-10
Integration weight cutoff        WCut        ...    1.0000e-14
Grids for H and He will be reduced by one unit

# of grid points (after initial pruning)     ...  27980 (   0.0 sec)
# of grid points (after weights+screening)   ...  27573 (   0.0 sec)
nearest neighbour list constructed           ...    0.0 sec
Grid point re-assignment to atoms done       ...    0.0 sec
Grid point division into batches done        ...    0.2 sec
Reduced shell lists constructed in    0.3 sec

Total number of grid points                  ...    27573
Total number of batches                      ...      432
Average number of points per batch           ...       63
Average number of grid points per atom       ...     9191
Average number of shells per batch           ...    10.98 (78.44%)
Average number of basis functions per batch  ...    24.06 (80.19%)
Average number of large shells per batch     ...    10.34 (94.15%)
Average number of large basis fcns per batch ...    22.82 (94.87%)
Maximum spatial batch extension              ...  16.98, 27.58, 27.58 au
Average spatial batch extension              ...   2.52,  3.40,  3.38 au

Final grid set up in    0.3 sec
Final integration                            ... done (   0.2 sec)
Change in XC energy                          ...    -0.000105707
Integrated number of electrons               ...    14.000001271
Previous integrated no of electrons          ...    13.999992181
Total Energy       :          -92.24862768 Eh           -2510.21278 eV
  Last Energy change         ...   -1.9065e-09  Tolerance :   1.0000e-06
  Last MAX-Density change    ...    2.7908e-05  Tolerance :   1.0000e-05
             **** THE GBW FILE WAS UPDATED (HCN.gbw) ****
             **** DENSITY FILE WAS UPDATED (HCN.scfp) ****
             **** ENERGY FILE WAS UPDATED (HCN.en.tmp) ****
             **** THE GBW FILE WAS UPDATED (HCN.gbw) ****
             **** DENSITY FILE WAS UPDATED (HCN.scfp) ****
Total SCF time: 0 days 0 hours 0 min 2 sec 

-------------------------   --------------------
FINAL SINGLE POINT ENERGY       -92.248627680860
-------------------------   --------------------

Storing actual gbw-file in HCN.002.gbw ... done

                            ***************************************
                            *     ORCA property calculations      *
                            ***************************************

                                    ---------------------
                                    Active property flags
                                    ---------------------
   (+) Dipole Moment


------------------------------------------------------------------------------
                       ORCA ELECTRIC PROPERTIES CALCULATION
------------------------------------------------------------------------------

Dipole Moment Calculation                       ... on
Quadrupole Moment Calculation                   ... off
Polarizability Calculation                      ... off
GBWName                                         ... HCN.gbw
Electron density file                           ... HCN.scfp
The origin for moment calculation is the CENTER OF MASS  = ( 0.647713,  0.000026  0.000000)

-------------
DIPOLE MOMENT
-------------
                                X             Y             Z
Electronic contribution:      0.24788      -0.00022       0.00000
Nuclear contribution   :     -1.31236       0.00033       0.00000
                        -----------------------------------------
Total Dipole Moment    :     -1.06448       0.00011       0.00000
                        -----------------------------------------
Magnitude (a.u.)       :      1.06448
Magnitude (Debye)      :      2.70569



--------------------
Rotational spectrum 
--------------------
 
Rotational constants in cm-1: 201657960.792325     3.025081     3.025081 
Rotational constants in MHz : 6045553574119.859375 90689.635825 90689.634465 

 Dipole components along the rotational axes: 
x,y,z [a.u.] :     1.064477     0.000014     0.000000 
x,y,z [Debye]:     2.705685     0.000035     0.000000 

 

         *************************************************************
                                TRAJECTORY STEP   3
                  R  :   0.83750000
         *************************************************************
---------------------------------
CARTESIAN COORDINATES (ANGSTROEM)
---------------------------------
  C      0.000000    0.000000    0.000000
  N      0.837500    0.000000    0.000000
  H     -1.058400    0.000369    0.000000

----------------------------
CARTESIAN COORDINATES (A.U.)
----------------------------
  NO LB      ZA    FRAG     MASS         X           Y           Z
   0 C     6.0000    0    12.011    0.000000    0.000000    0.000000
   1 N     7.0000    0    14.007    1.582646    0.000000    0.000000
   2 H     1.0000    0     1.008   -2.000086    0.000698    0.000000

--------------------------------
INTERNAL COORDINATES (ANGSTROEM)
--------------------------------
 C      0   0   0     0.000000000000     0.00000000     0.00000000
 N      1   0   0     0.837500000000     0.00000000     0.00000000
 H      1   2   3     1.058400000000   179.98000000     0.00000000

---------------------------
INTERNAL COORDINATES (A.U.)
---------------------------
 C      0   0   0     0.000000000000     0.00000000     0.00000000
 N      1   0   0     1.582645637159     0.00000000     0.00000000
 H      1   2   3     2.000086140142   179.98000000     0.00000000


Diagonalization of the overlap matrix:
Smallest eigenvalue                        ... 2.147e-03
Time for diagonalization                   ...    0.001 sec
Threshold for overlap eigenvalues          ... 1.000e-08
Number of eigenvalues below threshold      ... 0
Time for construction of square roots      ...    0.000 sec
Total time needed                          ...    0.001 sec

-------------------
DFT GRID GENERATION
-------------------

General Integration Accuracy     IntAcc      ...  4.670
Radial Grid Type                 RadialGrid  ... Gauss-Chebyshev
Angular Grid (max. acc.)         AngularGrid ... Lebedev-302
Angular grid pruning method      GridPruning ... 3 (G Style)
Weight generation scheme         WeightScheme... Becke
Basis function cutoff            BFCut       ...    1.0000e-10
Integration weight cutoff        WCut        ...    1.0000e-14
Grids for H and He will be reduced by one unit

# of grid points (after initial pruning)     ...  15818 (   0.0 sec)
# of grid points (after weights+screening)   ...  15641 (   0.0 sec)
nearest neighbour list constructed           ...    0.0 sec
Grid point re-assignment to atoms done       ...    0.0 sec
Grid point division into batches done        ...    0.1 sec
Reduced shell lists constructed in    0.1 sec

Total number of grid points                  ...    15641
Total number of batches                      ...      246
Average number of points per batch           ...       63
Average number of grid points per atom       ...     5214
Average number of shells per batch           ...    11.24 (80.31%)
Average number of basis functions per batch  ...    24.59 (81.96%)
Average number of large shells per batch     ...    10.57 (94.06%)
Average number of large basis fcns per batch ...    23.37 (95.04%)
Maximum spatial batch extension              ...  19.74, 17.44, 25.05 au
Average spatial batch extension              ...   3.17,  4.04,  4.12 au

Time for grid setup =    0.097 sec

--------------
SCF ITERATIONS
--------------
ITER       Energy         Delta-E        Max-DP      RMS-DP      [F,P]   Gradient Norm
               ***  Starting incremental Fock matrix formation  ***
                             ****Resetting KDIIS****
                             ****Turning on KDIIS(Cayley)****
  0    -92.8696706422   0.000000000000 0.00772522  0.00083080  0.0535031   0.050364423
  1    -92.8732462802  -0.003575637981 0.01315244  0.00139538  0.0474948   0.044663220
  2    -92.8776518813  -0.004405601101 0.01971600  0.00233666  0.0384946   0.036269490
  3    -92.8831860304  -0.005534149130 0.03092280  0.00370629  0.0238002   0.021933283
  4    -92.8863936883  -0.003207657877 0.00112316  0.00009997  0.0002434   0.000300821
                          ***Energy convergence achieved***
  5    -92.8863944608  -0.000000772527 0.00039328  0.00003056  0.0000544   0.000039745
  6    -92.8863944838  -0.000000022952 0.00016984  0.00001301  0.0000156   0.000011904
Warning: badly conditioned DIIS matrix, 1 vectors out of 5 destroyed

            ***Energy convergence in two consecutive cycles with***
                    ***'reasonable' density convergence***
                       *** signaling convergence ***

                    *** KDIIS BlockDiag ( 1.831 sec) ***

               *****************************************************
               *                     SUCCESS                       *
               *           SCF CONVERGED AFTER   7 CYCLES          *
               *****************************************************

Setting up the final grid:

General Integration Accuracy     IntAcc      ...  5.010
Radial Grid Type                 RadialGrid  ... Gauss-Chebyshev
Angular Grid (max. acc.)         AngularGrid ... Lebedev-434
Angular grid pruning method      GridPruning ... 3 (G Style)
Weight generation scheme         WeightScheme... Becke
Basis function cutoff            BFCut       ...    1.0000e-10
Integration weight cutoff        WCut        ...    1.0000e-14
Grids for H and He will be reduced by one unit

# of grid points (after initial pruning)     ...  27980 (   0.0 sec)
# of grid points (after weights+screening)   ...  27596 (   0.0 sec)
nearest neighbour list constructed           ...    0.0 sec
Grid point re-assignment to atoms done       ...    0.0 sec
Grid point division into batches done        ...    0.2 sec
Reduced shell lists constructed in    0.3 sec

Total number of grid points                  ...    27596
Total number of batches                      ...      433
Average number of points per batch           ...       63
Average number of grid points per atom       ...     9199
Average number of shells per batch           ...    10.99 (78.49%)
Average number of basis functions per batch  ...    24.10 (80.33%)
Average number of large shells per batch     ...    10.30 (93.77%)
Average number of large basis fcns per batch ...    22.72 (94.29%)
Maximum spatial batch extension              ...  16.79, 27.58, 27.58 au
Average spatial batch extension              ...   2.69,  3.36,  3.29 au

Final grid set up in    0.3 sec
Final integration                            ... done (   0.2 sec)
Change in XC energy                          ...    -0.000115070
Integrated number of electrons               ...    14.000002496
Previous integrated no of electrons          ...    13.999998117
Total Energy       :          -92.88650956 Eh           -2527.57042 eV
  Last Energy change         ...   -2.0398e-09  Tolerance :   1.0000e-06
  Last MAX-Density change    ...    2.0552e-05  Tolerance :   1.0000e-05
             **** THE GBW FILE WAS UPDATED (HCN.gbw) ****
             **** DENSITY FILE WAS UPDATED (HCN.scfp) ****
             **** ENERGY FILE WAS UPDATED (HCN.en.tmp) ****
             **** THE GBW FILE WAS UPDATED (HCN.gbw) ****
             **** DENSITY FILE WAS UPDATED (HCN.scfp) ****
Total SCF time: 0 days 0 hours 0 min 2 sec 

-------------------------   --------------------
FINAL SINGLE POINT ENERGY       -92.886509555586
-------------------------   --------------------

Storing actual gbw-file in HCN.003.gbw ... done

                            ***************************************
                            *     ORCA property calculations      *
                            ***************************************

                                    ---------------------
                                    Active property flags
                                    ---------------------
   (+) Dipole Moment


------------------------------------------------------------------------------
                       ORCA ELECTRIC PROPERTIES CALCULATION
------------------------------------------------------------------------------

Dipole Moment Calculation                       ... on
Quadrupole Moment Calculation                   ... off
Polarizability Calculation                      ... off
GBWName                                         ... HCN.gbw
Electron density file                           ... HCN.scfp
The origin for moment calculation is the CENTER OF MASS  = ( 0.745653,  0.000026  0.000000)

-------------
DIPOLE MOMENT
-------------
                                X             Y             Z
Electronic contribution:      0.25828      -0.00020      -0.00000
Nuclear contribution   :     -1.36072       0.00033       0.00000
                        -----------------------------------------
Total Dipole Moment    :     -1.10244       0.00013      -0.00000
                        -----------------------------------------
Magnitude (a.u.)       :      1.10244
Magnitude (Debye)      :      2.80218



--------------------
Rotational spectrum 
--------------------
 
Rotational constants in cm-1: 189300745.284883     2.498932     2.498932 
Rotational constants in MHz : 5675093573018.701172 74916.093537 74916.092548 

 Dipole components along the rotational axes: 
x,y,z [a.u.] :     1.102440     0.000043    -0.000000 
x,y,z [Debye]:     2.802179     0.000110    -0.000000 

 

         *************************************************************
                                TRAJECTORY STEP   4
                  R  :   0.93750000
         *************************************************************
---------------------------------
CARTESIAN COORDINATES (ANGSTROEM)
---------------------------------
  C      0.000000    0.000000    0.000000
  N      0.937500    0.000000    0.000000
  H     -1.058400    0.000369    0.000000

----------------------------
CARTESIAN COORDINATES (A.U.)
----------------------------
  NO LB      ZA    FRAG     MASS         X           Y           Z
   0 C     6.0000    0    12.011    0.000000    0.000000    0.000000
   1 N     7.0000    0    14.007    1.771618    0.000000    0.000000
   2 H     1.0000    0     1.008   -2.000086    0.000698    0.000000

--------------------------------
INTERNAL COORDINATES (ANGSTROEM)
--------------------------------
 C      0   0   0     0.000000000000     0.00000000     0.00000000
 N      1   0   0     0.937500000000     0.00000000     0.00000000
 H      1   2   3     1.058400000000   179.98000000     0.00000000

---------------------------
INTERNAL COORDINATES (A.U.)
---------------------------
 C      0   0   0     0.000000000000     0.00000000     0.00000000
 N      1   0   0     1.771618250551     0.00000000     0.00000000
 H      1   2   3     2.000086140142   179.98000000     0.00000000


Diagonalization of the overlap matrix:
Smallest eigenvalue                        ... 2.544e-03
Time for diagonalization                   ...    0.001 sec
Threshold for overlap eigenvalues          ... 1.000e-08
Number of eigenvalues below threshold      ... 0
Time for construction of square roots      ...    0.000 sec
Total time needed                          ...    0.001 sec

-------------------
DFT GRID GENERATION
-------------------

General Integration Accuracy     IntAcc      ...  4.670
Radial Grid Type                 RadialGrid  ... Gauss-Chebyshev
Angular Grid (max. acc.)         AngularGrid ... Lebedev-302
Angular grid pruning method      GridPruning ... 3 (G Style)
Weight generation scheme         WeightScheme... Becke
Basis function cutoff            BFCut       ...    1.0000e-10
Integration weight cutoff        WCut        ...    1.0000e-14
Grids for H and He will be reduced by one unit

# of grid points (after initial pruning)     ...  15818 (   0.0 sec)
# of grid points (after weights+screening)   ...  15647 (   0.0 sec)
nearest neighbour list constructed           ...    0.0 sec
Grid point re-assignment to atoms done       ...    0.0 sec
Grid point division into batches done        ...    0.1 sec
Reduced shell lists constructed in    0.1 sec

Total number of grid points                  ...    15647
Total number of batches                      ...      246
Average number of points per batch           ...       63
Average number of grid points per atom       ...     5216
Average number of shells per batch           ...    11.23 (80.22%)
Average number of basis functions per batch  ...    24.55 (81.84%)
Average number of large shells per batch     ...    10.48 (93.29%)
Average number of large basis fcns per batch ...    23.11 (94.13%)
Maximum spatial batch extension              ...  19.92, 17.35, 25.05 au
Average spatial batch extension              ...   3.14,  4.04,  4.12 au

Time for grid setup =    0.097 sec

--------------
SCF ITERATIONS
--------------
ITER       Energy         Delta-E        Max-DP      RMS-DP      [F,P]   Gradient Norm
               ***  Starting incremental Fock matrix formation  ***
                             ****Resetting KDIIS****
                             ****Turning on KDIIS(Cayley)****
  0    -93.1952020034   0.000000000000 0.00665120  0.00067488  0.0426054   0.041540103
  1    -93.1979440606  -0.002742057137 0.01274310  0.00117329  0.0377042   0.036492979
  2    -93.2011799150  -0.003235854397 0.02265579  0.00202955  0.0303207   0.029684900
  3    -93.2052092643  -0.004029349309 0.04255380  0.00345530  0.0189126   0.018036681
  4    -93.2076150911  -0.002405826776 0.00162446  0.00012327  0.0002018   0.000212186
                          ***Energy convergence achieved***
  5    -93.2076155791  -0.000000488068 0.00025377  0.00001890  0.0000357   0.000031828

            ***Energy convergence in two consecutive cycles with***
                    ***'reasonable' density convergence***
                       *** signaling convergence ***

                    *** KDIIS BlockDiag ( 1.640 sec) ***

               *****************************************************
               *                     SUCCESS                       *
               *           SCF CONVERGED AFTER   6 CYCLES          *
               *****************************************************

Setting up the final grid:

General Integration Accuracy     IntAcc      ...  5.010
Radial Grid Type                 RadialGrid  ... Gauss-Chebyshev
Angular Grid (max. acc.)         AngularGrid ... Lebedev-434
Angular grid pruning method      GridPruning ... 3 (G Style)
Weight generation scheme         WeightScheme... Becke
Basis function cutoff            BFCut       ...    1.0000e-10
Integration weight cutoff        WCut        ...    1.0000e-14
Grids for H and He will be reduced by one unit

# of grid points (after initial pruning)     ...  27980 (   0.0 sec)
# of grid points (after weights+screening)   ...  27626 (   0.0 sec)
nearest neighbour list constructed           ...    0.0 sec
Grid point re-assignment to atoms done       ...    0.0 sec
Grid point division into batches done        ...    0.2 sec
Reduced shell lists constructed in    0.3 sec

Total number of grid points                  ...    27626
Total number of batches                      ...      434
Average number of points per batch           ...       63
Average number of grid points per atom       ...     9209
Average number of shells per batch           ...    11.00 (78.57%)
Average number of basis functions per batch  ...    24.10 (80.33%)
Average number of large shells per batch     ...    10.22 (92.89%)
Average number of large basis fcns per batch ...    22.59 (93.74%)
Maximum spatial batch extension              ...  16.60, 27.58, 27.58 au
Average spatial batch extension              ...   2.65,  3.35,  3.29 au

Final grid set up in    0.3 sec
Final integration                            ... done (   0.2 sec)
Change in XC energy                          ...    -0.000099163
Integrated number of electrons               ...    14.000000527
Previous integrated no of electrons          ...    14.000008343
Total Energy       :          -93.20771475 Eh           -2536.31086 eV
  Last Energy change         ...   -1.2508e-08  Tolerance :   1.0000e-06
  Last MAX-Density change    ...    8.5444e-05  Tolerance :   1.0000e-05
             **** THE GBW FILE WAS UPDATED (HCN.gbw) ****
             **** DENSITY FILE WAS UPDATED (HCN.scfp) ****
             **** ENERGY FILE WAS UPDATED (HCN.en.tmp) ****
             **** THE GBW FILE WAS UPDATED (HCN.gbw) ****
             **** DENSITY FILE WAS UPDATED (HCN.scfp) ****
Total SCF time: 0 days 0 hours 0 min 2 sec 

-------------------------   --------------------
FINAL SINGLE POINT ENERGY       -93.207714754789
-------------------------   --------------------

Storing actual gbw-file in HCN.004.gbw ... done

                            ***************************************
                            *     ORCA property calculations      *
                            ***************************************

                                    ---------------------
                                    Active property flags
                                    ---------------------
   (+) Dipole Moment


------------------------------------------------------------------------------
                       ORCA ELECTRIC PROPERTIES CALCULATION
------------------------------------------------------------------------------

Dipole Moment Calculation                       ... on
Quadrupole Moment Calculation                   ... off
Polarizability Calculation                      ... off
GBWName                                         ... HCN.gbw
Electron density file                           ... HCN.scfp
The origin for moment calculation is the CENTER OF MASS  = ( 0.843594,  0.000026  0.000000)

-------------
DIPOLE MOMENT
-------------
                                X             Y             Z
Electronic contribution:      0.27609      -0.00019       0.00000
Nuclear contribution   :     -1.40907       0.00033       0.00000
                        -----------------------------------------
Total Dipole Moment    :     -1.13298       0.00015       0.00000
                        -----------------------------------------
Magnitude (a.u.)       :      1.13298
Magnitude (Debye)      :      2.87982



--------------------
Rotational spectrum 
--------------------
 
Rotational constants in cm-1: 180368001.043199     2.093025     2.093025 
Rotational constants in MHz : 5407296637728.723633 62747.298627 62747.297899 

 Dipole components along the rotational axes: 
x,y,z [a.u.] :     1.132984     0.000069     0.000000 
x,y,z [Debye]:     2.879818     0.000175     0.000000 

 

         *************************************************************
                                TRAJECTORY STEP   5
                  R  :   1.03750000
         *************************************************************
---------------------------------
CARTESIAN COORDINATES (ANGSTROEM)
---------------------------------
  C      0.000000    0.000000    0.000000
  N      1.037500    0.000000    0.000000
  H     -1.058400    0.000369    0.000000

----------------------------
CARTESIAN COORDINATES (A.U.)
----------------------------
  NO LB      ZA    FRAG     MASS         X           Y           Z
   0 C     6.0000    0    12.011    0.000000    0.000000    0.000000
   1 N     7.0000    0    14.007    1.960591    0.000000    0.000000
   2 H     1.0000    0     1.008   -2.000086    0.000698    0.000000

--------------------------------
INTERNAL COORDINATES (ANGSTROEM)
--------------------------------
 C      0   0   0     0.000000000000     0.00000000     0.00000000
 N      1   0   0     1.037500000000     0.00000000     0.00000000
 H      1   2   3     1.058400000000   179.98000000     0.00000000

---------------------------
INTERNAL COORDINATES (A.U.)
---------------------------
 C      0   0   0     0.000000000000     0.00000000     0.00000000
 N      1   0   0     1.960590863943     0.00000000     0.00000000
 H      1   2   3     2.000086140142   179.98000000     0.00000000


Diagonalization of the overlap matrix:
Smallest eigenvalue                        ... 3.171e-03
Time for diagonalization                   ...    0.001 sec
Threshold for overlap eigenvalues          ... 1.000e-08
Number of eigenvalues below threshold      ... 0
Time for construction of square roots      ...    0.000 sec
Total time needed                          ...    0.001 sec

-------------------
DFT GRID GENERATION
-------------------

General Integration Accuracy     IntAcc      ...  4.670
Radial Grid Type                 RadialGrid  ... Gauss-Chebyshev
Angular Grid (max. acc.)         AngularGrid ... Lebedev-302
Angular grid pruning method      GridPruning ... 3 (G Style)
Weight generation scheme         WeightScheme... Becke
Basis function cutoff            BFCut       ...    1.0000e-10
Integration weight cutoff        WCut        ...    1.0000e-14
Grids for H and He will be reduced by one unit

# of grid points (after initial pruning)     ...  15818 (   0.0 sec)
# of grid points (after weights+screening)   ...  15648 (   0.0 sec)
nearest neighbour list constructed           ...    0.0 sec
Grid point re-assignment to atoms done       ...    0.0 sec
Grid point division into batches done        ...    0.1 sec
Reduced shell lists constructed in    0.1 sec

Total number of grid points                  ...    15648
Total number of batches                      ...      246
Average number of points per batch           ...       63
Average number of grid points per atom       ...     5216
Average number of shells per batch           ...    11.21 (80.10%)
Average number of basis functions per batch  ...    24.55 (81.84%)
Average number of large shells per batch     ...    10.38 (92.60%)
Average number of large basis fcns per batch ...    22.94 (93.45%)
Maximum spatial batch extension              ...  20.11, 17.35, 25.05 au
Average spatial batch extension              ...   3.19,  4.06,  4.16 au

Time for grid setup =    0.097 sec

--------------
SCF ITERATIONS
--------------
ITER       Energy         Delta-E        Max-DP      RMS-DP      [F,P]   Gradient Norm
               ***  Starting incremental Fock matrix formation  ***
                             ****Resetting KDIIS****
                             ****Turning on KDIIS(Cayley)****
  0    -93.3398853207   0.000000000000 0.00792815  0.00063188  0.0348869   0.035849521
  1    -93.3419591593  -0.002073838652 0.01527708  0.00114432  0.0309090   0.031441603
  2    -93.3444184357  -0.002459276410 0.02760314  0.00204804  0.0246514   0.025633953
  3    -93.3474850137  -0.003066577953 0.05196417  0.00362471  0.0155141   0.015654175
  4    -93.3493744879  -0.001889474265 0.00146942  0.00011077  0.0002012   0.000184208
                          ***Energy convergence achieved***
  5    -93.3493749184  -0.000000430447 0.00012331  0.00000847  0.0000328   0.000026697

            ***Energy convergence in two consecutive cycles with***
                    ***'reasonable' density convergence***
                       *** signaling convergence ***

                    *** KDIIS BlockDiag ( 1.649 sec) ***

               *****************************************************
               *                     SUCCESS                       *
               *           SCF CONVERGED AFTER   6 CYCLES          *
               *****************************************************

Setting up the final grid:

General Integration Accuracy     IntAcc      ...  5.010
Radial Grid Type                 RadialGrid  ... Gauss-Chebyshev
Angular Grid (max. acc.)         AngularGrid ... Lebedev-434
Angular grid pruning method      GridPruning ... 3 (G Style)
Weight generation scheme         WeightScheme... Becke
Basis function cutoff            BFCut       ...    1.0000e-10
Integration weight cutoff        WCut        ...    1.0000e-14
Grids for H and He will be reduced by one unit

# of grid points (after initial pruning)     ...  27980 (   0.0 sec)
# of grid points (after weights+screening)   ...  27643 (   0.0 sec)
nearest neighbour list constructed           ...    0.0 sec
Grid point re-assignment to atoms done       ...    0.0 sec
Grid point division into batches done        ...    0.2 sec
Reduced shell lists constructed in    0.3 sec

Total number of grid points                  ...    27643
Total number of batches                      ...      434
Average number of points per batch           ...       63
Average number of grid points per atom       ...     9214
Average number of shells per batch           ...    10.98 (78.46%)
Average number of basis functions per batch  ...    24.07 (80.23%)
Average number of large shells per batch     ...    10.10 (91.98%)
Average number of large basis fcns per batch ...    22.40 (93.06%)
Maximum spatial batch extension              ...  16.41, 27.58, 27.58 au
Average spatial batch extension              ...   2.66,  3.34,  3.30 au

Final grid set up in    0.3 sec
Final integration                            ... done (   0.2 sec)
Change in XC energy                          ...    -0.000126571
Integrated number of electrons               ...    13.999998148
Previous integrated no of electrons          ...    13.999997933
Total Energy       :          -93.34950150 Eh           -2540.16908 eV
  Last Energy change         ...   -7.7135e-09  Tolerance :   1.0000e-06
  Last MAX-Density change    ...    2.7469e-05  Tolerance :   1.0000e-05
             **** THE GBW FILE WAS UPDATED (HCN.gbw) ****
             **** DENSITY FILE WAS UPDATED (HCN.scfp) ****
             **** ENERGY FILE WAS UPDATED (HCN.en.tmp) ****
             **** THE GBW FILE WAS UPDATED (HCN.gbw) ****
             **** DENSITY FILE WAS UPDATED (HCN.scfp) ****
Total SCF time: 0 days 0 hours 0 min 2 sec 

-------------------------   --------------------
FINAL SINGLE POINT ENERGY       -93.349501496816
-------------------------   --------------------

Storing actual gbw-file in HCN.005.gbw ... done

                            ***************************************
                            *     ORCA property calculations      *
                            ***************************************

                                    ---------------------
                                    Active property flags
                                    ---------------------
   (+) Dipole Moment


------------------------------------------------------------------------------
                       ORCA ELECTRIC PROPERTIES CALCULATION
------------------------------------------------------------------------------

Dipole Moment Calculation                       ... on
Quadrupole Moment Calculation                   ... off
Polarizability Calculation                      ... off
GBWName                                         ... HCN.gbw
Electron density file                           ... HCN.scfp
The origin for moment calculation is the CENTER OF MASS  = ( 0.941534,  0.000026  0.000000)

-------------
DIPOLE MOMENT
-------------
                                X             Y             Z
Electronic contribution:      0.30365      -0.00017       0.00000
Nuclear contribution   :     -1.45743       0.00033       0.00000
                        -----------------------------------------
Total Dipole Moment    :     -1.15378       0.00016       0.00000
                        -----------------------------------------
Magnitude (a.u.)       :      1.15378
Magnitude (Debye)      :      2.93268



--------------------
Rotational spectrum 
--------------------
 
Rotational constants in cm-1: 173663556.733887     1.774972     1.774972 
Rotational constants in MHz : 5206302453827.434570 53212.317816 53212.317272 

 Dipole components along the rotational axes: 
x,y,z [a.u.] :     1.153781     0.000091     0.000000 
x,y,z [Debye]:     2.932679     0.000232     0.000000 

 

         *************************************************************
                                TRAJECTORY STEP   6
                  R  :   1.13750000
         *************************************************************
---------------------------------
CARTESIAN COORDINATES (ANGSTROEM)
---------------------------------
  C      0.000000    0.000000    0.000000
  N      1.137500    0.000000    0.000000
  H     -1.058400    0.000369    0.000000

----------------------------
CARTESIAN COORDINATES (A.U.)
----------------------------
  NO LB      ZA    FRAG     MASS         X           Y           Z
   0 C     6.0000    0    12.011    0.000000    0.000000    0.000000
   1 N     7.0000    0    14.007    2.149563    0.000000    0.000000
   2 H     1.0000    0     1.008   -2.000086    0.000698    0.000000

--------------------------------
INTERNAL COORDINATES (ANGSTROEM)
--------------------------------
 C      0   0   0     0.000000000000     0.00000000     0.00000000
 N      1   0   0     1.137500000000     0.00000000     0.00000000
 H      1   2   3     1.058400000000   179.98000000     0.00000000

---------------------------
INTERNAL COORDINATES (A.U.)
---------------------------
 C      0   0   0     0.000000000000     0.00000000     0.00000000
 N      1   0   0     2.149563477335     0.00000000     0.00000000
 H      1   2   3     2.000086140142   179.98000000     0.00000000


Diagonalization of the overlap matrix:
Smallest eigenvalue                        ... 4.109e-03
Time for diagonalization                   ...    0.001 sec
Threshold for overlap eigenvalues          ... 1.000e-08
Number of eigenvalues below threshold      ... 0
Time for construction of square roots      ...    0.000 sec
Total time needed                          ...    0.001 sec

-------------------
DFT GRID GENERATION
-------------------

General Integration Accuracy     IntAcc      ...  4.670
Radial Grid Type                 RadialGrid  ... Gauss-Chebyshev
Angular Grid (max. acc.)         AngularGrid ... Lebedev-302
Angular grid pruning method      GridPruning ... 3 (G Style)
Weight generation scheme         WeightScheme... Becke
Basis function cutoff            BFCut       ...    1.0000e-10
Integration weight cutoff        WCut        ...    1.0000e-14
Grids for H and He will be reduced by one unit

# of grid points (after initial pruning)     ...  15818 (   0.0 sec)
# of grid points (after weights+screening)   ...  15665 (   0.0 sec)
nearest neighbour list constructed           ...    0.0 sec
Grid point re-assignment to atoms done       ...    0.0 sec
Grid point division into batches done        ...    0.1 sec
Reduced shell lists constructed in    0.1 sec

Total number of grid points                  ...    15665
Total number of batches                      ...      246
Average number of points per batch           ...       63
Average number of grid points per atom       ...     5222
Average number of shells per batch           ...    11.18 (79.84%)
Average number of basis functions per batch  ...    24.51 (81.71%)
Average number of large shells per batch     ...    10.21 (91.38%)
Average number of large basis fcns per batch ...    22.62 (92.27%)
Maximum spatial batch extension              ...  19.69, 20.53, 25.05 au
Average spatial batch extension              ...   3.17,  4.13,  4.20 au

Time for grid setup =    0.097 sec

--------------
SCF ITERATIONS
--------------
ITER       Energy         Delta-E        Max-DP      RMS-DP      [F,P]   Gradient Norm
               ***  Starting incremental Fock matrix formation  ***
                             ****Resetting KDIIS****
                             ****Turning on KDIIS(Cayley)****
  0    -93.3832588703   0.000000000000 0.00783272  0.00059305  0.0275250   0.030352186
  1    -93.3847848997  -0.001526029405 0.01563000  0.00111751  0.0244645   0.026685357
  2    -93.3866604787  -0.001875578951 0.02845890  0.00203135  0.0193421   0.021817259
  3    -93.3890206142  -0.002360135559 0.05265447  0.00364174  0.0122910   0.013403962
  4    -93.3905224465  -0.001501832308 0.00109359  0.00009326  0.0001940   0.000189374
                          ***Energy convergence achieved***
  5    -93.3905229688  -0.000000522305 0.00006511  0.00000630  0.0000372   0.000033278

            ***Energy convergence in two consecutive cycles with***
                    ***'reasonable' density convergence***
                       *** signaling convergence ***

                    *** KDIIS BlockDiag ( 1.645 sec) ***

               *****************************************************
               *                     SUCCESS                       *
               *           SCF CONVERGED AFTER   6 CYCLES          *
               *****************************************************

Setting up the final grid:

General Integration Accuracy     IntAcc      ...  5.010
Radial Grid Type                 RadialGrid  ... Gauss-Chebyshev
Angular Grid (max. acc.)         AngularGrid ... Lebedev-434
Angular grid pruning method      GridPruning ... 3 (G Style)
Weight generation scheme         WeightScheme... Becke
Basis function cutoff            BFCut       ...    1.0000e-10
Integration weight cutoff        WCut        ...    1.0000e-14
Grids for H and He will be reduced by one unit

# of grid points (after initial pruning)     ...  27980 (   0.0 sec)
# of grid points (after weights+screening)   ...  27656 (   0.0 sec)
nearest neighbour list constructed           ...    0.0 sec
Grid point re-assignment to atoms done       ...    0.0 sec
Grid point division into batches done        ...    0.2 sec
Reduced shell lists constructed in    0.3 sec

Total number of grid points                  ...    27656
Total number of batches                      ...      434
Average number of points per batch           ...       63
Average number of grid points per atom       ...     9219
Average number of shells per batch           ...    10.94 (78.13%)
Average number of basis functions per batch  ...    24.03 (80.11%)
Average number of large shells per batch     ...     9.96 (91.09%)
Average number of large basis fcns per batch ...    22.18 (92.29%)
Maximum spatial batch extension              ...  16.25, 27.58, 27.58 au
Average spatial batch extension              ...   2.68,  3.35,  3.29 au

Final grid set up in    0.3 sec
Final integration                            ... done (   0.2 sec)
Change in XC energy                          ...    -0.000262025
Integrated number of electrons               ...    14.000000699
Previous integrated no of electrons          ...    13.999997754
Total Energy       :          -93.39078501 Eh           -2541.29246 eV
  Last Energy change         ...   -1.2334e-08  Tolerance :   1.0000e-06
  Last MAX-Density change    ...    1.6954e-05  Tolerance :   1.0000e-05
             **** THE GBW FILE WAS UPDATED (HCN.gbw) ****
             **** DENSITY FILE WAS UPDATED (HCN.scfp) ****
             **** ENERGY FILE WAS UPDATED (HCN.en.tmp) ****
             **** THE GBW FILE WAS UPDATED (HCN.gbw) ****
             **** DENSITY FILE WAS UPDATED (HCN.scfp) ****
Total SCF time: 0 days 0 hours 0 min 2 sec 

-------------------------   --------------------
FINAL SINGLE POINT ENERGY       -93.390785006318
-------------------------   --------------------

Storing actual gbw-file in HCN.006.gbw ... done

                            ***************************************
                            *     ORCA property calculations      *
                            ***************************************

                                    ---------------------
                                    Active property flags
                                    ---------------------
   (+) Dipole Moment


------------------------------------------------------------------------------
                       ORCA ELECTRIC PROPERTIES CALCULATION
------------------------------------------------------------------------------

Dipole Moment Calculation                       ... on
Quadrupole Moment Calculation                   ... off
Polarizability Calculation                      ... off
GBWName                                         ... HCN.gbw
Electron density file                           ... HCN.scfp
The origin for moment calculation is the CENTER OF MASS  = ( 1.039475,  0.000026  0.000000)

-------------
DIPOLE MOMENT
-------------
                                X             Y             Z
Electronic contribution:      0.34012      -0.00016       0.00000
Nuclear contribution   :     -1.50579       0.00033       0.00000
                        -----------------------------------------
Total Dipole Moment    :     -1.16567       0.00017       0.00000
                        -----------------------------------------
Magnitude (a.u.)       :      1.16567
Magnitude (Debye)      :      2.96290



--------------------
Rotational spectrum 
--------------------
 
Rotational constants in cm-1: 168477932.010169     1.522056     1.522056 
Rotational constants in MHz : 5050841335608.534180 45630.081522 45630.081109 

 Dipole components along the rotational axes: 
x,y,z [a.u.] :     1.165670     0.000112     0.000000 
x,y,z [Debye]:     2.962897     0.000284     0.000000 

 

         *************************************************************
                                TRAJECTORY STEP   7
                  R  :   1.23750000
         *************************************************************
---------------------------------
CARTESIAN COORDINATES (ANGSTROEM)
---------------------------------
  C      0.000000    0.000000    0.000000
  N      1.237500    0.000000    0.000000
  H     -1.058400    0.000369    0.000000

----------------------------
CARTESIAN COORDINATES (A.U.)
----------------------------
  NO LB      ZA    FRAG     MASS         X           Y           Z
   0 C     6.0000    0    12.011    0.000000    0.000000    0.000000
   1 N     7.0000    0    14.007    2.338536    0.000000    0.000000
   2 H     1.0000    0     1.008   -2.000086    0.000698    0.000000

--------------------------------
INTERNAL COORDINATES (ANGSTROEM)
--------------------------------
 C      0   0   0     0.000000000000     0.00000000     0.00000000
 N      1   0   0     1.237500000000     0.00000000     0.00000000
 H      1   2   3     1.058400000000   179.98000000     0.00000000

---------------------------
INTERNAL COORDINATES (A.U.)
---------------------------
 C      0   0   0     0.000000000000     0.00000000     0.00000000
 N      1   0   0     2.338536090728     0.00000000     0.00000000
 H      1   2   3     2.000086140142   179.98000000     0.00000000


Diagonalization of the overlap matrix:
Smallest eigenvalue                        ... 5.455e-03
Time for diagonalization                   ...    0.001 sec
Threshold for overlap eigenvalues          ... 1.000e-08
Number of eigenvalues below threshold      ... 0
Time for construction of square roots      ...    0.000 sec
Total time needed                          ...    0.001 sec

-------------------
DFT GRID GENERATION
-------------------

General Integration Accuracy     IntAcc      ...  4.670
Radial Grid Type                 RadialGrid  ... Gauss-Chebyshev
Angular Grid (max. acc.)         AngularGrid ... Lebedev-302
Angular grid pruning method      GridPruning ... 3 (G Style)
Weight generation scheme         WeightScheme... Becke
Basis function cutoff            BFCut       ...    1.0000e-10
Integration weight cutoff        WCut        ...    1.0000e-14
Grids for H and He will be reduced by one unit

# of grid points (after initial pruning)     ...  15818 (   0.0 sec)
# of grid points (after weights+screening)   ...  15666 (   0.0 sec)
nearest neighbour list constructed           ...    0.0 sec
Grid point re-assignment to atoms done       ...    0.0 sec
Grid point division into batches done        ...    0.1 sec
Reduced shell lists constructed in    0.1 sec

Total number of grid points                  ...    15666
Total number of batches                      ...      246
Average number of points per batch           ...       63
Average number of grid points per atom       ...     5222
Average number of shells per batch           ...    11.17 (79.76%)
Average number of basis functions per batch  ...    24.52 (81.73%)
Average number of large shells per batch     ...    10.13 (90.68%)
Average number of large basis fcns per batch ...    22.46 (91.60%)
Maximum spatial batch extension              ...  19.69, 20.64, 25.05 au
Average spatial batch extension              ...   3.18,  4.18,  4.22 au

Time for grid setup =    0.097 sec

--------------
SCF ITERATIONS
--------------
ITER       Energy         Delta-E        Max-DP      RMS-DP      [F,P]   Gradient Norm
               ***  Starting incremental Fock matrix formation  ***
                             ****Resetting KDIIS****
                             ****Turning on KDIIS(Cayley)****
  0    -93.3710498915   0.000000000000 0.00635050  0.00051918  0.0216781   0.025369647
  1    -93.3721533180  -0.001103426467 0.01229424  0.00097917  0.0193267   0.022418698
  2    -93.3735828428  -0.001429524757 0.02315016  0.00181049  0.0151686   0.018388706
  3    -93.3754103042  -0.001827461406 0.04296881  0.00328561  0.0097379   0.011376486
  4    -93.3766110675  -0.001200763292 0.00081125  0.00008254  0.0002266   0.000215116
                          ***Energy convergence achieved***
  5    -93.3766118460  -0.000000778542 0.00007420  0.00000913  0.0000580   0.000047230

[...]


Diagonalization of the overlap matrix:
Smallest eigenvalue                        ... 4.240e-02
Time for diagonalization                   ...    0.001 sec
Threshold for overlap eigenvalues          ... 1.000e-08
Number of eigenvalues below threshold      ... 0
Time for construction of square roots      ...    0.000 sec
Total time needed                          ...    0.001 sec

-------------------
DFT GRID GENERATION
-------------------

General Integration Accuracy     IntAcc      ...  4.670
Radial Grid Type                 RadialGrid  ... Gauss-Chebyshev
Angular Grid (max. acc.)         AngularGrid ... Lebedev-302
Angular grid pruning method      GridPruning ... 3 (G Style)
Weight generation scheme         WeightScheme... Becke
Basis function cutoff            BFCut       ...    1.0000e-10
Integration weight cutoff        WCut        ...    1.0000e-14
Grids for H and He will be reduced by one unit

# of grid points (after initial pruning)     ...  15818 (   0.0 sec)
# of grid points (after weights+screening)   ...  15759 (   0.0 sec)
nearest neighbour list constructed           ...    0.0 sec
Grid point re-assignment to atoms done       ...    0.0 sec
Grid point division into batches done        ...    0.1 sec
Reduced shell lists constructed in    0.1 sec

Total number of grid points                  ...    15759
Total number of batches                      ...      248
Average number of points per batch           ...       63
Average number of grid points per atom       ...     5253
Average number of shells per batch           ...     7.74 (55.31%)
Average number of basis functions per batch  ...    16.27 (54.24%)
Average number of large shells per batch     ...     6.22 (80.34%)
Average number of large basis fcns per batch ...    13.34 (81.96%)
Maximum spatial batch extension              ...  16.84, 24.37, 24.37 au
Average spatial batch extension              ...   3.45,  4.30,  4.31 au

Time for grid setup =    0.094 sec

--------------
SCF ITERATIONS
--------------
ITER       Energy         Delta-E        Max-DP      RMS-DP      [F,P]   Gradient Norm
               ***  Starting incremental Fock matrix formation  ***
                             ****Resetting KDIIS****
                             ****Turning on KDIIS(Cayley)****
  0    -92.7426092809   0.000000000000 0.00005960  0.00000718  0.0002347   0.000178940
                          ***Energy convergence achieved***
  1    -92.7426094588  -0.000000177922 0.00010506  0.00000863  0.0001726   0.000145771
  2    -92.7426095735  -0.000000114677 0.00018622  0.00001627  0.0001407   0.000121868
  3    -92.7426097491  -0.000000175625 0.00027906  0.00002437  0.0000874   0.000073213
Warning: badly conditioned DIIS matrix, 1 vectors out of 5 destroyed

            ***Energy convergence in two consecutive cycles with***
                    ***'reasonable' density convergence***
                       *** signaling convergence ***

                    *** KDIIS BlockDiag ( 1.122 sec) ***

               *****************************************************
               *                     SUCCESS                       *
               *           SCF CONVERGED AFTER   4 CYCLES          *
               *****************************************************

Setting up the final grid:

General Integration Accuracy     IntAcc      ...  5.010
Radial Grid Type                 RadialGrid  ... Gauss-Chebyshev
Angular Grid (max. acc.)         AngularGrid ... Lebedev-434
Angular grid pruning method      GridPruning ... 3 (G Style)
Weight generation scheme         WeightScheme... Becke
Basis function cutoff            BFCut       ...    1.0000e-10
Integration weight cutoff        WCut        ...    1.0000e-14
Grids for H and He will be reduced by one unit

# of grid points (after initial pruning)     ...  27980 (   0.0 sec)
# of grid points (after weights+screening)   ...  27885 (   0.0 sec)
nearest neighbour list constructed           ...    0.0 sec
Grid point re-assignment to atoms done       ...    0.0 sec
Grid point division into batches done        ...    0.2 sec
Reduced shell lists constructed in    0.2 sec

Total number of grid points                  ...    27885
Total number of batches                      ...      437
Average number of points per batch           ...       63
Average number of grid points per atom       ...     9295
Average number of shells per batch           ...     7.53 (53.78%)
Average number of basis functions per batch  ...    15.74 (52.48%)
Average number of large shells per batch     ...     6.03 (80.05%)
Average number of large basis fcns per batch ...    12.95 (82.28%)
Maximum spatial batch extension              ...  17.05, 19.91, 19.91 au
Average spatial batch extension              ...   3.10,  3.49,  3.48 au

Final grid set up in    0.3 sec
Final integration                            ... done (   0.1 sec)
Change in XC energy                          ...    -0.000140884
Integrated number of electrons               ...    13.999997600
Previous integrated no of electrons          ...    14.000017017
Total Energy       :          -92.74275074 Eh           -2523.65855 eV
  Last Energy change         ...   -1.0181e-07  Tolerance :   1.0000e-06
  Last MAX-Density change    ...    8.5936e-05  Tolerance :   1.0000e-05
             **** THE GBW FILE WAS UPDATED (HCN.gbw) ****
             **** DENSITY FILE WAS UPDATED (HCN.scfp) ****
             **** ENERGY FILE WAS UPDATED (HCN.en.tmp) ****
             **** THE GBW FILE WAS UPDATED (HCN.gbw) ****
             **** DENSITY FILE WAS UPDATED (HCN.scfp) ****
Total SCF time: 0 days 0 hours 0 min 1 sec 

-------------------------   --------------------
FINAL SINGLE POINT ENERGY       -92.742750735129
-------------------------   --------------------

Storing actual gbw-file in HCN.045.gbw ... done

                            ***************************************
                            *     ORCA property calculations      *
                            ***************************************

                                    ---------------------
                                    Active property flags
                                    ---------------------
   (+) Dipole Moment


------------------------------------------------------------------------------
                       ORCA ELECTRIC PROPERTIES CALCULATION
------------------------------------------------------------------------------

Dipole Moment Calculation                       ... on
Quadrupole Moment Calculation                   ... off
Polarizability Calculation                      ... off
GBWName                                         ... HCN.gbw
Electron density file                           ... HCN.scfp
The origin for moment calculation is the CENTER OF MASS  = ( 4.859154,  0.000026  0.000000)

-------------
DIPOLE MOMENT
-------------
                                X             Y             Z
Electronic contribution:      0.05710      -0.00007      -0.00000
Nuclear contribution   :     -3.39177       0.00033       0.00000
                        -----------------------------------------
Total Dipole Moment    :     -3.33466       0.00026      -0.00000
                        -----------------------------------------
Magnitude (a.u.)       :      3.33466
Magnitude (Debye)      :      8.47604



--------------------
Rotational spectrum 
--------------------
 
Rotational constants in cm-1: 137970827.399974     0.094767     0.094767 
Rotational constants in MHz : 4136261347853.189941  2841.055328  2841.055326 

 Dipole components along the rotational axes: 
x,y,z [a.u.] :     3.334664     0.000237    -0.000000 
x,y,z [Debye]:     8.476042     0.000603    -0.000000 

 

         *************************************************************
                                TRAJECTORY STEP  46
                  R  :   5.13750000
         *************************************************************
---------------------------------
CARTESIAN COORDINATES (ANGSTROEM)
---------------------------------
  C      0.000000    0.000000    0.000000
  N      5.137500    0.000000    0.000000
  H     -1.058400    0.000369    0.000000

----------------------------
CARTESIAN COORDINATES (A.U.)
----------------------------
  NO LB      ZA    FRAG     MASS         X           Y           Z
   0 C     6.0000    0    12.011    0.000000    0.000000    0.000000
   1 N     7.0000    0    14.007    9.708468    0.000000    0.000000
   2 H     1.0000    0     1.008   -2.000086    0.000698    0.000000

--------------------------------
INTERNAL COORDINATES (ANGSTROEM)
--------------------------------
 C      0   0   0     0.000000000000     0.00000000     0.00000000
 N      1   0   0     5.137500000000     0.00000000     0.00000000
 H      1   2   3     1.058400000000   179.98000000     0.00000000

---------------------------
INTERNAL COORDINATES (A.U.)
---------------------------
 C      0   0   0     0.000000000000     0.00000000     0.00000000
 N      1   0   0     9.708468013020     0.00000000     0.00000000
 H      1   2   3     2.000086140142   179.98000000     0.00000000


Diagonalization of the overlap matrix:
Smallest eigenvalue                        ... 4.241e-02
Time for diagonalization                   ...    0.001 sec
Threshold for overlap eigenvalues          ... 1.000e-08
Number of eigenvalues below threshold      ... 0
Time for construction of square roots      ...    0.000 sec
Total time needed                          ...    0.001 sec

-------------------
DFT GRID GENERATION
-------------------

General Integration Accuracy     IntAcc      ...  4.670
Radial Grid Type                 RadialGrid  ... Gauss-Chebyshev
Angular Grid (max. acc.)         AngularGrid ... Lebedev-302
Angular grid pruning method      GridPruning ... 3 (G Style)
Weight generation scheme         WeightScheme... Becke
Basis function cutoff            BFCut       ...    1.0000e-10
Integration weight cutoff        WCut        ...    1.0000e-14
Grids for H and He will be reduced by one unit

# of grid points (after initial pruning)     ...  15818 (   0.0 sec)
# of grid points (after weights+screening)   ...  15759 (   0.0 sec)
nearest neighbour list constructed           ...    0.0 sec
Grid point re-assignment to atoms done       ...    0.0 sec
Grid point division into batches done        ...    0.1 sec
Reduced shell lists constructed in    0.1 sec

Total number of grid points                  ...    15759
Total number of batches                      ...      248
Average number of points per batch           ...       63
Average number of grid points per atom       ...     5253
Average number of shells per batch           ...     7.66 (54.70%)
Average number of basis functions per batch  ...    16.07 (53.56%)
Average number of large shells per batch     ...     6.18 (80.70%)
Average number of large basis fcns per batch ...    13.25 (82.45%)
Maximum spatial batch extension              ...  16.79, 24.37, 24.37 au
Average spatial batch extension              ...   3.49,  4.35,  4.33 au

Time for grid setup =    0.095 sec

--------------
SCF ITERATIONS
--------------
ITER       Energy         Delta-E        Max-DP      RMS-DP      [F,P]   Gradient Norm
               ***  Starting incremental Fock matrix formation  ***
                             ****Resetting KDIIS****
                             ****Turning on KDIIS(Cayley)****
  0    -92.7413342040   0.000000000000 0.00005628  0.00000655  0.0002255   0.000159434
                          ***Energy convergence achieved***
  1    -92.7413343519  -0.000000147922 0.00009522  0.00000779  0.0001495   0.000129222
  2    -92.7413344448  -0.000000092905 0.00016776  0.00001495  0.0001382   0.000108183
  3    -92.7413345920  -0.000000147142 0.00024453  0.00002193  0.0000959   0.000066337

            ***Energy convergence in two consecutive cycles with***
                    ***'reasonable' density convergence***
                       *** signaling convergence ***

                    *** KDIIS BlockDiag ( 1.120 sec) ***

               *****************************************************
               *                     SUCCESS                       *
               *           SCF CONVERGED AFTER   4 CYCLES          *
               *****************************************************

Setting up the final grid:

General Integration Accuracy     IntAcc      ...  5.010
Radial Grid Type                 RadialGrid  ... Gauss-Chebyshev
Angular Grid (max. acc.)         AngularGrid ... Lebedev-434
Angular grid pruning method      GridPruning ... 3 (G Style)
Weight generation scheme         WeightScheme... Becke
Basis function cutoff            BFCut       ...    1.0000e-10
Integration weight cutoff        WCut        ...    1.0000e-14
Grids for H and He will be reduced by one unit

# of grid points (after initial pruning)     ...  27980 (   0.0 sec)
# of grid points (after weights+screening)   ...  27885 (   0.0 sec)
nearest neighbour list constructed           ...    0.0 sec
Grid point re-assignment to atoms done       ...    0.0 sec
Grid point division into batches done        ...    0.2 sec
Reduced shell lists constructed in    0.2 sec

Total number of grid points                  ...    27885
Total number of batches                      ...      438
Average number of points per batch           ...       63
Average number of grid points per atom       ...     9295
Average number of shells per batch           ...     7.46 (53.27%)
Average number of basis functions per batch  ...    15.61 (52.04%)
Average number of large shells per batch     ...     6.01 (80.54%)
Average number of large basis fcns per batch ...    12.91 (82.71%)
Maximum spatial batch extension              ...  17.05, 19.91, 19.91 au
Average spatial batch extension              ...   3.08,  3.50,  3.49 au

Final grid set up in    0.3 sec
Final integration                            ... done (   0.1 sec)
Change in XC energy                          ...    -0.000142975
Integrated number of electrons               ...    13.999997722
Previous integrated no of electrons          ...    14.000007839
Total Energy       :          -92.74147763 Eh           -2523.62390 eV
  Last Energy change         ...   -6.5865e-08  Tolerance :   1.0000e-06
  Last MAX-Density change    ...    8.4210e-05  Tolerance :   1.0000e-05
             **** THE GBW FILE WAS UPDATED (HCN.gbw) ****
             **** DENSITY FILE WAS UPDATED (HCN.scfp) ****
             **** ENERGY FILE WAS UPDATED (HCN.en.tmp) ****
             **** THE GBW FILE WAS UPDATED (HCN.gbw) ****
             **** DENSITY FILE WAS UPDATED (HCN.scfp) ****
Total SCF time: 0 days 0 hours 0 min 1 sec 

-------------------------   --------------------
FINAL SINGLE POINT ENERGY       -92.741477633329
-------------------------   --------------------

Storing actual gbw-file in HCN.046.gbw ... done

                            ***************************************
                            *     ORCA property calculations      *
                            ***************************************

                                    ---------------------
                                    Active property flags
                                    ---------------------
   (+) Dipole Moment


------------------------------------------------------------------------------
                       ORCA ELECTRIC PROPERTIES CALCULATION
------------------------------------------------------------------------------

Dipole Moment Calculation                       ... on
Quadrupole Moment Calculation                   ... off
Polarizability Calculation                      ... off
GBWName                                         ... HCN.gbw
Electron density file                           ... HCN.scfp
The origin for moment calculation is the CENTER OF MASS  = ( 4.957094,  0.000026  0.000000)

-------------
DIPOLE MOMENT
-------------
                                X             Y             Z
Electronic contribution:      0.04240      -0.00007      -0.00000
Nuclear contribution   :     -3.44013       0.00033       0.00000
                        -----------------------------------------
Total Dipole Moment    :     -3.39773       0.00026      -0.00000
                        -----------------------------------------
Magnitude (a.u.)       :      3.39773
Magnitude (Debye)      :      8.63635



--------------------
Rotational spectrum 
--------------------
 
Rotational constants in cm-1: 137854219.804905     0.091191     0.091191 
Rotational constants in MHz : 4132765540098.474121  2733.841576  2733.841575 

 Dipole components along the rotational axes: 
x,y,z [a.u.] :     3.397731     0.000237    -0.000000 
x,y,z [Debye]:     8.636347     0.000602    -0.000000 

 
                              **** TRAJECTORY DONE ***

                         SUMMARY OF THE CALCULATED SURFACE

------------------
TRAJECTORY RESULTS
------------------

Column   1: R

The Calculated Surface using the 'Actual Energy'
   0.63750000 -91.05591484
   0.73750000 -92.24862768
   0.83750000 -92.88650956
   0.93750000 -93.20771475
   1.03750000 -93.34950150
   1.13750000 -93.39078501
   1.23750000 -93.37691308
   1.33750000 -93.33426646
   1.43750000 -93.27817914
   1.53750000 -93.21753143
   1.63750000 -93.15746910
   1.73750000 -93.10081720
   1.83750000 -93.04923997
   1.93750000 -93.00361517
   2.03750000 -92.96448126
   2.13750000 -92.93179991
   2.23750000 -92.90502529
   2.33750000 -92.88323226
   2.43750000 -92.86536058
   2.53750000 -92.85042393
   2.63750000 -92.83777048
   2.73750000 -92.82695114
   2.83750000 -92.81753020
   2.93750000 -92.80924518
   3.03750000 -92.80195219
   3.13750000 -92.79549979
   3.23750000 -92.78975971
   3.33750000 -92.78462001
   3.43750000 -92.78002580
   3.53750000 -92.77589454
   3.63750000 -92.77217945
   3.73750000 -92.76881084
   3.83750000 -92.76574948
   3.93750000 -92.76295991
   4.03750000 -92.76040436
   4.13750000 -92.75804631
   4.23750000 -92.75586053
   4.33750000 -92.75383412
   4.43750000 -92.75195018
   4.53750000 -92.75018641
   4.63750000 -92.74853083
   4.73750000 -92.74696767
   4.83750000 -92.74548871
   4.93750000 -92.74408596
   5.03750000 -92.74275074
   5.13750000 -92.74147763

The Calculated Surface using the SCF energy
   0.63750000 -91.05591484
   0.73750000 -92.24862768
   0.83750000 -92.88650956
   0.93750000 -93.20771475
   1.03750000 -93.34950150
   1.13750000 -93.39078501
   1.23750000 -93.37691308
   1.33750000 -93.33426646
   1.43750000 -93.27817914
   1.53750000 -93.21753143
   1.63750000 -93.15746910
   1.73750000 -93.10081720
   1.83750000 -93.04923997
   1.93750000 -93.00361517
   2.03750000 -92.96448126
   2.13750000 -92.93179991
   2.23750000 -92.90502529
   2.33750000 -92.88323226
   2.43750000 -92.86536058
   2.53750000 -92.85042393
   2.63750000 -92.83777048
   2.73750000 -92.82695114
   2.83750000 -92.81753020
   2.93750000 -92.80924518
   3.03750000 -92.80195219
   3.13750000 -92.79549979
   3.23750000 -92.78975971
   3.33750000 -92.78462001
   3.43750000 -92.78002580
   3.53750000 -92.77589454
   3.63750000 -92.77217945
   3.73750000 -92.76881084
   3.83750000 -92.76574948
   3.93750000 -92.76295991
   4.03750000 -92.76040436
   4.13750000 -92.75804631
   4.23750000 -92.75586053
   4.33750000 -92.75383412
   4.43750000 -92.75195018
   4.53750000 -92.75018641
   4.63750000 -92.74853083
   4.73750000 -92.74696767
   4.83750000 -92.74548871
   4.93750000 -92.74408596
   5.03750000 -92.74275074
   5.13750000 -92.74147763


Timings for individual modules:

Sum of individual times         ...      103.069 sec (=   1.718 min)
GTO integral calculation        ...       11.085 sec (=   0.185 min)  10.8 %
SCF iterations                  ...       91.984 sec (=   1.533 min)  89.2 %
                             ****ORCA TERMINATED NORMALLY****
TOTAL RUN TIME: 0 days 0 hours 1 minutes 47 seconds 87 msec
