
                                 *****************
                                 * O   R   C   A *
                                 *****************

           --- An Ab Initio, DFT and Semiempirical electronic structure package ---

                  #######################################################
                  #                        -***-                        #
                  #          Department of theory and spectroscopy      #
                  #               Directorship: Frank Neese             #
                  #        Max Planck Institute fuer Kohlenforschung    #
                  #                Kaiser Wilhelm Platz 1               #
                  #                 D-45470 Muelheim/Ruhr               #
                  #                      Germany                        #
                  #                                                     #
                  #                  All rights reserved                #
                  #                        -***-                        #
                  #######################################################


                         Program Version 4.2.0 -  RELEASE  -


 With contributions from (in alphabetic order):
   Daniel Aravena         : Magnetic Suceptibility
   Michael Atanasov       : Ab Initio Ligand Field Theory (pilot matlab implementation)
   Alexander A. Auer      : GIAO ZORA, VPT2
   Ute Becker             : Parallelization
   Giovanni Bistoni       : ED, misc. LED, open-shell LED, HFLED
   Martin Brehm           : Molecular dynamics
   Dmytro Bykov           : SCF Hessian
   Vijay G. Chilkuri      : MRCI spin determinant printing, contributions to CSF-ICE
   Dipayan Datta          : RHF DLPNO-CCSD density
   Achintya Kumar Dutta   : EOM-CC, STEOM-CC
   Dmitry Ganyushin       : Spin-Orbit,Spin-Spin,Magnetic field MRCI
   Miquel Garcia          : C-PCM Hessian, Gaussian charge scheme
   Yang Guo               : DLPNO-NEVPT2, CIM, IAO-localization
   Andreas Hansen         : Spin unrestricted coupled pair/coupled cluster methods
   Benjamin Helmich-Paris : CASSCF linear response (MC-RPA)
   Lee Huntington         : MR-EOM, pCC
   Robert Izsak           : Overlap fitted RIJCOSX, COSX-SCS-MP3, EOM
   Christian Kollmar      : KDIIS, OOCD, Brueckner-CCSD(T), CCSD density
   Simone Kossmann        : Meta GGA functionals, TD-DFT gradient, OOMP2, MP2 Hessian
   Martin Krupicka        : AUTO-CI
   Lucas Lang             : DCDCAS
   Dagmar Lenk            : GEPOL surface, SMD
   Dimitrios Liakos       : Extrapolation schemes; Compound Job, initial MDCI parallelization
   Dimitrios Manganas     : Further ROCIS development; embedding schemes
   Dimitrios Pantazis     : SARC Basis sets
   Taras Petrenko         : DFT Hessian,TD-DFT gradient, ASA, ECA, R-Raman, ABS, FL, XAS/XES, NRVS
   Peter Pinski           : DLPNO-MP2, DLPNO-MP2 Gradient
   Christoph Reimann      : Effective Core Potentials
   Marius Retegan         : Local ZFS, SOC
   Christoph Riplinger    : Optimizer, TS searches, QM/MM, DLPNO-CCSD(T), (RO)-DLPNO pert. Triples
   Tobias Risthaus        : Range-separated hybrids, TD-DFT gradient, RPA, STAB
   Michael Roemelt        : Original ROCIS implementation
   Masaaki Saitow         : Open-shell DLPNO-CCSD energy and density
   Barbara Sandhoefer     : DKH picture change effects
   Avijit Sen             : IP-ROCIS
   Kantharuban Sivalingam : CASSCF convergence, NEVPT2, FIC-MRCI
   Bernardo de Souza      : ESD, SOC TD-DFT
   Georgi Stoychev        : AutoAux, RI-MP2 NMR
   Willem Van den Heuvel  : Paramagnetic NMR
   Boris Wezisla          : Elementary symmetry handling
   Frank Wennmohs         : Technical directorship


 We gratefully acknowledge several colleagues who have allowed us to
 interface, adapt or use parts of their codes:
   Stefan Grimme, W. Hujo, H. Kruse,             : VdW corrections, initial TS optimization,
                  C. Bannwarth                     DFT functionals, gCP, sTDA/sTD-DF
   Ed Valeev, F. Pavosevic, A. Kumar             : LibInt (2-el integral package), F12 methods
   Garnet Chan, S. Sharma, J. Yang, R. Olivares  : DMRG
   Ulf Ekstrom                                   : XCFun DFT Library
   Mihaly Kallay                                 : mrcc  (arbitrary order and MRCC methods)
   Andreas Klamt, Michael Diedenhofen            : otool_cosmo (COSMO solvation model)
   Jiri Pittner, Ondrej Demel                    : Mk-CCSD
   Frank Weinhold                                : gennbo (NPA and NBO analysis)
   Christopher J. Cramer and Donald G. Truhlar   : smd solvation model
   Lars Goerigk                                  : TD-DFT with DH, B97 family of functionals
   V. Asgeirsson, H. Jonsson                     : NEB implementation
   FAccTs GmbH                                   : IRC, NEB, NEB-TS, Multilevel, MM, QM/MM, CI optimization
   S Lehtola, MJT Oliveira, MAL Marques          : LibXC Library


 Your calculation uses the libint2 library for the computation of 2-el integrals
 For citations please refer to: http://libint.valeyev.net

 Your ORCA version has been built with support for libXC version: 4.2.3
 For citations please refer to: https://tddft.org/programs/libxc/

 This ORCA versions uses:
   CBLAS   interface :  Fast vector & matrix operations
   LAPACKE interface :  Fast linear algebra routines
   SCALAPACK package :  Parallel linear algebra routines


XCFun DFT library Copyright 2009-2010 Ulf Ekstrom and contributors.
See http://admol.org/xcfun for more information. This is free soft-
ware; see the source code for copying conditions. There is ABSOLUTELY
NO WARRANTY; not even for MERCHANTABILITY or FITNESS FOR A PARTICULAR
PURPOSE. For details see the documentation. Scientific users of this 
library should cite U. Ekstrom, L. Visscher, R. Bast, A. J. Thorvald-
sen and K. Ruud; J.Chem.Theor.Comp. 2010, DOI: 10.1021/ct100117s
XCFun Version 0.99 
----- Orbital basis set information -----
Your calculation utilizes the basis: 6-31G(d)
   H-He, Li-Ne : W. J. Hehre, R. Ditchfield and J.A. Pople, J. Chem. Phys. 56, 2257 (1972).
                 Note: He and Ne are unpublished basis sets taken from the Gaussian program.
                 Note: Li and B from J. D. Dill and J. A. Pople, J. Chem. Phys. 62, 2921 (1975).
   Na - Ar     : M. M. Francl, W. J. Pietro, W. J. Hehre, J. S. Binkley, M. S. Gordon, 
                 D. J. DeFrees and J. A. Pople, J. Chem. Phys. 77, 3654 (1982).
   K - Zn      : V. A. Rassolov, J. A. Pople, M. A. Ratner, and T. L. Windus, J. Chem. Phys. 109, 1223 (1998).

================================================================================
                                        WARNINGS
                       Please study these warnings very carefully!
================================================================================


INFO   : the flag for use of LIBINT has been found!

================================================================================
                                       INPUT FILE
================================================================================
NAME = HF.inp
|  1> ! wB97X 6-31G(d) KDIIS NOSOSCF VerySlowConv Grid4
|  2> %paras
|  3> R=0.4324,4.9324,46
|  4> end
|  5> * xyz 0  1
|  6> F 0 0 0
|  7> H 0 0 {R}
|  8> **                         ****END OF INPUT****
================================================================================

                       ******************************
                       * Parameter Scan Calculation *
                       ******************************

Trajectory settings:
    -> SCF surface will be mapped

There are 1 parameter(s) to be scanned
             R: range=   0.43240000 ..   4.93240000  steps=   46
There will be   46 energy evaluations


         *************************************************************
                                TRAJECTORY STEP   1
                  R  :   0.43240000
         *************************************************************
---------------------------------
CARTESIAN COORDINATES (ANGSTROEM)
---------------------------------
  F      0.000000    0.000000    0.000000
  H      0.000000    0.000000    0.432400

----------------------------
CARTESIAN COORDINATES (A.U.)
----------------------------
  NO LB      ZA    FRAG     MASS         X           Y           Z
   0 F     9.0000    0    18.998    0.000000    0.000000    0.000000
   1 H     1.0000    0     1.008    0.000000    0.000000    0.817118

--------------------------------
INTERNAL COORDINATES (ANGSTROEM)
--------------------------------
 F      0   0   0     0.000000000000     0.00000000     0.00000000
 H      1   0   0     0.432400000000     0.00000000     0.00000000

---------------------------
INTERNAL COORDINATES (A.U.)
---------------------------
 F      0   0   0     0.000000000000     0.00000000     0.00000000
 H      1   0   0     0.817117580308     0.00000000     0.00000000

---------------------
BASIS SET INFORMATION
---------------------
There are 2 groups of distinct atoms

 Group   1 Type F   : 10s4p1d contracted to 3s2p1d pattern {631/31/1}
 Group   2 Type H   : 4s contracted to 2s pattern {31}

Atom   0F    basis set group =>   1
Atom   1H    basis set group =>   2
------------------------------------------------------------------------------
                           ORCA GTO INTEGRAL CALCULATION
------------------------------------------------------------------------------

                         BASIS SET STATISTICS AND STARTUP INFO

 # of primitive gaussian shells          ...   19
 # of primitive gaussian functions       ...   31
 # of contracted shells                  ...    8
 # of contracted basis functions         ...   16
 Highest angular momentum                ...    2
 Maximum contraction depth               ...    6
 Integral package used                   ... LIBINT
 Integral threshhold            Thresh   ...  1.000e-10
 Primitive cut-off              TCut     ...  1.000e-11


------------------------------ INTEGRAL EVALUATION ----------------------------


 * One electron integrals 
 Pre-screening matrix                    ... done
 Shell pair data                         ... done (   0.000 sec)

-------------------------------------------------------------------------------
                                 ORCA SCF
-------------------------------------------------------------------------------

------------
SCF SETTINGS
------------
Hamiltonian:
 Density Functional     Method          .... DFT(GTOs)
 Exchange Functional    Exchange        .... WB97X
 Correlation Functional Correlation     .... WB97X
 Gradients option       PostSCFGGA      .... off
 Hybrid DFT is turned on
   Fraction HF Exchange ScalHFX         ....  0.157706
   Scaling of DF-GGA-X  ScalDFX         ....  0.000000
   Scaling of DF-GGA-C  ScalDFC         ....  1.000000
   Scaling of DF-LDA-C  ScalLDAC        ....  1.000000
   Perturbative correction              ....  0.000000
   Density functional embedding theory  .... OFF
 Long-range corrected/Screened/Range-Separated Hybrid DFT is turned on
   Amount of maximum screened exact exchange              ....  0.842294
   Range separation parameter mu (erf(mu*r12)/r12)        ....  0.300000


General Settings:
 Integral files         IntName         .... HF
 Hartree-Fock type      HFTyp           .... RHF
 Total Charge           Charge          ....    0
 Multiplicity           Mult            ....    1
 Number of Electrons    NEL             ....   10
 Basis Dimension        Dim             ....   16
 Nuclear Repulsion      ENuc            ....     11.0143267222 Eh

Convergence Acceleration:
 DIIS                   CNVDIIS         .... on
   Start iteration      DIISMaxIt       ....     0
   Startup error        DIISStart       ....  0.200000
   # of expansion vecs  DIISMaxEq       ....     5
   Bias factor          DIISBfac        ....   1.050
   Max. coefficient     DIISMaxC        ....  10.000
 Newton-Raphson         CNVNR           .... off
 SOSCF                  CNVSOSCF        .... off
 Level Shifting         CNVShift        .... off
 Zerner damping         CNVZerner       .... off
 Static damping         CNVDamp         .... off
 Fernandez-Rico         CNVRico         .... off

SCF Procedure:
 Maximum # iterations   MaxIter         ....   125
 SCF integral mode      SCFMode         .... Direct
   Integral package                     .... LIBINT
 Reset frequency        DirectResetFreq ....    20
 Integral Threshold     Thresh          ....  1.000e-10 Eh
 Primitive CutOff       TCut            ....  1.000e-11 Eh

Convergence Tolerance:
 Convergence Check Mode ConvCheckMode   .... All-Criteria
 Convergence forced     ConvForced      .... 0
 Energy Change          TolE            ....  1.000e-06 Eh
 Max Density Change     TolMaxP         ....  1.000e-05
 RMS Density Change     TolRMSP         ....  1.000e-06
 DIIS Error             TolErr          ....  1.000e-06


Diagonalization of the overlap matrix:
Smallest eigenvalue                        ... 1.643e-02
Time for diagonalization                   ...    0.000 sec
Threshold for overlap eigenvalues          ... 1.000e-08
Number of eigenvalues below threshold      ... 0
Time for construction of square roots      ...    0.000 sec
Total time needed                          ...    0.001 sec

-------------------
DFT GRID GENERATION
-------------------

General Integration Accuracy     IntAcc      ...  4.670
Radial Grid Type                 RadialGrid  ... Gauss-Chebyshev
Angular Grid (max. acc.)         AngularGrid ... Lebedev-302
Angular grid pruning method      GridPruning ... 3 (G Style)
Weight generation scheme         WeightScheme... Becke
Basis function cutoff            BFCut       ...    1.0000e-10
Integration weight cutoff        WCut        ...    1.0000e-14
Grids for H and He will be reduced by one unit

# of grid points (after initial pruning)     ...   9666 (   0.0 sec)
# of grid points (after weights+screening)   ...   9628 (   0.0 sec)
nearest neighbour list constructed           ...    0.0 sec
Grid point re-assignment to atoms done       ...    0.0 sec
Grid point division into batches done        ...    0.0 sec
Reduced shell lists constructed in    0.0 sec

Total number of grid points                  ...     9628
Total number of batches                      ...      151
Average number of points per batch           ...       63
Average number of grid points per atom       ...     4814
Average number of shells per batch           ...     6.49 (81.09%)
Average number of basis functions per batch  ...    13.11 (81.91%)
Average number of large shells per batch     ...     6.26 (96.55%)
Average number of large basis fcns per batch ...    12.78 (97.49%)
Maximum spatial batch extension              ...  21.92, 19.94, 16.51 au
Average spatial batch extension              ...   4.02,  3.92,  3.11 au

Time for grid setup =    0.049 sec

------------------------------
INITIAL GUESS: MODEL POTENTIAL
------------------------------
Loading Hartree-Fock densities                     ... done
Calculating cut-offs                               ... done
Setting up the integral package                    ... done
Initializing the effective Hamiltonian             ... done
Starting the Coulomb interaction                   ... done (   0.0 sec)
Reading the grid                                   ... done
Mapping shells                                     ... done
Starting the XC term evaluation                    ... done (   0.0 sec)
  promolecular density results
     # of electrons  =      9.999511452
     EX              =    -10.438874216
     EC              =     -0.337669705
     EX+EC           =    -10.776543921
Transforming the Hamiltonian                       ... done (   0.0 sec)
Diagonalizing the Hamiltonian                      ... done (   0.0 sec)
Back transforming the eigenvectors                 ... done (   0.0 sec)
Now organizing SCF variables                       ... done
                      ------------------
                      INITIAL GUESS DONE (   0.1 sec)
                      ------------------
--------------
SCF ITERATIONS
--------------
ITER       Energy         Delta-E        Max-DP      RMS-DP      [F,P]   Gradient Norm
               ***  Starting incremental Fock matrix formation  ***
                             ****Resetting KDIIS****
                             ****Turning on KDIIS(Cayley)****
  0    -98.9970396296   0.000000000000 0.03715028  0.00491917  0.2399848   0.208631538
  1    -99.0371077210  -0.040068091405 0.03497427  0.00456235  0.2007268   0.173297473
  2    -99.0675042288  -0.030396507847 0.05699780  0.00744290  0.1634488   0.140851497
  3    -99.1036140683  -0.036109839511 0.08635003  0.01133373  0.1008195   0.086667209
Warning: badly conditioned DIIS matrix, 1 vectors out of 5 destroyed
  4    -99.1251657104  -0.021551642002 0.00064705  0.00010638  0.0017222   0.001686830
  5    -99.1251713504  -0.000005640091 0.00082922  0.00011005  0.0011454   0.001011774
Warning: badly conditioned DIIS matrix, 1 vectors out of 5 destroyed
  6    -99.1251738461  -0.000002495620 0.00055515  0.00008929  0.0005266   0.000525194
Warning: badly conditioned DIIS matrix, 1 vectors out of 5 destroyed
                          ***Energy convergence achieved***
                           ***RMSP convergence achieved***
                           ***MAXP convergence achieved***
                    *** KDIIS BlockDiag ( 1.266 sec) ***

               *****************************************************
               *                     SUCCESS                       *
               *           SCF CONVERGED AFTER   7 CYCLES          *
               *****************************************************

Setting up the final grid:

General Integration Accuracy     IntAcc      ...  5.010
Radial Grid Type                 RadialGrid  ... Gauss-Chebyshev
Angular Grid (max. acc.)         AngularGrid ... Lebedev-434
Angular grid pruning method      GridPruning ... 3 (G Style)
Weight generation scheme         WeightScheme... Becke
Basis function cutoff            BFCut       ...    1.0000e-10
Integration weight cutoff        WCut        ...    1.0000e-14
Grids for H and He will be reduced by one unit

# of grid points (after initial pruning)     ...  17510 (   0.0 sec)
# of grid points (after weights+screening)   ...  17399 (   0.0 sec)
nearest neighbour list constructed           ...    0.0 sec
Grid point re-assignment to atoms done       ...    0.0 sec
Grid point division into batches done        ...    0.1 sec
Reduced shell lists constructed in    0.1 sec

Total number of grid points                  ...    17399
Total number of batches                      ...      273
Average number of points per batch           ...       63
Average number of grid points per atom       ...     8700
Average number of shells per batch           ...     6.39 (79.84%)
Average number of basis functions per batch  ...    13.03 (81.43%)
Average number of large shells per batch     ...     6.05 (94.69%)
Average number of large basis fcns per batch ...    12.28 (94.26%)
Maximum spatial batch extension              ...  16.29, 16.29, 15.15 au
Average spatial batch extension              ...   3.22,  3.20,  2.60 au

Final grid set up in    0.1 sec
Final integration                            ... done (   0.1 sec)
Change in XC energy                          ...     0.000194111
Integrated number of electrons               ...     9.999999790
Previous integrated no of electrons          ...    10.000000677

----------------
TOTAL SCF ENERGY
----------------

Total Energy       :          -99.12498059 Eh           -2697.32785 eV

Components:
Nuclear Repulsion  :           11.01432672 Eh             299.71507 eV
Electronic Energy  :         -110.13930731 Eh           -2997.04292 eV
One Electron Energy:         -158.41909092 Eh           -4310.80262 eV
Two Electron Energy:           48.27978361 Eh            1313.75970 eV

Virial components:
Potential Energy   :         -202.09013007 Eh           -5499.15201 eV
Kinetic Energy     :          102.96514949 Eh            2801.82416 eV
Virial Ratio       :            1.96270419


DFT components:
N(Alpha)           :        4.999999895078 electrons
N(Beta)            :        4.999999895078 electrons
N(Total)           :        9.999999790156 electrons
E(XC)              :       -8.205537583123 Eh       
DFET-embed. en.    :        0.000000000000 Eh       

---------------
SCF CONVERGENCE
---------------

  Last Energy change         ...   -8.5283e-07  Tolerance :   1.0000e-06
  Last MAX-Density change    ...    4.6463e-06  Tolerance :   1.0000e-05
  Last RMS-Density change    ...    5.5702e-07  Tolerance :   1.0000e-06
  Last DIIS Error            ...    2.7204e-06  Tolerance :   1.0000e-06

             **** THE GBW FILE WAS UPDATED (HF.gbw) ****
             **** DENSITY FILE WAS UPDATED (HF.scfp) ****
             **** ENERGY FILE WAS UPDATED (HF.en.tmp) ****
             **** THE GBW FILE WAS UPDATED (HF.gbw) ****
             **** DENSITY FILE WAS UPDATED (HF.scfp) ****
----------------
ORBITAL ENERGIES
----------------

  NO   OCC          E(Eh)            E(eV) 
   0   2.0000     -24.737158      -673.1323 
   1   2.0000      -1.592726       -43.3403 
   2   2.0000      -0.743376       -20.2283 
   3   2.0000      -0.552396       -15.0315 
   4   2.0000      -0.552396       -15.0315 
   5   0.0000       0.290640         7.9087 
   6   0.0000       1.132593        30.8194 
   7   0.0000       1.270100        34.5612 
   8   0.0000       1.270100        34.5612 
   9   0.0000       1.710513        46.5454 
  10   0.0000       1.875119        51.0246 
  11   0.0000       1.875119        51.0246 
  12   0.0000       1.948937        53.0333 
  13   0.0000       1.948939        53.0333 
  14   0.0000       1.959134        53.3107 
  15   0.0000       5.366720       146.0359 

                    ********************************
                    * MULLIKEN POPULATION ANALYSIS *
                    ********************************

-----------------------
MULLIKEN ATOMIC CHARGES
-----------------------
   0 F :   -0.032906
   1 H :    0.032906
Sum of atomic charges:    0.0000000

--------------------------------
MULLIKEN REDUCED ORBITAL CHARGES
--------------------------------
  0 F s       :     3.575127  s :     3.575127
      pz      :     1.457184  p :     5.448057
      px      :     1.995437
      py      :     1.995437
      dz2     :     0.000596  d :     0.009723
      dxz     :     0.004563
      dyz     :     0.004563
      dx2y2   :     0.000000
      dxy     :     0.000000
  1 H s       :     0.967094  s :     0.967094


                     *******************************
                     * LOEWDIN POPULATION ANALYSIS *
                     *******************************

----------------------
LOEWDIN ATOMIC CHARGES
----------------------
   0 F :   -0.162130
   1 H :    0.162130

-------------------------------
LOEWDIN REDUCED ORBITAL CHARGES
-------------------------------
  0 F s       :     3.453376  s :     3.453376
      pz      :     1.693485  p :     5.684358
      px      :     1.995437
      py      :     1.995437
      dz2     :     0.015269  d :     0.024395
      dxz     :     0.004563
      dyz     :     0.004563
      dx2y2   :     0.000000
      dxy     :     0.000000
  1 H s       :     0.837870  s :     0.837870


                      *****************************
                      * MAYER POPULATION ANALYSIS *
                      *****************************

  NA   - Mulliken gross atomic population
  ZA   - Total nuclear charge
  QA   - Mulliken gross atomic charge
  VA   - Mayer's total valence
  BVA  - Mayer's bonded valence
  FA   - Mayer's free valence

  ATOM       NA         ZA         QA         VA         BVA        FA
  0 F      9.0329     9.0000    -0.0329     1.0212     1.0212     0.0000
  1 H      0.9671     1.0000     0.0329     1.0212     1.0212     0.0000

  Mayer bond orders larger than 0.100000
B(  0-F ,  1-H ) :   1.0212 

-------
TIMINGS
-------

Total SCF time: 0 days 0 hours 0 min 1 sec 

Total time                  ....       1.496 sec
Sum of individual times     ....       1.354 sec  ( 90.5%)

Fock matrix formation       ....       1.062 sec  ( 71.0%)
  XC integration            ....       0.475 sec  ( 44.7% of F)
    Basis function eval.    ....       0.068 sec  ( 14.4% of XC)
    Density eval.           ....       0.028 sec  (  5.9% of XC)
    XC-Functional eval.     ....       0.341 sec  ( 71.9% of XC)
    XC-Potential eval.      ....       0.015 sec  (  3.3% of XC)
Diagonalization             ....       0.002 sec  (  0.1%)
Density matrix formation    ....       0.000 sec  (  0.0%)
Population analysis         ....       0.000 sec  (  0.0%)
Initial guess               ....       0.098 sec  (  6.5%)
Orbital Transformation      ....       0.000 sec  (  0.0%)
Orbital Orthonormalization  ....       0.000 sec  (  0.0%)
DIIS solution               ....       0.000 sec  (  0.0%)
Grid generation             ....       0.192 sec  ( 12.8%)

-------------------------   --------------------
FINAL SINGLE POINT ENERGY       -99.124980587421
-------------------------   --------------------

Storing actual gbw-file in HF.001.gbw ... done

                            ***************************************
                            *     ORCA property calculations      *
                            ***************************************

                                    ---------------------
                                    Active property flags
                                    ---------------------
   (+) Dipole Moment


------------------------------------------------------------------------------
                       ORCA ELECTRIC PROPERTIES CALCULATION
------------------------------------------------------------------------------

Dipole Moment Calculation                       ... on
Quadrupole Moment Calculation                   ... off
Polarizability Calculation                      ... off
GBWName                                         ... HF.gbw
Electron density file                           ... HF.scfp
The origin for moment calculation is the CENTER OF MASS  = ( 0.000000,  0.000000  0.041170)

-------------
DIPOLE MOMENT
-------------
                                X             Y             Z
Electronic contribution:      0.00000       0.00000       0.05704
Nuclear contribution   :      0.00000       0.00000       0.40541
                        -----------------------------------------
Total Dipole Moment    :      0.00000       0.00000       0.46246
                        -----------------------------------------
Magnitude (a.u.)       :      0.46246
Magnitude (Debye)      :      1.17547



--------------------
Rotational spectrum 
--------------------
 
Rotational constants in cm-1:     0.000000    94.192729    94.192729 
Rotational constants in MHz :     0.000000 2823826.973954 2823826.973954 

 Dipole components along the rotational axes: 
x,y,z [a.u.] :     0.462456     0.000000     0.000000 
x,y,z [Debye]:     1.175471     0.000000     0.000000 

 

         *************************************************************
                                TRAJECTORY STEP   2
                  R  :   0.53240000
         *************************************************************
---------------------------------
CARTESIAN COORDINATES (ANGSTROEM)
---------------------------------
  F      0.000000    0.000000    0.000000
  H      0.000000    0.000000    0.532400

----------------------------
CARTESIAN COORDINATES (A.U.)
----------------------------
  NO LB      ZA    FRAG     MASS         X           Y           Z
   0 F     9.0000    0    18.998    0.000000    0.000000    0.000000
   1 H     1.0000    0     1.008    0.000000    0.000000    1.006090

--------------------------------
INTERNAL COORDINATES (ANGSTROEM)
--------------------------------
 F      0   0   0     0.000000000000     0.00000000     0.00000000
 H      1   0   0     0.532400000000     0.00000000     0.00000000

---------------------------
INTERNAL COORDINATES (A.U.)
---------------------------
 F      0   0   0     0.000000000000     0.00000000     0.00000000
 H      1   0   0     1.006090193700     0.00000000     0.00000000


Diagonalization of the overlap matrix:
Smallest eigenvalue                        ... 2.293e-02
Time for diagonalization                   ...    0.000 sec
Threshold for overlap eigenvalues          ... 1.000e-08
Number of eigenvalues below threshold      ... 0
Time for construction of square roots      ...    0.000 sec
Total time needed                          ...    0.001 sec

-------------------
DFT GRID GENERATION
-------------------

General Integration Accuracy     IntAcc      ...  4.670
Radial Grid Type                 RadialGrid  ... Gauss-Chebyshev
Angular Grid (max. acc.)         AngularGrid ... Lebedev-302
Angular grid pruning method      GridPruning ... 3 (G Style)
Weight generation scheme         WeightScheme... Becke
Basis function cutoff            BFCut       ...    1.0000e-10
Integration weight cutoff        WCut        ...    1.0000e-14
Grids for H and He will be reduced by one unit

# of grid points (after initial pruning)     ...   9666 (   0.0 sec)
# of grid points (after weights+screening)   ...   9631 (   0.0 sec)
nearest neighbour list constructed           ...    0.0 sec
Grid point re-assignment to atoms done       ...    0.0 sec
Grid point division into batches done        ...    0.0 sec
Reduced shell lists constructed in    0.0 sec

Total number of grid points                  ...     9631
Total number of batches                      ...      151
Average number of points per batch           ...       63
Average number of grid points per atom       ...     4816
Average number of shells per batch           ...     6.49 (81.17%)
Average number of basis functions per batch  ...    13.12 (82.03%)
Average number of large shells per batch     ...     6.23 (95.95%)
Average number of large basis fcns per batch ...    12.72 (96.89%)
Maximum spatial batch extension              ...  21.92, 19.94, 16.32 au
Average spatial batch extension              ...   3.99,  3.94,  3.16 au

Time for grid setup =    0.049 sec

--------------
SCF ITERATIONS
--------------
ITER       Energy         Delta-E        Max-DP      RMS-DP      [F,P]   Gradient Norm
               ***  Starting incremental Fock matrix formation  ***
                             ****Resetting KDIIS****
                             ****Turning on KDIIS(Cayley)****
  0    -99.8434047185   0.000000000000 0.01562913  0.00184720  0.0548786   0.057116135
  1    -99.8453890362  -0.001984317610 0.02958024  0.00323795  0.0493513   0.050895193
  2    -99.8479552493  -0.002566213120 0.04604546  0.00515526  0.0398985   0.041216950
  3    -99.8511477338  -0.003192484554 0.06533269  0.00739152  0.0240063   0.024765260
  4    -99.8529448351  -0.001797101291 0.00031551  0.00004718  0.0001509   0.000149987
                          ***Energy convergence achieved***
  5    -99.8529449193  -0.000000084165 0.00002481  0.00000420  0.0000325   0.000030229
                           ***RMSP convergence achieved***
                           ***MAXP convergence achieved***
                    *** KDIIS BlockDiag ( 1.060 sec) ***

               *****************************************************
               *                     SUCCESS                       *
               *           SCF CONVERGED AFTER   6 CYCLES          *
               *****************************************************

Setting up the final grid:

General Integration Accuracy     IntAcc      ...  5.010
Radial Grid Type                 RadialGrid  ... Gauss-Chebyshev
Angular Grid (max. acc.)         AngularGrid ... Lebedev-434
Angular grid pruning method      GridPruning ... 3 (G Style)
Weight generation scheme         WeightScheme... Becke
Basis function cutoff            BFCut       ...    1.0000e-10
Integration weight cutoff        WCut        ...    1.0000e-14
Grids for H and He will be reduced by one unit

# of grid points (after initial pruning)     ...  17510 (   0.0 sec)
# of grid points (after weights+screening)   ...  17421 (   0.0 sec)
nearest neighbour list constructed           ...    0.0 sec
Grid point re-assignment to atoms done       ...    0.0 sec
Grid point division into batches done        ...    0.1 sec
Reduced shell lists constructed in    0.1 sec

Total number of grid points                  ...    17421
Total number of batches                      ...      273
Average number of points per batch           ...       63
Average number of grid points per atom       ...     8710
Average number of shells per batch           ...     6.37 (79.65%)
Average number of basis functions per batch  ...    12.99 (81.20%)
Average number of large shells per batch     ...     6.08 (95.36%)
Average number of large basis fcns per batch ...    12.37 (95.20%)
Maximum spatial batch extension              ...  16.29, 16.29, 15.15 au
Average spatial batch extension              ...   3.21,  3.21,  2.61 au

Final grid set up in    0.1 sec
Final integration                            ... done (   0.1 sec)
Change in XC energy                          ...     0.000202744
Integrated number of electrons               ...     9.999999094
Previous integrated no of electrons          ...     9.999999904
Total Energy       :          -99.85274218 Eh           -2717.13125 eV
  Last Energy change         ...   -2.7332e-09  Tolerance :   1.0000e-06
  Last MAX-Density change    ...    3.6226e-06  Tolerance :   1.0000e-05
             **** THE GBW FILE WAS UPDATED (HF.gbw) ****
             **** DENSITY FILE WAS UPDATED (HF.scfp) ****
             **** ENERGY FILE WAS UPDATED (HF.en.tmp) ****
             **** THE GBW FILE WAS UPDATED (HF.gbw) ****
             **** DENSITY FILE WAS UPDATED (HF.scfp) ****
Total SCF time: 0 days 0 hours 0 min 1 sec 

-------------------------   --------------------
FINAL SINGLE POINT ENERGY       -99.852742178490
-------------------------   --------------------

Storing actual gbw-file in HF.002.gbw ... done

                            ***************************************
                            *     ORCA property calculations      *
                            ***************************************

                                    ---------------------
                                    Active property flags
                                    ---------------------
   (+) Dipole Moment


------------------------------------------------------------------------------
                       ORCA ELECTRIC PROPERTIES CALCULATION
------------------------------------------------------------------------------

Dipole Moment Calculation                       ... on
Quadrupole Moment Calculation                   ... off
Polarizability Calculation                      ... off
GBWName                                         ... HF.gbw
Electron density file                           ... HF.scfp
The origin for moment calculation is the CENTER OF MASS  = ( 0.000000,  0.000000  0.050692)

-------------
DIPOLE MOMENT
-------------
                                X             Y             Z
Electronic contribution:      0.00000       0.00000       0.01091
Nuclear contribution   :      0.00000       0.00000       0.49917
                        -----------------------------------------
Total Dipole Moment    :      0.00000       0.00000       0.51008
                        -----------------------------------------
Magnitude (a.u.)       :      0.51008
Magnitude (Debye)      :      1.29653



--------------------
Rotational spectrum 
--------------------
 
Rotational constants in cm-1:     0.000000    62.131617    62.131617 
Rotational constants in MHz :     0.000000 1862659.017957 1862659.017957 

 Dipole components along the rotational axes: 
x,y,z [a.u.] :     0.510083     0.000000     0.000000 
x,y,z [Debye]:     1.296528     0.000000     0.000000 

 

         *************************************************************
                                TRAJECTORY STEP   3
                  R  :   0.63240000
         *************************************************************
---------------------------------
CARTESIAN COORDINATES (ANGSTROEM)
---------------------------------
  F      0.000000    0.000000    0.000000
  H      0.000000    0.000000    0.632400

----------------------------
CARTESIAN COORDINATES (A.U.)
----------------------------
  NO LB      ZA    FRAG     MASS         X           Y           Z
   0 F     9.0000    0    18.998    0.000000    0.000000    0.000000
   1 H     1.0000    0     1.008    0.000000    0.000000    1.195063

--------------------------------
INTERNAL COORDINATES (ANGSTROEM)
--------------------------------
 F      0   0   0     0.000000000000     0.00000000     0.00000000
 H      1   0   0     0.632400000000     0.00000000     0.00000000

---------------------------
INTERNAL COORDINATES (A.U.)
---------------------------
 F      0   0   0     0.000000000000     0.00000000     0.00000000
 H      1   0   0     1.195062807092     0.00000000     0.00000000


Diagonalization of the overlap matrix:
Smallest eigenvalue                        ... 3.245e-02
Time for diagonalization                   ...    0.000 sec
Threshold for overlap eigenvalues          ... 1.000e-08
Number of eigenvalues below threshold      ... 0
Time for construction of square roots      ...    0.000 sec
Total time needed                          ...    0.001 sec

-------------------
DFT GRID GENERATION
-------------------

General Integration Accuracy     IntAcc      ...  4.670
Radial Grid Type                 RadialGrid  ... Gauss-Chebyshev
Angular Grid (max. acc.)         AngularGrid ... Lebedev-302
Angular grid pruning method      GridPruning ... 3 (G Style)
Weight generation scheme         WeightScheme... Becke
Basis function cutoff            BFCut       ...    1.0000e-10
Integration weight cutoff        WCut        ...    1.0000e-14
Grids for H and He will be reduced by one unit

# of grid points (after initial pruning)     ...   9666 (   0.0 sec)
# of grid points (after weights+screening)   ...   9632 (   0.0 sec)
nearest neighbour list constructed           ...    0.0 sec
Grid point re-assignment to atoms done       ...    0.0 sec
Grid point division into batches done        ...    0.0 sec
Reduced shell lists constructed in    0.0 sec

Total number of grid points                  ...     9632
Total number of batches                      ...      152
Average number of points per batch           ...       63
Average number of grid points per atom       ...     4816
Average number of shells per batch           ...     6.49 (81.13%)
Average number of basis functions per batch  ...    13.16 (82.23%)
Average number of large shells per batch     ...     6.22 (95.87%)
Average number of large basis fcns per batch ...    12.72 (96.67%)
Maximum spatial batch extension              ...  21.92, 19.94, 16.13 au
Average spatial batch extension              ...   3.98,  3.93,  3.15 au

Time for grid setup =    0.050 sec

--------------
SCF ITERATIONS
--------------
ITER       Energy         Delta-E        Max-DP      RMS-DP      [F,P]   Gradient Norm
               ***  Starting incremental Fock matrix formation  ***
                             ****Resetting KDIIS****
                             ****Turning on KDIIS(Cayley)****
  0   -100.1725352558   0.000000000000 0.01322514  0.00160618  0.0548832   0.054918280
  1   -100.1744917328  -0.001956477032 0.02523570  0.00283089  0.0503213   0.049086800
  2   -100.1771720168  -0.002680283998 0.03930037  0.00459567  0.0402497   0.039883678
  3   -100.1805238123  -0.003351795565 0.05485764  0.00667038  0.0242279   0.023954619
  4   -100.1824150274  -0.001891215061 0.00024856  0.00004125  0.0001618   0.000158729
                          ***Energy convergence achieved***
  5   -100.1824151278  -0.000000100367 0.00002333  0.00000280  0.0000203   0.000019515
Warning: badly conditioned DIIS matrix, 1 vectors out of 5 destroyed
                           ***RMSP convergence achieved***
                           ***MAXP convergence achieved***
                    *** KDIIS BlockDiag ( 1.061 sec) ***

               *****************************************************
               *                     SUCCESS                       *
               *           SCF CONVERGED AFTER   6 CYCLES          *
               *****************************************************

Setting up the final grid:

General Integration Accuracy     IntAcc      ...  5.010
Radial Grid Type                 RadialGrid  ... Gauss-Chebyshev
Angular Grid (max. acc.)         AngularGrid ... Lebedev-434
Angular grid pruning method      GridPruning ... 3 (G Style)
Weight generation scheme         WeightScheme... Becke
Basis function cutoff            BFCut       ...    1.0000e-10
Integration weight cutoff        WCut        ...    1.0000e-14
Grids for H and He will be reduced by one unit

# of grid points (after initial pruning)     ...  17510 (   0.0 sec)
# of grid points (after weights+screening)   ...  17435 (   0.0 sec)
nearest neighbour list constructed           ...    0.0 sec
Grid point re-assignment to atoms done       ...    0.0 sec
Grid point division into batches done        ...    0.1 sec
Reduced shell lists constructed in    0.1 sec

Total number of grid points                  ...    17435
Total number of batches                      ...      273
Average number of points per batch           ...       63
Average number of grid points per atom       ...     8718
Average number of shells per batch           ...     6.38 (79.79%)
Average number of basis functions per batch  ...    13.00 (81.27%)
Average number of large shells per batch     ...     6.03 (94.40%)
Average number of large basis fcns per batch ...    12.29 (94.50%)
Maximum spatial batch extension              ...  16.29, 16.29, 15.15 au
Average spatial batch extension              ...   3.24,  3.22,  2.64 au

Final grid set up in    0.1 sec
Final integration                            ... done (   0.1 sec)
Change in XC energy                          ...     0.000211318
Integrated number of electrons               ...     9.999998906
Previous integrated no of electrons          ...     9.999999280
Total Energy       :         -100.18220381 Eh           -2726.09636 eV
  Last Energy change         ...   -1.2526e-09  Tolerance :   1.0000e-06
  Last MAX-Density change    ...    1.5646e-06  Tolerance :   1.0000e-05
             **** THE GBW FILE WAS UPDATED (HF.gbw) ****
             **** DENSITY FILE WAS UPDATED (HF.scfp) ****
             **** ENERGY FILE WAS UPDATED (HF.en.tmp) ****
             **** THE GBW FILE WAS UPDATED (HF.gbw) ****
             **** DENSITY FILE WAS UPDATED (HF.scfp) ****
Total SCF time: 0 days 0 hours 0 min 1 sec 

-------------------------   --------------------
FINAL SINGLE POINT ENERGY      -100.182203811088
-------------------------   --------------------

Storing actual gbw-file in HF.003.gbw ... done

                            ***************************************
                            *     ORCA property calculations      *
                            ***************************************

                                    ---------------------
                                    Active property flags
                                    ---------------------
   (+) Dipole Moment


------------------------------------------------------------------------------
                       ORCA ELECTRIC PROPERTIES CALCULATION
------------------------------------------------------------------------------

Dipole Moment Calculation                       ... on
Quadrupole Moment Calculation                   ... off
Polarizability Calculation                      ... off
GBWName                                         ... HF.gbw
Electron density file                           ... HF.scfp
The origin for moment calculation is the CENTER OF MASS  = ( 0.000000,  0.000000  0.060213)

-------------
DIPOLE MOMENT
-------------
                                X             Y             Z
Electronic contribution:      0.00000       0.00000      -0.02806
Nuclear contribution   :      0.00000       0.00000       0.59293
                        -----------------------------------------
Total Dipole Moment    :      0.00000       0.00000       0.56488
                        -----------------------------------------
Magnitude (a.u.)       :      0.56488
Magnitude (Debye)      :      1.43580



--------------------
Rotational spectrum 
--------------------
 
Rotational constants in cm-1:     0.000000    44.035712    44.035712 
Rotational constants in MHz :     0.000000 1320157.448652 1320157.448652 

 Dipole components along the rotational axes: 
x,y,z [a.u.] :     0.564876     0.000000     0.000000 
x,y,z [Debye]:     1.435800     0.000000     0.000000 

 

         *************************************************************
                                TRAJECTORY STEP   4
                  R  :   0.73240000
         *************************************************************
---------------------------------
CARTESIAN COORDINATES (ANGSTROEM)
---------------------------------
  F      0.000000    0.000000    0.000000
  H      0.000000    0.000000    0.732400

----------------------------
CARTESIAN COORDINATES (A.U.)
----------------------------
  NO LB      ZA    FRAG     MASS         X           Y           Z
   0 F     9.0000    0    18.998    0.000000    0.000000    0.000000
   1 H     1.0000    0     1.008    0.000000    0.000000    1.384035

--------------------------------
INTERNAL COORDINATES (ANGSTROEM)
--------------------------------
 F      0   0   0     0.000000000000     0.00000000     0.00000000
 H      1   0   0     0.732400000000     0.00000000     0.00000000

---------------------------
INTERNAL COORDINATES (A.U.)
---------------------------
 F      0   0   0     0.000000000000     0.00000000     0.00000000
 H      1   0   0     1.384035420484     0.00000000     0.00000000


Diagonalization of the overlap matrix:
Smallest eigenvalue                        ... 4.814e-02
Time for diagonalization                   ...    0.000 sec
Threshold for overlap eigenvalues          ... 1.000e-08
Number of eigenvalues below threshold      ... 0
Time for construction of square roots      ...    0.000 sec
Total time needed                          ...    0.001 sec

-------------------
DFT GRID GENERATION
-------------------

General Integration Accuracy     IntAcc      ...  4.670
Radial Grid Type                 RadialGrid  ... Gauss-Chebyshev
Angular Grid (max. acc.)         AngularGrid ... Lebedev-302
Angular grid pruning method      GridPruning ... 3 (G Style)
Weight generation scheme         WeightScheme... Becke
Basis function cutoff            BFCut       ...    1.0000e-10
Integration weight cutoff        WCut        ...    1.0000e-14
Grids for H and He will be reduced by one unit

# of grid points (after initial pruning)     ...   9666 (   0.0 sec)
# of grid points (after weights+screening)   ...   9633 (   0.0 sec)
nearest neighbour list constructed           ...    0.0 sec
Grid point re-assignment to atoms done       ...    0.0 sec
Grid point division into batches done        ...    0.0 sec
Reduced shell lists constructed in    0.0 sec

Total number of grid points                  ...     9633
Total number of batches                      ...      152
Average number of points per batch           ...       63
Average number of grid points per atom       ...     4816
Average number of shells per batch           ...     6.44 (80.56%)
Average number of basis functions per batch  ...    13.08 (81.78%)
Average number of large shells per batch     ...     6.19 (96.04%)
Average number of large basis fcns per batch ...    12.67 (96.85%)
Maximum spatial batch extension              ...  21.92, 19.94, 15.94 au
Average spatial batch extension              ...   3.99,  3.99,  3.19 au

Time for grid setup =    0.050 sec

--------------
SCF ITERATIONS
--------------
ITER       Energy         Delta-E        Max-DP      RMS-DP      [F,P]   Gradient Norm
               ***  Starting incremental Fock matrix formation  ***
                             ****Resetting KDIIS****
                             ****Turning on KDIIS(Cayley)****
  0   -100.3196730952   0.000000000000 0.00810294  0.00115869  0.0468931   0.047345719
  1   -100.3212609383  -0.001587843151 0.01597982  0.00202009  0.0428550   0.042281757
  2   -100.3234629248  -0.002201986523 0.02497034  0.00339721  0.0345462   0.034524656
  3   -100.3262678563  -0.002804931408 0.03488571  0.00502742  0.0207652   0.020745253
  4   -100.3278611612  -0.001593304932 0.00020951  0.00003397  0.0001607   0.000144899
                          ***Energy convergence achieved***
  5   -100.3278612566  -0.000000095372 0.00001488  0.00000176  0.0000122   0.000011546
Warning: badly conditioned DIIS matrix, 1 vectors out of 5 destroyed
                           ***RMSP convergence achieved***
                           ***MAXP convergence achieved***
                    *** KDIIS BlockDiag ( 1.060 sec) ***

               *****************************************************
               *                     SUCCESS                       *
               *           SCF CONVERGED AFTER   6 CYCLES          *
               *****************************************************

Setting up the final grid:

General Integration Accuracy     IntAcc      ...  5.010
Radial Grid Type                 RadialGrid  ... Gauss-Chebyshev
Angular Grid (max. acc.)         AngularGrid ... Lebedev-434
Angular grid pruning method      GridPruning ... 3 (G Style)
Weight generation scheme         WeightScheme... Becke
Basis function cutoff            BFCut       ...    1.0000e-10
Integration weight cutoff        WCut        ...    1.0000e-14
Grids for H and He will be reduced by one unit

# of grid points (after initial pruning)     ...  17510 (   0.0 sec)
# of grid points (after weights+screening)   ...  17445 (   0.0 sec)
nearest neighbour list constructed           ...    0.0 sec
Grid point re-assignment to atoms done       ...    0.0 sec
Grid point division into batches done        ...    0.1 sec
Reduced shell lists constructed in    0.1 sec

Total number of grid points                  ...    17445
Total number of batches                      ...      273
Average number of points per batch           ...       63
Average number of grid points per atom       ...     8722
Average number of shells per batch           ...     6.36 (79.47%)
Average number of basis functions per batch  ...    12.98 (81.11%)
Average number of large shells per batch     ...     6.01 (94.49%)
Average number of large basis fcns per batch ...    12.28 (94.60%)
Maximum spatial batch extension              ...  16.29, 16.29, 15.15 au
Average spatial batch extension              ...   3.25,  3.23,  2.64 au

Final grid set up in    0.1 sec
Final integration                            ... done (   0.1 sec)
Change in XC energy                          ...     0.000196887
Integrated number of electrons               ...     9.999999079
Previous integrated no of electrons          ...     9.999997650
Total Energy       :         -100.32766437 Eh           -2730.05454 eV
  Last Energy change         ...   -5.6042e-10  Tolerance :   1.0000e-06
  Last MAX-Density change    ...    2.1850e-06  Tolerance :   1.0000e-05
             **** THE GBW FILE WAS UPDATED (HF.gbw) ****
             **** DENSITY FILE WAS UPDATED (HF.scfp) ****
             **** ENERGY FILE WAS UPDATED (HF.en.tmp) ****
             **** THE GBW FILE WAS UPDATED (HF.gbw) ****
             **** DENSITY FILE WAS UPDATED (HF.scfp) ****
Total SCF time: 0 days 0 hours 0 min 1 sec 

-------------------------   --------------------
FINAL SINGLE POINT ENERGY      -100.327664369769
-------------------------   --------------------

Storing actual gbw-file in HF.004.gbw ... done

                            ***************************************
                            *     ORCA property calculations      *
                            ***************************************

                                    ---------------------
                                    Active property flags
                                    ---------------------
   (+) Dipole Moment


------------------------------------------------------------------------------
                       ORCA ELECTRIC PROPERTIES CALCULATION
------------------------------------------------------------------------------

Dipole Moment Calculation                       ... on
Quadrupole Moment Calculation                   ... off
Polarizability Calculation                      ... off
GBWName                                         ... HF.gbw
Electron density file                           ... HF.scfp
The origin for moment calculation is the CENTER OF MASS  = ( 0.000000,  0.000000  0.069734)

-------------
DIPOLE MOMENT
-------------
                                X             Y             Z
Electronic contribution:     -0.00000      -0.00000      -0.05985
Nuclear contribution   :      0.00000       0.00000       0.68669
                        -----------------------------------------
Total Dipole Moment    :     -0.00000      -0.00000       0.62684
                        -----------------------------------------
Magnitude (a.u.)       :      0.62684
Magnitude (Debye)      :      1.59331



--------------------
Rotational spectrum 
--------------------
 
Rotational constants in cm-1:     0.000000    32.831602    32.831602 
Rotational constants in MHz :     0.000000 984266.676284 984266.676284 

 Dipole components along the rotational axes: 
x,y,z [a.u.] :     0.626844    -0.000000    -0.000000 
x,y,z [Debye]:     1.593310    -0.000000    -0.000000 

 

         *************************************************************
                                TRAJECTORY STEP   5
                  R  :   0.83240000
         *************************************************************
---------------------------------
CARTESIAN COORDINATES (ANGSTROEM)
---------------------------------
  F      0.000000    0.000000    0.000000
  H      0.000000    0.000000    0.832400

----------------------------
CARTESIAN COORDINATES (A.U.)
----------------------------
  NO LB      ZA    FRAG     MASS         X           Y           Z
   0 F     9.0000    0    18.998    0.000000    0.000000    0.000000
   1 H     1.0000    0     1.008    0.000000    0.000000    1.573008

--------------------------------
INTERNAL COORDINATES (ANGSTROEM)
--------------------------------
 F      0   0   0     0.000000000000     0.00000000     0.00000000
 H      1   0   0     0.832400000000     0.00000000     0.00000000

---------------------------
INTERNAL COORDINATES (A.U.)
---------------------------
 F      0   0   0     0.000000000000     0.00000000     0.00000000
 H      1   0   0     1.573008033876     0.00000000     0.00000000


Diagonalization of the overlap matrix:
Smallest eigenvalue                        ... 7.081e-02
Time for diagonalization                   ...    0.000 sec
Threshold for overlap eigenvalues          ... 1.000e-08
Number of eigenvalues below threshold      ... 0
Time for construction of square roots      ...    0.000 sec
Total time needed                          ...    0.001 sec

-------------------
DFT GRID GENERATION
-------------------

General Integration Accuracy     IntAcc      ...  4.670
Radial Grid Type                 RadialGrid  ... Gauss-Chebyshev
Angular Grid (max. acc.)         AngularGrid ... Lebedev-302
Angular grid pruning method      GridPruning ... 3 (G Style)
Weight generation scheme         WeightScheme... Becke
Basis function cutoff            BFCut       ...    1.0000e-10
Integration weight cutoff        WCut        ...    1.0000e-14
Grids for H and He will be reduced by one unit

# of grid points (after initial pruning)     ...   9666 (   0.0 sec)
# of grid points (after weights+screening)   ...   9635 (   0.0 sec)
nearest neighbour list constructed           ...    0.0 sec
Grid point re-assignment to atoms done       ...    0.0 sec
Grid point division into batches done        ...    0.0 sec
Reduced shell lists constructed in    0.0 sec

Total number of grid points                  ...     9635
Total number of batches                      ...      151
Average number of points per batch           ...       63
Average number of grid points per atom       ...     4818
Average number of shells per batch           ...     6.47 (80.84%)
Average number of basis functions per batch  ...    13.20 (82.52%)
Average number of large shells per batch     ...     6.15 (95.12%)
Average number of large basis fcns per batch ...    12.62 (95.62%)
Maximum spatial batch extension              ...  21.92, 19.94, 15.75 au
Average spatial batch extension              ...   4.01,  3.98,  3.20 au

Time for grid setup =    0.050 sec

--------------
SCF ITERATIONS
--------------
ITER       Energy         Delta-E        Max-DP      RMS-DP      [F,P]   Gradient Norm
               ***  Starting incremental Fock matrix formation  ***
                             ****Resetting KDIIS****
                             ****Turning on KDIIS(Cayley)****
  0   -100.3787542058   0.000000000000 0.00494648  0.00078215  0.0334186   0.036947704
  1   -100.3798563479  -0.001102142117 0.00909156  0.00133918  0.0288254   0.032918634
  2   -100.3813862303  -0.001529882426 0.01412524  0.00233393  0.0241283   0.027033163
  3   -100.3833836161  -0.001997385760 0.02081400  0.00349980  0.0144029   0.016270872
  4   -100.3845291035  -0.001145487457 0.00018404  0.00002614  0.0001499   0.000119673
                          ***Energy convergence achieved***
  5   -100.3845291748  -0.000000071243 0.00001431  0.00000144  0.0000107   0.000008306
Warning: badly conditioned DIIS matrix, 1 vectors out of 5 destroyed
Warning: badly conditioned DIIS matrix, 1 vectors out of 4 destroyed
                           ***RMSP convergence achieved***
                           ***MAXP convergence achieved***
                    *** KDIIS BlockDiag ( 1.060 sec) ***

               *****************************************************
               *                     SUCCESS                       *
               *           SCF CONVERGED AFTER   6 CYCLES          *
               *****************************************************

Setting up the final grid:

General Integration Accuracy     IntAcc      ...  5.010
Radial Grid Type                 RadialGrid  ... Gauss-Chebyshev
Angular Grid (max. acc.)         AngularGrid ... Lebedev-434
Angular grid pruning method      GridPruning ... 3 (G Style)
Weight generation scheme         WeightScheme... Becke
Basis function cutoff            BFCut       ...    1.0000e-10
Integration weight cutoff        WCut        ...    1.0000e-14
Grids for H and He will be reduced by one unit

# of grid points (after initial pruning)     ...  17510 (   0.0 sec)
# of grid points (after weights+screening)   ...  17451 (   0.0 sec)
nearest neighbour list constructed           ...    0.0 sec
Grid point re-assignment to atoms done       ...    0.0 sec
Grid point division into batches done        ...    0.1 sec
Reduced shell lists constructed in    0.1 sec

Total number of grid points                  ...    17451
Total number of batches                      ...      274
Average number of points per batch           ...       63
Average number of grid points per atom       ...     8726
Average number of shells per batch           ...     6.35 (79.41%)
Average number of basis functions per batch  ...    12.96 (81.02%)
Average number of large shells per batch     ...     5.96 (93.76%)
Average number of large basis fcns per batch ...    12.18 (93.97%)
Maximum spatial batch extension              ...  16.29, 16.29, 15.15 au
Average spatial batch extension              ...   3.22,  3.24,  2.64 au

Final grid set up in    0.1 sec
Final integration                            ... done (   0.1 sec)
Change in XC energy                          ...     0.000183579
Integrated number of electrons               ...     9.999999963
Previous integrated no of electrons          ...     9.999998190
Total Energy       :         -100.38434560 Eh           -2731.59692 eV
  Last Energy change         ...   -3.3026e-10  Tolerance :   1.0000e-06
  Last MAX-Density change    ...    1.9207e-06  Tolerance :   1.0000e-05
             **** THE GBW FILE WAS UPDATED (HF.gbw) ****
             **** DENSITY FILE WAS UPDATED (HF.scfp) ****
             **** ENERGY FILE WAS UPDATED (HF.en.tmp) ****
             **** THE GBW FILE WAS UPDATED (HF.gbw) ****
             **** DENSITY FILE WAS UPDATED (HF.scfp) ****
Total SCF time: 0 days 0 hours 0 min 1 sec 

-------------------------   --------------------
FINAL SINGLE POINT ENERGY      -100.384345596070
-------------------------   --------------------

Storing actual gbw-file in HF.005.gbw ... done

                            ***************************************
                            *     ORCA property calculations      *
                            ***************************************

                                    ---------------------
                                    Active property flags
                                    ---------------------
   (+) Dipole Moment


------------------------------------------------------------------------------
                       ORCA ELECTRIC PROPERTIES CALCULATION
------------------------------------------------------------------------------

Dipole Moment Calculation                       ... on
Quadrupole Moment Calculation                   ... off
Polarizability Calculation                      ... off
GBWName                                         ... HF.gbw
Electron density file                           ... HF.scfp
The origin for moment calculation is the CENTER OF MASS  = ( 0.000000,  0.000000  0.079256)

-------------
DIPOLE MOMENT
-------------
                                X             Y             Z
Electronic contribution:      0.00000      -0.00000      -0.09074
Nuclear contribution   :      0.00000       0.00000       0.78045
                        -----------------------------------------
Total Dipole Moment    :      0.00000      -0.00000       0.68971
                        -----------------------------------------
Magnitude (a.u.)       :      0.68971
Magnitude (Debye)      :      1.75311



--------------------
Rotational spectrum 
--------------------
 
Rotational constants in cm-1:     0.000000    25.417019    25.417019 
Rotational constants in MHz :     0.000000 761983.048504 761983.048504 

 Dipole components along the rotational axes: 
x,y,z [a.u.] :     0.689711    -0.000000     0.000000 
x,y,z [Debye]:     1.753106    -0.000000     0.000000 

 

         *************************************************************
                                TRAJECTORY STEP   6
                  R  :   0.93240000
         *************************************************************
---------------------------------
CARTESIAN COORDINATES (ANGSTROEM)
---------------------------------
  F      0.000000    0.000000    0.000000
  H      0.000000    0.000000    0.932400

----------------------------
CARTESIAN COORDINATES (A.U.)
----------------------------
  NO LB      ZA    FRAG     MASS         X           Y           Z
   0 F     9.0000    0    18.998    0.000000    0.000000    0.000000
   1 H     1.0000    0     1.008    0.000000    0.000000    1.761981

--------------------------------
INTERNAL COORDINATES (ANGSTROEM)
--------------------------------
 F      0   0   0     0.000000000000     0.00000000     0.00000000
 H      1   0   0     0.932400000000     0.00000000     0.00000000

---------------------------
INTERNAL COORDINATES (A.U.)
---------------------------
 F      0   0   0     0.000000000000     0.00000000     0.00000000
 H      1   0   0     1.761980647268     0.00000000     0.00000000


Diagonalization of the overlap matrix:
Smallest eigenvalue                        ... 9.764e-02
Time for diagonalization                   ...    0.000 sec
Threshold for overlap eigenvalues          ... 1.000e-08
Number of eigenvalues below threshold      ... 0
Time for construction of square roots      ...    0.000 sec
Total time needed                          ...    0.001 sec

-------------------
DFT GRID GENERATION
-------------------

General Integration Accuracy     IntAcc      ...  4.670
Radial Grid Type                 RadialGrid  ... Gauss-Chebyshev
Angular Grid (max. acc.)         AngularGrid ... Lebedev-302
Angular grid pruning method      GridPruning ... 3 (G Style)
Weight generation scheme         WeightScheme... Becke
Basis function cutoff            BFCut       ...    1.0000e-10
Integration weight cutoff        WCut        ...    1.0000e-14
Grids for H and He will be reduced by one unit

# of grid points (after initial pruning)     ...   9666 (   0.0 sec)
# of grid points (after weights+screening)   ...   9637 (   0.0 sec)
nearest neighbour list constructed           ...    0.0 sec
Grid point re-assignment to atoms done       ...    0.0 sec
Grid point division into batches done        ...    0.0 sec
Reduced shell lists constructed in    0.0 sec

Total number of grid points                  ...     9637
Total number of batches                      ...      152
Average number of points per batch           ...       63
Average number of grid points per atom       ...     4818
Average number of shells per batch           ...     6.43 (80.39%)
Average number of basis functions per batch  ...    13.06 (81.62%)
Average number of large shells per batch     ...     6.11 (95.02%)
Average number of large basis fcns per batch ...    12.56 (96.15%)
Maximum spatial batch extension              ...  21.92, 19.94, 15.73 au
Average spatial batch extension              ...   4.02,  3.99,  3.20 au

Time for grid setup =    0.050 sec

--------------
SCF ITERATIONS
--------------
ITER       Energy         Delta-E        Max-DP      RMS-DP      [F,P]   Gradient Norm
               ***  Starting incremental Fock matrix formation  ***
                             ****Resetting KDIIS****
                             ****Turning on KDIIS(Cayley)****
  0   -100.3933850834   0.000000000000 0.00435496  0.00055982  0.0253164   0.028322763
  1   -100.3941255307  -0.000740447292 0.00590101  0.00096623  0.0231123   0.025202837
  2   -100.3951624136  -0.001036882902 0.01236421  0.00174346  0.0186522   0.020811642
  3   -100.3965514656  -0.001389052030 0.01891673  0.00265044  0.0112795   0.012565950
  4   -100.3973546297  -0.000803164077 0.00013216  0.00001779  0.0001099   0.000091705
                          ***Energy convergence achieved***
  5   -100.3973546729  -0.000000043152 0.00001458  0.00000132  0.0000097   0.000007049
Warning: badly conditioned DIIS matrix, 1 vectors out of 5 destroyed
Warning: badly conditioned DIIS matrix, 1 vectors out of 4 destroyed
                           ***RMSP convergence achieved***
                           ***MAXP convergence achieved***
                    *** KDIIS BlockDiag ( 1.054 sec) ***

               *****************************************************
               *                     SUCCESS                       *
               *           SCF CONVERGED AFTER   6 CYCLES          *
               *****************************************************

Setting up the final grid:

General Integration Accuracy     IntAcc      ...  5.010
Radial Grid Type                 RadialGrid  ... Gauss-Chebyshev
Angular Grid (max. acc.)         AngularGrid ... Lebedev-434
Angular grid pruning method      GridPruning ... 3 (G Style)
Weight generation scheme         WeightScheme... Becke
Basis function cutoff            BFCut       ...    1.0000e-10
Integration weight cutoff        WCut        ...    1.0000e-14
Grids for H and He will be reduced by one unit

# of grid points (after initial pruning)     ...  17510 (   0.0 sec)
# of grid points (after weights+screening)   ...  17457 (   0.0 sec)
nearest neighbour list constructed           ...    0.0 sec
Grid point re-assignment to atoms done       ...    0.0 sec
Grid point division into batches done        ...    0.1 sec
Reduced shell lists constructed in    0.1 sec

Total number of grid points                  ...    17457
Total number of batches                      ...      274
Average number of points per batch           ...       63
Average number of grid points per atom       ...     8728
Average number of shells per batch           ...     6.33 (79.09%)
Average number of basis functions per batch  ...    12.91 (80.68%)
Average number of large shells per batch     ...     5.93 (93.74%)
Average number of large basis fcns per batch ...    12.20 (94.51%)
Maximum spatial batch extension              ...  16.29, 16.29, 15.15 au
Average spatial batch extension              ...   3.21,  3.22,  2.66 au

Final grid set up in    0.1 sec
Final integration                            ... done (   0.1 sec)
Change in XC energy                          ...     0.000176087
Integrated number of electrons               ...    10.000000636
Previous integrated no of electrons          ...     9.999999547
Total Energy       :         -100.39717859 Eh           -2731.94612 eV
  Last Energy change         ...   -2.6961e-10  Tolerance :   1.0000e-06
  Last MAX-Density change    ...    2.1139e-06  Tolerance :   1.0000e-05
             **** THE GBW FILE WAS UPDATED (HF.gbw) ****
             **** DENSITY FILE WAS UPDATED (HF.scfp) ****
             **** ENERGY FILE WAS UPDATED (HF.en.tmp) ****
             **** THE GBW FILE WAS UPDATED (HF.gbw) ****
             **** DENSITY FILE WAS UPDATED (HF.scfp) ****
Total SCF time: 0 days 0 hours 0 min 1 sec 

-------------------------   --------------------
FINAL SINGLE POINT ENERGY      -100.397178586348
-------------------------   --------------------

Storing actual gbw-file in HF.006.gbw ... done

                            ***************************************
                            *     ORCA property calculations      *
                            ***************************************

                                    ---------------------
                                    Active property flags
                                    ---------------------
   (+) Dipole Moment


------------------------------------------------------------------------------
                       ORCA ELECTRIC PROPERTIES CALCULATION
------------------------------------------------------------------------------

Dipole Moment Calculation                       ... on
Quadrupole Moment Calculation                   ... off
Polarizability Calculation                      ... off
GBWName                                         ... HF.gbw
Electron density file                           ... HF.scfp
The origin for moment calculation is the CENTER OF MASS  = ( 0.000000,  0.000000  0.088777)

-------------
DIPOLE MOMENT
-------------
                                X             Y             Z
Electronic contribution:     -0.00000      -0.00000      -0.12642
Nuclear contribution   :      0.00000       0.00000       0.87421
                        -----------------------------------------
Total Dipole Moment    :     -0.00000      -0.00000       0.74778
                        -----------------------------------------
Magnitude (a.u.)       :      0.74778
Magnitude (Debye)      :      1.90072



--------------------
Rotational spectrum 
--------------------
 
Rotational constants in cm-1:     0.000000    20.257424    20.257424 
Rotational constants in MHz :     0.000000 607302.296323 607302.296323 

 Dipole components along the rotational axes: 
x,y,z [a.u.] :     0.747785    -0.000000    -0.000000 
x,y,z [Debye]:     1.900718    -0.000000    -0.000000 

 

         *************************************************************
                                TRAJECTORY STEP   7
                  R  :   1.03240000
         *************************************************************
---------------------------------
CARTESIAN COORDINATES (ANGSTROEM)
---------------------------------
  F      0.000000    0.000000    0.000000
  H      0.000000    0.000000    1.032400

----------------------------
CARTESIAN COORDINATES (A.U.)
----------------------------
  NO LB      ZA    FRAG     MASS         X           Y           Z
   0 F     9.0000    0    18.998    0.000000    0.000000    0.000000
   1 H     1.0000    0     1.008    0.000000    0.000000    1.950953

--------------------------------
INTERNAL COORDINATES (ANGSTROEM)
--------------------------------
 F      0   0   0     0.000000000000     0.00000000     0.00000000
 H      1   0   0     1.032400000000     0.00000000     0.00000000

---------------------------
INTERNAL COORDINATES (A.U.)
---------------------------
 F      0   0   0     0.000000000000     0.00000000     0.00000000
 H      1   0   0     1.950953260660     0.00000000     0.00000000


Diagonalization of the overlap matrix:
Smallest eigenvalue                        ... 1.234e-01
Time for diagonalization                   ...    0.000 sec
Threshold for overlap eigenvalues          ... 1.000e-08
Number of eigenvalues below threshold      ... 0
Time for construction of square roots      ...    0.000 sec
Total time needed                          ...    0.001 sec

-------------------
DFT GRID GENERATION
-------------------

General Integration Accuracy     IntAcc      ...  4.670
Radial Grid Type                 RadialGrid  ... Gauss-Chebyshev
Angular Grid (max. acc.)         AngularGrid ... Lebedev-302
Angular grid pruning method      GridPruning ... 3 (G Style)
Weight generation scheme         WeightScheme... Becke
Basis function cutoff            BFCut       ...    1.0000e-10
Integration weight cutoff        WCut        ...    1.0000e-14
Grids for H and He will be reduced by one unit

# of grid points (after initial pruning)     ...   9666 (   0.0 sec)
# of grid points (after weights+screening)   ...   9638 (   0.0 sec)
nearest neighbour list constructed           ...    0.0 sec
Grid point re-assignment to atoms done       ...    0.0 sec
Grid point division into batches done        ...    0.0 sec
Reduced shell lists constructed in    0.0 sec

Total number of grid points                  ...     9638
Total number of batches                      ...      152
Average number of points per batch           ...       63
Average number of grid points per atom       ...     4819
Average number of shells per batch           ...     6.35 (79.41%)
Average number of basis functions per batch  ...    12.95 (80.96%)
Average number of large shells per batch     ...     6.10 (95.99%)
Average number of large basis fcns per batch ...    12.53 (96.72%)
Maximum spatial batch extension              ...  21.92, 19.94, 15.73 au
Average spatial batch extension              ...   3.96,  3.96,  3.21 au

Time for grid setup =    0.050 sec

--------------
SCF ITERATIONS
--------------
ITER       Energy         Delta-E        Max-DP      RMS-DP      [F,P]   Gradient Norm
               ***  Starting incremental Fock matrix formation  ***
                             ****Resetting KDIIS****
                             ****Turning on KDIIS(Cayley)****
  0   -100.3857538280   0.000000000000 0.00373265  0.00044689  0.0221042   0.022251363
  1   -100.3862649292  -0.000511101155 0.00576939  0.00079655  0.0201115   0.019804277
  2   -100.3869895377  -0.000724608466 0.01108792  0.00147177  0.0162867   0.016422695
  3   -100.3879820928  -0.000992555112 0.01681877  0.00225475  0.0098524   0.009954226
  4   -100.3885585182  -0.000576425458 0.00008449  0.00001203  0.0000713   0.000067386
                          ***Energy convergence achieved***
  5   -100.3885585413  -0.000000023117 0.00001394  0.00000121  0.0000080   0.000006026
Warning: badly conditioned DIIS matrix, 1 vectors out of 5 destroyed
Warning: badly conditioned DIIS matrix, 1 vectors out of 4 destroyed
                           ***RMSP convergence achieved***
                           ***MAXP convergence achieved***
                    *** KDIIS BlockDiag ( 1.052 sec) ***

               *****************************************************
               *                     SUCCESS                       *
               *           SCF CONVERGED AFTER   6 CYCLES          *
               *****************************************************

Setting up the final grid:

General Integration Accuracy     IntAcc      ...  5.010
Radial Grid Type                 RadialGrid  ... Gauss-Chebyshev
Angular Grid (max. acc.)         AngularGrid ... Lebedev-434
Angular grid pruning method      GridPruning ... 3 (G Style)
Weight generation scheme         WeightScheme... Becke
Basis function cutoff            BFCut       ...    1.0000e-10
Integration weight cutoff        WCut        ...    1.0000e-14
Grids for H and He will be reduced by one unit

# of grid points (after initial pruning)     ...  17510 (   0.0 sec)
# of grid points (after weights+screening)   ...  17462 (   0.0 sec)
nearest neighbour list constructed           ...    0.0 sec
Grid point re-assignment to atoms done       ...    0.0 sec
Grid point division into batches done        ...    0.1 sec
Reduced shell lists constructed in    0.1 sec

Total number of grid points                  ...    17462
Total number of batches                      ...      274
Average number of points per batch           ...       63
Average number of grid points per atom       ...     8731
Average number of shells per batch           ...     6.28 (78.45%)
Average number of basis functions per batch  ...    12.81 (80.05%)
Average number of large shells per batch     ...     5.89 (93.86%)
Average number of large basis fcns per batch ...    12.12 (94.61%)
Maximum spatial batch extension              ...  16.29, 16.29, 15.15 au
Average spatial batch extension              ...   3.26,  3.17,  2.68 au

Final grid set up in    0.1 sec
Final integration                            ... done (   0.1 sec)
Change in XC energy                          ...     0.000166966
Integrated number of electrons               ...     9.999999884
Previous integrated no of electrons          ...     9.999992611
Total Energy       :         -100.38839158 Eh           -2731.70701 eV
  Last Energy change         ...   -2.1919e-10  Tolerance :   1.0000e-06
  Last MAX-Density change    ...    1.8036e-06  Tolerance :   1.0000e-05
             **** THE GBW FILE WAS UPDATED (HF.gbw) ****
             **** DENSITY FILE WAS UPDATED (HF.scfp) ****
             **** ENERGY FILE WAS UPDATED (HF.en.tmp) ****
             **** THE GBW FILE WAS UPDATED (HF.gbw) ****
             **** DENSITY FILE WAS UPDATED (HF.scfp) ****
Total SCF time: 0 days 0 hours 0 min 1 sec 

-------------------------   --------------------
FINAL SINGLE POINT ENERGY      -100.388391575071
-------------------------   --------------------

Storing actual gbw-file in HF.007.gbw ... done

                            ***************************************
                            *     ORCA property calculations      *
                            ***************************************

                                    ---------------------
                                    Active property flags
                                    ---------------------
   (+) Dipole Moment


------------------------------------------------------------------------------
                       ORCA ELECTRIC PROPERTIES CALCULATION
------------------------------------------------------------------------------

[...]
                          ***Energy convergence achieved***
  1   -100.0279141340  -0.000000102022 0.00005053  0.00000712  0.0001725   0.000133526
  2   -100.0279141888  -0.000000054771 0.00009301  0.00001229  0.0001550   0.000109583
  3   -100.0279142677  -0.000000078858 0.00013781  0.00001867  0.0000905   0.000066248
                           ***RMSP convergence achieved***
                           ***MAXP convergence achieved***
                    *** KDIIS BlockDiag ( 0.816 sec) ***

               *****************************************************
               *                     SUCCESS                       *
               *           SCF CONVERGED AFTER   4 CYCLES          *
               *****************************************************

Setting up the final grid:

General Integration Accuracy     IntAcc      ...  5.010
Radial Grid Type                 RadialGrid  ... Gauss-Chebyshev
Angular Grid (max. acc.)         AngularGrid ... Lebedev-434
Angular grid pruning method      GridPruning ... 3 (G Style)
Weight generation scheme         WeightScheme... Becke
Basis function cutoff            BFCut       ...    1.0000e-10
Integration weight cutoff        WCut        ...    1.0000e-14
Grids for H and He will be reduced by one unit

# of grid points (after initial pruning)     ...  17510 (   0.0 sec)
# of grid points (after weights+screening)   ...  17502 (   0.0 sec)
nearest neighbour list constructed           ...    0.0 sec
Grid point re-assignment to atoms done       ...    0.0 sec
Grid point division into batches done        ...    0.1 sec
Reduced shell lists constructed in    0.1 sec

Total number of grid points                  ...    17502
Total number of batches                      ...      274
Average number of points per batch           ...       63
Average number of grid points per atom       ...     8751
Average number of shells per batch           ...     4.25 (53.09%)
Average number of basis functions per batch  ...     8.51 (53.18%)
Average number of large shells per batch     ...     3.65 (85.96%)
Average number of large basis fcns per batch ...     7.60 (89.32%)
Maximum spatial batch extension              ...  16.29, 16.29, 15.51 au
Average spatial batch extension              ...   3.42,  3.37,  3.39 au

Final grid set up in    0.1 sec
Final integration                            ... done (   0.1 sec)
Change in XC energy                          ...     0.000156499
Integrated number of electrons               ...     9.999995953
Previous integrated no of electrons          ...    10.000013771
Total Energy       :         -100.02775781 Eh           -2721.89367 eV
  Last Energy change         ...   -4.4711e-08  Tolerance :   1.0000e-06
  Last MAX-Density change    ...    2.2101e-07  Tolerance :   1.0000e-05
             **** THE GBW FILE WAS UPDATED (HF.gbw) ****
             **** DENSITY FILE WAS UPDATED (HF.scfp) ****
             **** ENERGY FILE WAS UPDATED (HF.en.tmp) ****
             **** THE GBW FILE WAS UPDATED (HF.gbw) ****
             **** DENSITY FILE WAS UPDATED (HF.scfp) ****
Total SCF time: 0 days 0 hours 0 min 1 sec 

-------------------------   --------------------
FINAL SINGLE POINT ENERGY      -100.027757813627
-------------------------   --------------------

Storing actual gbw-file in HF.045.gbw ... done

                            ***************************************
                            *     ORCA property calculations      *
                            ***************************************

                                    ---------------------
                                    Active property flags
                                    ---------------------
   (+) Dipole Moment


------------------------------------------------------------------------------
                       ORCA ELECTRIC PROPERTIES CALCULATION
------------------------------------------------------------------------------

Dipole Moment Calculation                       ... on
Quadrupole Moment Calculation                   ... off
Polarizability Calculation                      ... off
GBWName                                         ... HF.gbw
Electron density file                           ... HF.scfp
The origin for moment calculation is the CENTER OF MASS  = ( 0.000000,  0.000000  0.460110)

-------------
DIPOLE MOMENT
-------------
                                X             Y             Z
Electronic contribution:      0.00000       0.00000      -2.27219
Nuclear contribution   :      0.00000       0.00000       4.53081
                        -----------------------------------------
Total Dipole Moment    :      0.00000       0.00000       2.25861
                        -----------------------------------------
Magnitude (a.u.)       :      2.25861
Magnitude (Debye)      :      5.74094



--------------------
Rotational spectrum 
--------------------
 
Rotational constants in cm-1:     0.000000     0.754159     0.754159 
Rotational constants in MHz :     0.000000 22609.122225 22609.122225 

 Dipole components along the rotational axes: 
x,y,z [a.u.] :     2.258614     0.000000     0.000000 
x,y,z [Debye]:     5.740941     0.000000     0.000000 

 

         *************************************************************
                                TRAJECTORY STEP  46
                  R  :   4.93240000
         *************************************************************
---------------------------------
CARTESIAN COORDINATES (ANGSTROEM)
---------------------------------
  F      0.000000    0.000000    0.000000
  H      0.000000    0.000000    4.932400

----------------------------
CARTESIAN COORDINATES (A.U.)
----------------------------
  NO LB      ZA    FRAG     MASS         X           Y           Z
   0 F     9.0000    0    18.998    0.000000    0.000000    0.000000
   1 H     1.0000    0     1.008    0.000000    0.000000    9.320885

--------------------------------
INTERNAL COORDINATES (ANGSTROEM)
--------------------------------
 F      0   0   0     0.000000000000     0.00000000     0.00000000
 H      1   0   0     4.932400000000     0.00000000     0.00000000

---------------------------
INTERNAL COORDINATES (A.U.)
---------------------------
 F      0   0   0     0.000000000000     0.00000000     0.00000000
 H      1   0   0     9.320885182953     0.00000000     0.00000000


Diagonalization of the overlap matrix:
Smallest eigenvalue                        ... 2.328e-01
Time for diagonalization                   ...    0.000 sec
Threshold for overlap eigenvalues          ... 1.000e-08
Number of eigenvalues below threshold      ... 0
Time for construction of square roots      ...    0.000 sec
Total time needed                          ...    0.001 sec

-------------------
DFT GRID GENERATION
-------------------

General Integration Accuracy     IntAcc      ...  4.670
Radial Grid Type                 RadialGrid  ... Gauss-Chebyshev
Angular Grid (max. acc.)         AngularGrid ... Lebedev-302
Angular grid pruning method      GridPruning ... 3 (G Style)
Weight generation scheme         WeightScheme... Becke
Basis function cutoff            BFCut       ...    1.0000e-10
Integration weight cutoff        WCut        ...    1.0000e-14
Grids for H and He will be reduced by one unit

# of grid points (after initial pruning)     ...   9666 (   0.0 sec)
# of grid points (after weights+screening)   ...   9659 (   0.0 sec)
nearest neighbour list constructed           ...    0.0 sec
Grid point re-assignment to atoms done       ...    0.0 sec
Grid point division into batches done        ...    0.0 sec
Reduced shell lists constructed in    0.0 sec

Total number of grid points                  ...     9659
Total number of batches                      ...      152
Average number of points per batch           ...       63
Average number of grid points per atom       ...     4830
Average number of shells per batch           ...     4.50 (56.29%)
Average number of basis functions per batch  ...     9.07 (56.66%)
Average number of large shells per batch     ...     3.76 (83.45%)
Average number of large basis fcns per batch ...     7.99 (88.18%)
Maximum spatial batch extension              ...  22.27, 22.27, 14.93 au
Average spatial batch extension              ...   4.17,  4.14,  3.83 au

Time for grid setup =    0.051 sec

--------------
SCF ITERATIONS
--------------
ITER       Energy         Delta-E        Max-DP      RMS-DP      [F,P]   Gradient Norm
               ***  Starting incremental Fock matrix formation  ***
                             ****Resetting KDIIS****
                             ****Turning on KDIIS(Cayley)****
  0   -100.0266576974   0.000000000000 0.00008411  0.00000970  0.0002475   0.000149759
                          ***Energy convergence achieved***
  1   -100.0266577895  -0.000000092131 0.00004648  0.00000674  0.0001652   0.000122845
  2   -100.0266578373  -0.000000047764 0.00009584  0.00001175  0.0001485   0.000100960
  3   -100.0266579066  -0.000000069276 0.00014343  0.00001790  0.0000870   0.000061029
                           ***RMSP convergence achieved***
                           ***MAXP convergence achieved***
                    *** KDIIS BlockDiag ( 0.811 sec) ***

               *****************************************************
               *                     SUCCESS                       *
               *           SCF CONVERGED AFTER   4 CYCLES          *
               *****************************************************

Setting up the final grid:

General Integration Accuracy     IntAcc      ...  5.010
Radial Grid Type                 RadialGrid  ... Gauss-Chebyshev
Angular Grid (max. acc.)         AngularGrid ... Lebedev-434
Angular grid pruning method      GridPruning ... 3 (G Style)
Weight generation scheme         WeightScheme... Becke
Basis function cutoff            BFCut       ...    1.0000e-10
Integration weight cutoff        WCut        ...    1.0000e-14
Grids for H and He will be reduced by one unit

# of grid points (after initial pruning)     ...  17510 (   0.0 sec)
# of grid points (after weights+screening)   ...  17502 (   0.0 sec)
nearest neighbour list constructed           ...    0.0 sec
Grid point re-assignment to atoms done       ...    0.0 sec
Grid point division into batches done        ...    0.1 sec
Reduced shell lists constructed in    0.1 sec

Total number of grid points                  ...    17502
Total number of batches                      ...      274
Average number of points per batch           ...       63
Average number of grid points per atom       ...     8751
Average number of shells per batch           ...     4.25 (53.09%)
Average number of basis functions per batch  ...     8.52 (53.27%)
Average number of large shells per batch     ...     3.65 (85.96%)
Average number of large basis fcns per batch ...     7.59 (88.99%)
Maximum spatial batch extension              ...  16.29, 16.29, 15.49 au
Average spatial batch extension              ...   3.37,  3.36,  3.41 au

Final grid set up in    0.1 sec
Final integration                            ... done (   0.1 sec)
Change in XC energy                          ...     0.000159488
Integrated number of electrons               ...     9.999996545
Previous integrated no of electrons          ...    10.000011335
Total Energy       :         -100.02649846 Eh           -2721.85940 eV
  Last Energy change         ...   -3.9352e-08  Tolerance :   1.0000e-06
  Last MAX-Density change    ...    1.9827e-07  Tolerance :   1.0000e-05
             **** THE GBW FILE WAS UPDATED (HF.gbw) ****
             **** DENSITY FILE WAS UPDATED (HF.scfp) ****
             **** ENERGY FILE WAS UPDATED (HF.en.tmp) ****
             **** THE GBW FILE WAS UPDATED (HF.gbw) ****
             **** DENSITY FILE WAS UPDATED (HF.scfp) ****
Total SCF time: 0 days 0 hours 0 min 1 sec 

-------------------------   --------------------
FINAL SINGLE POINT ENERGY      -100.026498457825
-------------------------   --------------------

Storing actual gbw-file in HF.046.gbw ... done

                            ***************************************
                            *     ORCA property calculations      *
                            ***************************************

                                    ---------------------
                                    Active property flags
                                    ---------------------
   (+) Dipole Moment


------------------------------------------------------------------------------
                       ORCA ELECTRIC PROPERTIES CALCULATION
------------------------------------------------------------------------------

Dipole Moment Calculation                       ... on
Quadrupole Moment Calculation                   ... off
Polarizability Calculation                      ... off
GBWName                                         ... HF.gbw
Electron density file                           ... HF.scfp
The origin for moment calculation is the CENTER OF MASS  = ( 0.000000,  0.000000  0.469632)

-------------
DIPOLE MOMENT
-------------
                                X             Y             Z
Electronic contribution:      0.00000       0.00000      -2.32582
Nuclear contribution   :      0.00000       0.00000       4.62457
                        -----------------------------------------
Total Dipole Moment    :      0.00000       0.00000       2.29875
                        -----------------------------------------
Magnitude (a.u.)       :      2.29875
Magnitude (Debye)      :      5.84296



--------------------
Rotational spectrum 
--------------------
 
Rotational constants in cm-1:     0.000000     0.723889     0.723889 
Rotational constants in MHz :     0.000000 21701.655988 21701.655988 

 Dipole components along the rotational axes: 
x,y,z [a.u.] :     2.298750     0.000000     0.000000 
x,y,z [Debye]:     5.842958     0.000000     0.000000 

 
                              **** TRAJECTORY DONE ***

                         SUMMARY OF THE CALCULATED SURFACE

------------------
TRAJECTORY RESULTS
------------------

Column   1: R

The Calculated Surface using the 'Actual Energy'
   0.43240000 -99.12498059
   0.53240000 -99.85274218
   0.63240000 -100.18220381
   0.73240000 -100.32766437
   0.83240000 -100.38434560
   0.93240000 -100.39717859
   1.03240000 -100.38839158
   1.13240000 -100.36931294
   1.23240000 -100.34586924
   1.33240000 -100.32117109
   1.43240000 -100.29677818
   1.53240000 -100.27344834
   1.63240000 -100.25152489
   1.73240000 -100.23112278
   1.83240000 -100.21229102
   1.93240000 -100.19498511
   2.03240000 -100.17914040
   2.13240000 -100.16466027
   2.23240000 -100.15143877
   2.33240000 -100.13937050
   2.43240000 -100.12835430
   2.53240000 -100.11828999
   2.63240000 -100.10909090
   2.73240000 -100.10070154
   2.83240000 -100.09305859
   2.93240000 -100.08610385
   3.03240000 -100.07979383
   3.13240000 -100.07407200
   3.23240000 -100.06888850
   3.33240000 -100.06419046
   3.43240000 -100.05993552
   3.53240000 -100.05607958
   3.63240000 -100.05258081
   3.73240000 -100.04940131
   3.83240000 -100.04650773
   3.93240000 -100.04387253
   4.03240000 -100.04146568
   4.13240000 -100.03925924
   4.23240000 -100.03723120
   4.33240000 -100.03535894
   4.43240000 -100.03362354
   4.53240000 -100.03200987
   4.63240000 -100.03050367
   4.73240000 -100.02909020
   4.83240000 -100.02775781
   4.93240000 -100.02649846

                        *******************************
                        *   FIT OF THE ACT-ENERGY PES *
                        *******************************
-------------------------------
POTENTIAL ENERGY SURFACE =   0
-------------------------------

Minimum found after 22 iterations
Equilibrium distance and its energy from the interpolated PES:
  Re      =   0.93127 Angstroem  (  1.75984 Bohr)
  E(Re)   =  -100.397180 Eh 
  dE/dR   = 1.410e-07 (-2.550e-02 CHEB)
  d2E/dR2 =    0.594476 (   1.913018 CHEB) (   1.109422 NUM)
  d3E/dR3 =   -2.213302 (  -8.043716 CHEB)

Spectroscopic constants:
  we =    4066.4 cm**-1 (based on SPLINE)
  we =    7294.6 cm**-1 (based on CHEB)
  we =    5555.1 cm**-1 (based on NUM)

Performing Morse fit ...
Morse-Fit Results:
 Te(adiabatic)   =   -9088.3 cm**-1         = -1.127 eV
 d2E/dR**2 (Morse)=      0.825331125 
 d3E/dR**3 (Morse)=     -2.574085769 
 d4E/dR**4 (Morse)=      6.244150098 
 E0               =   -100.438589113 Eh  RMS=3.91e-05
 Re               =   0.95903 Angstroem      =  1.81229 Bohr RMS=1.01e-04)
 De(Morse)        =  10.38967 eV             =  83798.4 cm**-1 RMS=4.07e-05
 D0(Morse)        =  10.09265 eV
 beta             =   1.03962 au          RMS=1.06e-04
 we               =   4791.3 cm**-1
 wexe             =     68.5 cm**-1
 Displacement   =    0.0278 Angstroem      =  0.05245 Bohr

The Calculated Surface using the SCF energy
   0.43240000 -99.12498059
   0.53240000 -99.85274218
   0.63240000 -100.18220381
   0.73240000 -100.32766437
   0.83240000 -100.38434560
   0.93240000 -100.39717859
   1.03240000 -100.38839158
   1.13240000 -100.36931294
   1.23240000 -100.34586924
   1.33240000 -100.32117109
   1.43240000 -100.29677818
   1.53240000 -100.27344834
   1.63240000 -100.25152489
   1.73240000 -100.23112278
   1.83240000 -100.21229102
   1.93240000 -100.19498511
   2.03240000 -100.17914040
   2.13240000 -100.16466027
   2.23240000 -100.15143877
   2.33240000 -100.13937050
   2.43240000 -100.12835430
   2.53240000 -100.11828999
   2.63240000 -100.10909090
   2.73240000 -100.10070154
   2.83240000 -100.09305859
   2.93240000 -100.08610385
   3.03240000 -100.07979383
   3.13240000 -100.07407200
   3.23240000 -100.06888850
   3.33240000 -100.06419046
   3.43240000 -100.05993552
   3.53240000 -100.05607958
   3.63240000 -100.05258081
   3.73240000 -100.04940131
   3.83240000 -100.04650773
   3.93240000 -100.04387253
   4.03240000 -100.04146568
   4.13240000 -100.03925924
   4.23240000 -100.03723120
   4.33240000 -100.03535894
   4.43240000 -100.03362354
   4.53240000 -100.03200987
   4.63240000 -100.03050367
   4.73240000 -100.02909020
   4.83240000 -100.02775781
   4.93240000 -100.02649846

                        *******************************
                        *       FIT OF THE SCF PES    *
                        *******************************
-------------------------------
POTENTIAL ENERGY SURFACE =   0
-------------------------------

Minimum found after 22 iterations
Equilibrium distance and its energy from the interpolated PES:
  Re      =   0.93127 Angstroem  (  1.75984 Bohr)
  E(Re)   =  -100.397180 Eh 
  dE/dR   = 1.410e-07 (-2.550e-02 CHEB)
  d2E/dR2 =    0.594476 (   1.913018 CHEB) (   1.109422 NUM)
  d3E/dR3 =   -2.213302 (  -8.043716 CHEB)

Spectroscopic constants:
  we =    4066.4 cm**-1 (based on SPLINE)
  we =    7294.6 cm**-1 (based on CHEB)
  we =    5555.1 cm**-1 (based on NUM)

Performing Morse fit ...
Morse-Fit Results:
 Te(adiabatic)   =   -9088.3 cm**-1         = -1.127 eV
 d2E/dR**2 (Morse)=      0.825331125 
 d3E/dR**3 (Morse)=     -2.574085769 
 d4E/dR**4 (Morse)=      6.244150098 
 E0               =   -100.438589113 Eh  RMS=3.91e-05
 Re               =   0.95903 Angstroem      =  1.81229 Bohr RMS=1.01e-04)
 De(Morse)        =  10.38967 eV             =  83798.4 cm**-1 RMS=4.07e-05
 D0(Morse)        =  10.09265 eV
 beta             =   1.03962 au          RMS=1.06e-04
 we               =   4791.3 cm**-1
 wexe             =     68.5 cm**-1
 Displacement   =    0.0278 Angstroem      =  0.05245 Bohr


Timings for individual modules:

Sum of individual times         ...       64.917 sec (=   1.082 min)
GTO integral calculation        ...       10.792 sec (=   0.180 min)  16.6 %
SCF iterations                  ...       54.124 sec (=   0.902 min)  83.4 %
                             ****ORCA TERMINATED NORMALLY****
TOTAL RUN TIME: 0 days 0 hours 1 minutes 8 seconds 951 msec
