
                                 *****************
                                 * O   R   C   A *
                                 *****************

           --- An Ab Initio, DFT and Semiempirical electronic structure package ---

                  #######################################################
                  #                        -***-                        #
                  #          Department of theory and spectroscopy      #
                  #               Directorship: Frank Neese             #
                  #        Max Planck Institute fuer Kohlenforschung    #
                  #                Kaiser Wilhelm Platz 1               #
                  #                 D-45470 Muelheim/Ruhr               #
                  #                      Germany                        #
                  #                                                     #
                  #                  All rights reserved                #
                  #                        -***-                        #
                  #######################################################


                         Program Version 4.2.0 -  RELEASE  -


 With contributions from (in alphabetic order):
   Daniel Aravena         : Magnetic Suceptibility
   Michael Atanasov       : Ab Initio Ligand Field Theory (pilot matlab implementation)
   Alexander A. Auer      : GIAO ZORA, VPT2
   Ute Becker             : Parallelization
   Giovanni Bistoni       : ED, misc. LED, open-shell LED, HFLED
   Martin Brehm           : Molecular dynamics
   Dmytro Bykov           : SCF Hessian
   Vijay G. Chilkuri      : MRCI spin determinant printing, contributions to CSF-ICE
   Dipayan Datta          : RHF DLPNO-CCSD density
   Achintya Kumar Dutta   : EOM-CC, STEOM-CC
   Dmitry Ganyushin       : Spin-Orbit,Spin-Spin,Magnetic field MRCI
   Miquel Garcia          : C-PCM Hessian, Gaussian charge scheme
   Yang Guo               : DLPNO-NEVPT2, CIM, IAO-localization
   Andreas Hansen         : Spin unrestricted coupled pair/coupled cluster methods
   Benjamin Helmich-Paris : CASSCF linear response (MC-RPA)
   Lee Huntington         : MR-EOM, pCC
   Robert Izsak           : Overlap fitted RIJCOSX, COSX-SCS-MP3, EOM
   Christian Kollmar      : KDIIS, OOCD, Brueckner-CCSD(T), CCSD density
   Simone Kossmann        : Meta GGA functionals, TD-DFT gradient, OOMP2, MP2 Hessian
   Martin Krupicka        : AUTO-CI
   Lucas Lang             : DCDCAS
   Dagmar Lenk            : GEPOL surface, SMD
   Dimitrios Liakos       : Extrapolation schemes; Compound Job, initial MDCI parallelization
   Dimitrios Manganas     : Further ROCIS development; embedding schemes
   Dimitrios Pantazis     : SARC Basis sets
   Taras Petrenko         : DFT Hessian,TD-DFT gradient, ASA, ECA, R-Raman, ABS, FL, XAS/XES, NRVS
   Peter Pinski           : DLPNO-MP2, DLPNO-MP2 Gradient
   Christoph Reimann      : Effective Core Potentials
   Marius Retegan         : Local ZFS, SOC
   Christoph Riplinger    : Optimizer, TS searches, QM/MM, DLPNO-CCSD(T), (RO)-DLPNO pert. Triples
   Tobias Risthaus        : Range-separated hybrids, TD-DFT gradient, RPA, STAB
   Michael Roemelt        : Original ROCIS implementation
   Masaaki Saitow         : Open-shell DLPNO-CCSD energy and density
   Barbara Sandhoefer     : DKH picture change effects
   Avijit Sen             : IP-ROCIS
   Kantharuban Sivalingam : CASSCF convergence, NEVPT2, FIC-MRCI
   Bernardo de Souza      : ESD, SOC TD-DFT
   Georgi Stoychev        : AutoAux, RI-MP2 NMR
   Willem Van den Heuvel  : Paramagnetic NMR
   Boris Wezisla          : Elementary symmetry handling
   Frank Wennmohs         : Technical directorship


 We gratefully acknowledge several colleagues who have allowed us to
 interface, adapt or use parts of their codes:
   Stefan Grimme, W. Hujo, H. Kruse,             : VdW corrections, initial TS optimization,
                  C. Bannwarth                     DFT functionals, gCP, sTDA/sTD-DF
   Ed Valeev, F. Pavosevic, A. Kumar             : LibInt (2-el integral package), F12 methods
   Garnet Chan, S. Sharma, J. Yang, R. Olivares  : DMRG
   Ulf Ekstrom                                   : XCFun DFT Library
   Mihaly Kallay                                 : mrcc  (arbitrary order and MRCC methods)
   Andreas Klamt, Michael Diedenhofen            : otool_cosmo (COSMO solvation model)
   Jiri Pittner, Ondrej Demel                    : Mk-CCSD
   Frank Weinhold                                : gennbo (NPA and NBO analysis)
   Christopher J. Cramer and Donald G. Truhlar   : smd solvation model
   Lars Goerigk                                  : TD-DFT with DH, B97 family of functionals
   V. Asgeirsson, H. Jonsson                     : NEB implementation
   FAccTs GmbH                                   : IRC, NEB, NEB-TS, Multilevel, MM, QM/MM, CI optimization
   S Lehtola, MJT Oliveira, MAL Marques          : LibXC Library


 Your calculation uses the libint2 library for the computation of 2-el integrals
 For citations please refer to: http://libint.valeyev.net

 Your ORCA version has been built with support for libXC version: 4.2.3
 For citations please refer to: https://tddft.org/programs/libxc/

 This ORCA versions uses:
   CBLAS   interface :  Fast vector & matrix operations
   LAPACKE interface :  Fast linear algebra routines
   SCALAPACK package :  Parallel linear algebra routines


XCFun DFT library Copyright 2009-2010 Ulf Ekstrom and contributors.
See http://admol.org/xcfun for more information. This is free soft-
ware; see the source code for copying conditions. There is ABSOLUTELY
NO WARRANTY; not even for MERCHANTABILITY or FITNESS FOR A PARTICULAR
PURPOSE. For details see the documentation. Scientific users of this 
library should cite U. Ekstrom, L. Visscher, R. Bast, A. J. Thorvald-
sen and K. Ruud; J.Chem.Theor.Comp. 2010, DOI: 10.1021/ct100117s
XCFun Version 0.99 
----- Orbital basis set information -----
Your calculation utilizes the basis: 6-31G(d)
   H-He, Li-Ne : W. J. Hehre, R. Ditchfield and J.A. Pople, J. Chem. Phys. 56, 2257 (1972).
                 Note: He and Ne are unpublished basis sets taken from the Gaussian program.
                 Note: Li and B from J. D. Dill and J. A. Pople, J. Chem. Phys. 62, 2921 (1975).
   Na - Ar     : M. M. Francl, W. J. Pietro, W. J. Hehre, J. S. Binkley, M. S. Gordon, 
                 D. J. DeFrees and J. A. Pople, J. Chem. Phys. 77, 3654 (1982).
   K - Zn      : V. A. Rassolov, J. A. Pople, M. A. Ratner, and T. L. Windus, J. Chem. Phys. 109, 1223 (1998).

================================================================================
                                        WARNINGS
                       Please study these warnings very carefully!
================================================================================


INFO   : the flag for use of LIBINT has been found!

================================================================================
                                       INPUT FILE
================================================================================
NAME = N2.inp
|  1> ! wB97X 6-31G(d)  KDIIS NOSOSCF VerySlowConv Grid4
|  2> %paras
|  3> R= 0.5982,5.0982,46
|  4> end
|  5> * xyz 0  1
|  6> N 0 0 0
|  7> N 0 0 {R}
|  8> **                         ****END OF INPUT****
================================================================================

                       ******************************
                       * Parameter Scan Calculation *
                       ******************************

Trajectory settings:
    -> SCF surface will be mapped

There are 1 parameter(s) to be scanned
             R: range=   0.59820000 ..   5.09820000  steps=   46
There will be   46 energy evaluations


         *************************************************************
                                TRAJECTORY STEP   1
                  R  :   0.59820000
         *************************************************************
---------------------------------
CARTESIAN COORDINATES (ANGSTROEM)
---------------------------------
  N      0.000000    0.000000    0.000000
  N      0.000000    0.000000    0.598200

----------------------------
CARTESIAN COORDINATES (A.U.)
----------------------------
  NO LB      ZA    FRAG     MASS         X           Y           Z
   0 N     7.0000    0    14.007    0.000000    0.000000    0.000000
   1 N     7.0000    0    14.007    0.000000    0.000000    1.130434

--------------------------------
INTERNAL COORDINATES (ANGSTROEM)
--------------------------------
 N      0   0   0     0.000000000000     0.00000000     0.00000000
 N      1   0   0     0.598200000000     0.00000000     0.00000000

---------------------------
INTERNAL COORDINATES (A.U.)
---------------------------
 N      0   0   0     0.000000000000     0.00000000     0.00000000
 N      1   0   0     1.130434173312     0.00000000     0.00000000

---------------------
BASIS SET INFORMATION
---------------------
There are 1 groups of distinct atoms

 Group   1 Type N   : 10s4p1d contracted to 3s2p1d pattern {631/31/1}

Atom   0N    basis set group =>   1
Atom   1N    basis set group =>   1
------------------------------------------------------------------------------
                           ORCA GTO INTEGRAL CALCULATION
------------------------------------------------------------------------------

                         BASIS SET STATISTICS AND STARTUP INFO

 # of primitive gaussian shells          ...   30
 # of primitive gaussian functions       ...   54
 # of contracted shells                  ...   12
 # of contracted basis functions         ...   28
 Highest angular momentum                ...    2
 Maximum contraction depth               ...    6
 Integral package used                   ... LIBINT
 Integral threshhold            Thresh   ...  1.000e-10
 Primitive cut-off              TCut     ...  1.000e-11


------------------------------ INTEGRAL EVALUATION ----------------------------


 * One electron integrals 
 Pre-screening matrix                    ... done
 Shell pair data                         ... done (   0.000 sec)

-------------------------------------------------------------------------------
                                 ORCA SCF
-------------------------------------------------------------------------------

------------
SCF SETTINGS
------------
Hamiltonian:
 Density Functional     Method          .... DFT(GTOs)
 Exchange Functional    Exchange        .... WB97X
 Correlation Functional Correlation     .... WB97X
 Gradients option       PostSCFGGA      .... off
 Hybrid DFT is turned on
   Fraction HF Exchange ScalHFX         ....  0.157706
   Scaling of DF-GGA-X  ScalDFX         ....  0.000000
   Scaling of DF-GGA-C  ScalDFC         ....  1.000000
   Scaling of DF-LDA-C  ScalLDAC        ....  1.000000
   Perturbative correction              ....  0.000000
   Density functional embedding theory  .... OFF
 Long-range corrected/Screened/Range-Separated Hybrid DFT is turned on
   Amount of maximum screened exact exchange              ....  0.842294
   Range separation parameter mu (erf(mu*r12)/r12)        ....  0.300000


General Settings:
 Integral files         IntName         .... N2
 Hartree-Fock type      HFTyp           .... RHF
 Total Charge           Charge          ....    0
 Multiplicity           Mult            ....    1
 Number of Electrons    NEL             ....   14
 Basis Dimension        Dim             ....   28
 Nuclear Repulsion      ENuc            ....     43.3461772095 Eh

Convergence Acceleration:
 DIIS                   CNVDIIS         .... on
   Start iteration      DIISMaxIt       ....     0
   Startup error        DIISStart       ....  0.200000
   # of expansion vecs  DIISMaxEq       ....     5
   Bias factor          DIISBfac        ....   1.050
   Max. coefficient     DIISMaxC        ....  10.000
 Newton-Raphson         CNVNR           .... off
 SOSCF                  CNVSOSCF        .... off
 Level Shifting         CNVShift        .... off
 Zerner damping         CNVZerner       .... off
 Static damping         CNVDamp         .... off
 Fernandez-Rico         CNVRico         .... off

SCF Procedure:
 Maximum # iterations   MaxIter         ....   125
 SCF integral mode      SCFMode         .... Direct
   Integral package                     .... LIBINT
 Reset frequency        DirectResetFreq ....    20
 Integral Threshold     Thresh          ....  1.000e-10 Eh
 Primitive CutOff       TCut            ....  1.000e-11 Eh

Convergence Tolerance:
 Convergence Check Mode ConvCheckMode   .... All-Criteria
 Convergence forced     ConvForced      .... 0
 Energy Change          TolE            ....  1.000e-06 Eh
 Max Density Change     TolMaxP         ....  1.000e-05
 RMS Density Change     TolRMSP         ....  1.000e-06
 DIIS Error             TolErr          ....  1.000e-06


Diagonalization of the overlap matrix:
Smallest eigenvalue                        ... 2.428e-04
Time for diagonalization                   ...    0.001 sec
Threshold for overlap eigenvalues          ... 1.000e-08
Number of eigenvalues below threshold      ... 0
Time for construction of square roots      ...    0.000 sec
Total time needed                          ...    0.001 sec

-------------------
DFT GRID GENERATION
-------------------

General Integration Accuracy     IntAcc      ...  4.670
Radial Grid Type                 RadialGrid  ... Gauss-Chebyshev
Angular Grid (max. acc.)         AngularGrid ... Lebedev-302
Angular grid pruning method      GridPruning ... 3 (G Style)
Weight generation scheme         WeightScheme... Becke
Basis function cutoff            BFCut       ...    1.0000e-10
Integration weight cutoff        WCut        ...    1.0000e-14
Grids for H and He will be reduced by one unit

# of grid points (after initial pruning)     ...  12424 (   0.0 sec)
# of grid points (after weights+screening)   ...  12386 (   0.0 sec)
nearest neighbour list constructed           ...    0.0 sec
Grid point re-assignment to atoms done       ...    0.0 sec
Grid point division into batches done        ...    0.1 sec
Reduced shell lists constructed in    0.1 sec

Total number of grid points                  ...    12386
Total number of batches                      ...      194
Average number of points per batch           ...       63
Average number of grid points per atom       ...     6193
Average number of shells per batch           ...     9.79 (81.58%)
Average number of basis functions per batch  ...    23.44 (83.72%)
Average number of large shells per batch     ...     9.11 (93.09%)
Average number of large basis fcns per batch ...    22.01 (93.87%)
Maximum spatial batch extension              ...  16.88, 16.88, 16.19 au
Average spatial batch extension              ...   3.74,  3.78,  3.14 au

Time for grid setup =    0.083 sec

------------------------------
INITIAL GUESS: MODEL POTENTIAL
------------------------------
Loading Hartree-Fock densities                     ... done
Calculating cut-offs                               ... done
Setting up the integral package                    ... done
Initializing the effective Hamiltonian             ... done
Starting the Coulomb interaction                   ... done (   0.0 sec)
Reading the grid                                   ... done
Mapping shells                                     ... done
Starting the XC term evaluation                    ... done (   0.0 sec)
  promolecular density results
     # of electrons  =     13.999996492
     EX              =    -13.428633612
     EC              =     -0.469262375
     EX+EC           =    -13.897895987
Transforming the Hamiltonian                       ... done (   0.0 sec)
Diagonalizing the Hamiltonian                      ... done (   0.0 sec)
Back transforming the eigenvectors                 ... done (   0.0 sec)
Now organizing SCF variables                       ... done
                      ------------------
                      INITIAL GUESS DONE (   0.2 sec)
                      ------------------
--------------
SCF ITERATIONS
--------------
ITER       Energy         Delta-E        Max-DP      RMS-DP      [F,P]   Gradient Norm
               ***  Starting incremental Fock matrix formation  ***
                             ****Resetting KDIIS****
                             ****Turning on KDIIS(Cayley)****
  0   -106.2845113839   0.000000000000 0.07194865  0.00581722  0.1912884   0.187587246
  1   -106.3383293919  -0.053818007976 0.10016376  0.00774381  0.1652146   0.162958782
  2   -106.3928609812  -0.054531589265 0.19081230  0.01410343  0.1334157   0.133053041
  3   -106.4584652205  -0.065604239287 0.27321518  0.02106501  0.0812933   0.082432981
  4   -106.4977913420  -0.039326121488 0.00468446  0.00048944  0.0018188   0.001432064
  5   -106.4978016044  -0.000010262469 0.01173647  0.00099835  0.0006289   0.000438331
Warning: badly conditioned DIIS matrix, 1 vectors out of 5 destroyed
                          ***Energy convergence achieved***
  6   -106.4978024547  -0.000000850316 0.00091426  0.00009815  0.0005442   0.000387660
Warning: badly conditioned DIIS matrix, 1 vectors out of 5 destroyed
  7   -106.4978033075  -0.000000852793 0.00026841  0.00002392  0.0000061   0.000003956

            ***Energy convergence in two consecutive cycles with***
                    ***'reasonable' density convergence***
                       *** signaling convergence ***

                    *** KDIIS BlockDiag ( 1.813 sec) ***

               *****************************************************
               *                     SUCCESS                       *
               *           SCF CONVERGED AFTER   8 CYCLES          *
               *****************************************************

Setting up the final grid:

General Integration Accuracy     IntAcc      ...  5.010
Radial Grid Type                 RadialGrid  ... Gauss-Chebyshev
Angular Grid (max. acc.)         AngularGrid ... Lebedev-434
Angular grid pruning method      GridPruning ... 3 (G Style)
Weight generation scheme         WeightScheme... Becke
Basis function cutoff            BFCut       ...    1.0000e-10
Integration weight cutoff        WCut        ...    1.0000e-14
Grids for H and He will be reduced by one unit

# of grid points (after initial pruning)     ...  21180 (   0.0 sec)
# of grid points (after weights+screening)   ...  21002 (   0.0 sec)
nearest neighbour list constructed           ...    0.0 sec
Grid point re-assignment to atoms done       ...    0.0 sec
Grid point division into batches done        ...    0.2 sec
Reduced shell lists constructed in    0.2 sec

Total number of grid points                  ...    21002
Total number of batches                      ...      330
Average number of points per batch           ...       63
Average number of grid points per atom       ...    10501
Average number of shells per batch           ...     9.45 (78.75%)
Average number of basis functions per batch  ...    22.64 (80.86%)
Average number of large shells per batch     ...     8.93 (94.47%)
Average number of large basis fcns per batch ...    21.48 (94.89%)
Maximum spatial batch extension              ...  16.29, 16.29, 19.71 au
Average spatial batch extension              ...   3.11,  3.10,  2.74 au

Final grid set up in    0.2 sec
Final integration                            ... done (   0.1 sec)
Change in XC energy                          ...     0.000018143
Integrated number of electrons               ...    14.000005923
Previous integrated no of electrons          ...    13.999989008

----------------
TOTAL SCF ENERGY
----------------

Total Energy       :         -106.49778516 Eh           -2897.95206 eV

Components:
Nuclear Repulsion  :           43.34617721 Eh            1179.50945 eV
Electronic Energy  :         -149.84396237 Eh           -4077.46151 eV
One Electron Energy:         -226.02226776 Eh           -6150.37859 eV
Two Electron Energy:           76.17830539 Eh            2072.91707 eV

Virial components:
Potential Energy   :         -224.56562896 Eh           -6110.74143 eV
Kinetic Energy     :          118.06784380 Eh            3212.78936 eV
Virial Ratio       :            1.90200500


DFT components:
N(Alpha)           :        7.000002961420 electrons
N(Beta)            :        7.000002961420 electrons
N(Total)           :       14.000005922840 electrons
E(XC)              :      -10.667807650244 Eh       
DFET-embed. en.    :        0.000000000000 Eh       

---------------
SCF CONVERGENCE
---------------

  Last Energy change         ...   -1.2477e-10  Tolerance :   1.0000e-06
  Last MAX-Density change    ...    1.5683e-05  Tolerance :   1.0000e-05
  Last RMS-Density change    ...    1.4080e-06  Tolerance :   1.0000e-06
  Last DIIS Error            ...    6.0575e-07  Tolerance :   1.0000e-06

             **** THE GBW FILE WAS UPDATED (N2.gbw) ****
             **** DENSITY FILE WAS UPDATED (N2.scfp) ****
             **** ENERGY FILE WAS UPDATED (N2.en.tmp) ****
             **** THE GBW FILE WAS UPDATED (N2.gbw) ****
             **** DENSITY FILE WAS UPDATED (N2.scfp) ****
----------------
ORBITAL ENERGIES
----------------

  NO   OCC          E(Eh)            E(eV) 
   0   2.0000     -14.723296      -400.6412 
   1   2.0000     -14.472065      -393.8049 
   2   2.0000      -1.294237       -35.2180 
   3   2.0000      -0.879908       -23.9435 
   4   2.0000      -0.879908       -23.9435 
   5   2.0000      -0.524171       -14.2634 
   6   2.0000      -0.488077       -13.2813 
   7   0.0000       0.409842        11.1524 
   8   0.0000       0.409842        11.1524 
   9   0.0000       0.565723        15.3941 
  10   0.0000       0.565723        15.3941 
  11   0.0000       0.596481        16.2311 
  12   0.0000       0.625139        17.0109 
  13   0.0000       0.922916        25.1138 
  14   0.0000       1.122935        30.5566 
  15   0.0000       1.122935        30.5566 
  16   0.0000       1.373887        37.3854 
  17   0.0000       1.483322        40.3632 
  18   0.0000       1.483322        40.3632 
  19   0.0000       2.372453        64.5577 
  20   0.0000       2.372453        64.5577 
  21   0.0000       2.413842        65.6840 
  22   0.0000       2.475530        67.3626 
  23   0.0000       2.475530        67.3626 
  24   0.0000       2.708862        73.7119 
  25   0.0000       3.745991       101.9336 
  26   0.0000       3.745991       101.9336 
  27   0.0000       9.144661       248.8389 

                    ********************************
                    * MULLIKEN POPULATION ANALYSIS *
                    ********************************

-----------------------
MULLIKEN ATOMIC CHARGES
-----------------------
   0 N :   -0.000000
   1 N :    0.000000
Sum of atomic charges:   -0.0000000

--------------------------------
MULLIKEN REDUCED ORBITAL CHARGES
--------------------------------
  0 N s       :     3.373471  s :     3.373471
      pz      :     1.651509  p :     3.589144
      px      :     0.968817
      py      :     0.968817
      dz2     :    -0.024980  d :     0.037386
      dxz     :     0.031183
      dyz     :     0.031183
      dx2y2   :     0.000000
      dxy     :     0.000000
  1 N s       :     3.373471  s :     3.373471
      pz      :     1.651509  p :     3.589144
      px      :     0.968817
      py      :     0.968817
      dz2     :    -0.024980  d :     0.037386
      dxz     :     0.031183
      dyz     :     0.031183
      dx2y2   :     0.000000
      dxy     :     0.000000


                     *******************************
                     * LOEWDIN POPULATION ANALYSIS *
                     *******************************

----------------------
LOEWDIN ATOMIC CHARGES
----------------------
   0 N :   -0.000000
   1 N :    0.000000

-------------------------------
LOEWDIN REDUCED ORBITAL CHARGES
-------------------------------
  0 N s       :     3.170426  s :     3.170426
      pz      :     1.736058  p :     3.598261
      px      :     0.931102
      py      :     0.931102
      dz2     :     0.093516  d :     0.231312
      dxz     :     0.068898
      dyz     :     0.068898
      dx2y2   :     0.000000
      dxy     :     0.000000
  1 N s       :     3.170426  s :     3.170426
      pz      :     1.736058  p :     3.598261
      px      :     0.931102
      py      :     0.931102
      dz2     :     0.093516  d :     0.231312
      dxz     :     0.068898
      dyz     :     0.068898
      dx2y2   :     0.000000
      dxy     :     0.000000


                      *****************************
                      * MAYER POPULATION ANALYSIS *
                      *****************************

  NA   - Mulliken gross atomic population
  ZA   - Total nuclear charge
  QA   - Mulliken gross atomic charge
  VA   - Mayer's total valence
  BVA  - Mayer's bonded valence
  FA   - Mayer's free valence

  ATOM       NA         ZA         QA         VA         BVA        FA
  0 N      7.0000     7.0000    -0.0000     3.3743     3.3743    -0.0000
  1 N      7.0000     7.0000     0.0000     3.3743     3.3743    -0.0000

  Mayer bond orders larger than 0.100000
B(  0-N ,  1-N ) :   3.3743 

-------
TIMINGS
-------

Total SCF time: 0 days 0 hours 0 min 2 sec 

Total time                  ....       2.152 sec
Sum of individual times     ....       2.009 sec  ( 93.4%)

Fock matrix formation       ....       1.594 sec  ( 74.1%)
  XC integration            ....       0.763 sec  ( 47.9% of F)
    Basis function eval.    ....       0.150 sec  ( 19.7% of XC)
    Density eval.           ....       0.052 sec  (  6.8% of XC)
    XC-Functional eval.     ....       0.482 sec  ( 63.2% of XC)
    XC-Potential eval.      ....       0.047 sec  (  6.1% of XC)
Diagonalization             ....       0.003 sec  (  0.1%)
Density matrix formation    ....       0.000 sec  (  0.0%)
Population analysis         ....       0.001 sec  (  0.0%)
Initial guess               ....       0.111 sec  (  5.2%)
Orbital Transformation      ....       0.000 sec  (  0.0%)
Orbital Orthonormalization  ....       0.000 sec  (  0.0%)
DIIS solution               ....       0.000 sec  (  0.0%)
Grid generation             ....       0.300 sec  ( 14.0%)

-------------------------   --------------------
FINAL SINGLE POINT ENERGY      -106.497785164955
-------------------------   --------------------

Storing actual gbw-file in N2.001.gbw ... done

                            ***************************************
                            *     ORCA property calculations      *
                            ***************************************

                                    ---------------------
                                    Active property flags
                                    ---------------------
   (+) Dipole Moment


------------------------------------------------------------------------------
                       ORCA ELECTRIC PROPERTIES CALCULATION
------------------------------------------------------------------------------

Dipole Moment Calculation                       ... on
Quadrupole Moment Calculation                   ... off
Polarizability Calculation                      ... off
GBWName                                         ... N2.gbw
Electron density file                           ... N2.scfp
The origin for moment calculation is the CENTER OF MASS  = ( 0.000000,  0.000000  0.565217)

-------------
DIPOLE MOMENT
-------------
                                X             Y             Z
Electronic contribution:      0.00000      -0.00000      -0.00000
Nuclear contribution   :      0.00000       0.00000       0.00000
                        -----------------------------------------
Total Dipole Moment    :      0.00000      -0.00000      -0.00000
                        -----------------------------------------
Magnitude (a.u.)       :      0.00000
Magnitude (Debye)      :      0.00000



--------------------
Rotational spectrum 
--------------------
 
Rotational constants in cm-1:     0.000000     6.726497     6.726497 
Rotational constants in MHz :     0.000000 201655.305918 201655.305918 

 Dipole components along the rotational axes: 
x,y,z [a.u.] :    -0.000000    -0.000000     0.000000 
x,y,z [Debye]:    -0.000000    -0.000000     0.000000 

 

         *************************************************************
                                TRAJECTORY STEP   2
                  R  :   0.69820000
         *************************************************************
---------------------------------
CARTESIAN COORDINATES (ANGSTROEM)
---------------------------------
  N      0.000000    0.000000    0.000000
  N      0.000000    0.000000    0.698200

----------------------------
CARTESIAN COORDINATES (A.U.)
----------------------------
  NO LB      ZA    FRAG     MASS         X           Y           Z
   0 N     7.0000    0    14.007    0.000000    0.000000    0.000000
   1 N     7.0000    0    14.007    0.000000    0.000000    1.319407

--------------------------------
INTERNAL COORDINATES (ANGSTROEM)
--------------------------------
 N      0   0   0     0.000000000000     0.00000000     0.00000000
 N      1   0   0     0.698200000000     0.00000000     0.00000000

---------------------------
INTERNAL COORDINATES (A.U.)
---------------------------
 N      0   0   0     0.000000000000     0.00000000     0.00000000
 N      1   0   0     1.319406786704     0.00000000     0.00000000


Diagonalization of the overlap matrix:
Smallest eigenvalue                        ... 5.777e-04
Time for diagonalization                   ...    0.001 sec
Threshold for overlap eigenvalues          ... 1.000e-08
Number of eigenvalues below threshold      ... 0
Time for construction of square roots      ...    0.000 sec
Total time needed                          ...    0.001 sec

-------------------
DFT GRID GENERATION
-------------------

General Integration Accuracy     IntAcc      ...  4.670
Radial Grid Type                 RadialGrid  ... Gauss-Chebyshev
Angular Grid (max. acc.)         AngularGrid ... Lebedev-302
Angular grid pruning method      GridPruning ... 3 (G Style)
Weight generation scheme         WeightScheme... Becke
Basis function cutoff            BFCut       ...    1.0000e-10
Integration weight cutoff        WCut        ...    1.0000e-14
Grids for H and He will be reduced by one unit

# of grid points (after initial pruning)     ...  12424 (   0.0 sec)
# of grid points (after weights+screening)   ...  12388 (   0.0 sec)
nearest neighbour list constructed           ...    0.0 sec
Grid point re-assignment to atoms done       ...    0.0 sec
Grid point division into batches done        ...    0.1 sec
Reduced shell lists constructed in    0.1 sec

Total number of grid points                  ...    12388
Total number of batches                      ...      194
Average number of points per batch           ...       63
Average number of grid points per atom       ...     6194
Average number of shells per batch           ...     9.74 (81.20%)
Average number of basis functions per batch  ...    23.37 (83.48%)
Average number of large shells per batch     ...     9.06 (92.95%)
Average number of large basis fcns per batch ...    21.91 (93.73%)
Maximum spatial batch extension              ...  16.88, 16.88, 16.00 au
Average spatial batch extension              ...   3.75,  3.76,  3.16 au

Time for grid setup =    0.082 sec

--------------
SCF ITERATIONS
--------------
ITER       Energy         Delta-E        Max-DP      RMS-DP      [F,P]   Gradient Norm
               ***  Starting incremental Fock matrix formation  ***
                             ****Resetting KDIIS****
                             ****Turning on KDIIS(Cayley)****
  0   -108.0579896236   0.000000000000 0.01459931  0.00141449  0.0767578   0.069785544
  1   -108.0632900268  -0.005300403272 0.01115615  0.00177240  0.0693257   0.062931539
  2   -108.0710905113  -0.007800484454 0.06116501  0.00527600  0.0553469   0.050955835
  3   -108.0808737855  -0.009783274184 0.15883778  0.01172204  0.0332164   0.030624854
  4   -108.0863856252  -0.005511839771 0.00747942  0.00051983  0.0004077   0.000283007
                          ***Energy convergence achieved***
  5   -108.0863862414  -0.000000616196 0.00162562  0.00011100  0.0001158   0.000110174
  6   -108.0863863220  -0.000000080617 0.00020448  0.00001400  0.0000172   0.000016082
Warning: badly conditioned DIIS matrix, 1 vectors out of 5 destroyed
                           ***RMSP convergence achieved***
                           ***MAXP convergence achieved***
                    *** KDIIS BlockDiag ( 1.561 sec) ***

               *****************************************************
               *                     SUCCESS                       *
               *           SCF CONVERGED AFTER   7 CYCLES          *
               *****************************************************

Setting up the final grid:

General Integration Accuracy     IntAcc      ...  5.010
Radial Grid Type                 RadialGrid  ... Gauss-Chebyshev
Angular Grid (max. acc.)         AngularGrid ... Lebedev-434
Angular grid pruning method      GridPruning ... 3 (G Style)
Weight generation scheme         WeightScheme... Becke
Basis function cutoff            BFCut       ...    1.0000e-10
Integration weight cutoff        WCut        ...    1.0000e-14
Grids for H and He will be reduced by one unit

# of grid points (after initial pruning)     ...  21180 (   0.0 sec)
# of grid points (after weights+screening)   ...  21020 (   0.0 sec)
nearest neighbour list constructed           ...    0.0 sec
Grid point re-assignment to atoms done       ...    0.0 sec
Grid point division into batches done        ...    0.2 sec
Reduced shell lists constructed in    0.2 sec

Total number of grid points                  ...    21020
Total number of batches                      ...      330
Average number of points per batch           ...       63
Average number of grid points per atom       ...    10510
Average number of shells per batch           ...     9.45 (78.73%)
Average number of basis functions per batch  ...    22.65 (80.89%)
Average number of large shells per batch     ...     8.92 (94.47%)
Average number of large basis fcns per batch ...    21.52 (95.00%)
Maximum spatial batch extension              ...  16.29, 16.29, 19.69 au
Average spatial batch extension              ...   3.12,  3.09,  2.77 au

Final grid set up in    0.2 sec
Final integration                            ... done (   0.1 sec)
Change in XC energy                          ...    -0.000078461
Integrated number of electrons               ...    14.000003201
Previous integrated no of electrons          ...    13.999997630
Total Energy       :         -108.08646478 Eh           -2941.18223 eV
  Last Energy change         ...   -1.7118e-09  Tolerance :   1.0000e-06
  Last MAX-Density change    ...    9.0303e-06  Tolerance :   1.0000e-05
             **** THE GBW FILE WAS UPDATED (N2.gbw) ****
             **** DENSITY FILE WAS UPDATED (N2.scfp) ****
             **** ENERGY FILE WAS UPDATED (N2.en.tmp) ****
             **** THE GBW FILE WAS UPDATED (N2.gbw) ****
             **** DENSITY FILE WAS UPDATED (N2.scfp) ****
Total SCF time: 0 days 0 hours 0 min 1 sec 

-------------------------   --------------------
FINAL SINGLE POINT ENERGY      -108.086464784553
-------------------------   --------------------

Storing actual gbw-file in N2.002.gbw ... done

                            ***************************************
                            *     ORCA property calculations      *
                            ***************************************

                                    ---------------------
                                    Active property flags
                                    ---------------------
   (+) Dipole Moment


------------------------------------------------------------------------------
                       ORCA ELECTRIC PROPERTIES CALCULATION
------------------------------------------------------------------------------

Dipole Moment Calculation                       ... on
Quadrupole Moment Calculation                   ... off
Polarizability Calculation                      ... off
GBWName                                         ... N2.gbw
Electron density file                           ... N2.scfp
The origin for moment calculation is the CENTER OF MASS  = ( 0.000000,  0.000000  0.659703)

-------------
DIPOLE MOMENT
-------------
                                X             Y             Z
Electronic contribution:      0.00000       0.00000       0.00000
Nuclear contribution   :      0.00000       0.00000       0.00000
                        -----------------------------------------
Total Dipole Moment    :      0.00000       0.00000       0.00000
                        -----------------------------------------
Magnitude (a.u.)       :      0.00000
Magnitude (Debye)      :      0.00000



--------------------
Rotational spectrum 
--------------------
 
Rotational constants in cm-1:     0.000000     4.937670     4.937670 
Rotational constants in MHz :     0.000000 148027.628669 148027.628669 

 Dipole components along the rotational axes: 
x,y,z [a.u.] :     0.000000     0.000000     0.000000 
x,y,z [Debye]:     0.000000     0.000000     0.000000 

 

         *************************************************************
                                TRAJECTORY STEP   3
                  R  :   0.79820000
         *************************************************************
---------------------------------
CARTESIAN COORDINATES (ANGSTROEM)
---------------------------------
  N      0.000000    0.000000    0.000000
  N      0.000000    0.000000    0.798200

----------------------------
CARTESIAN COORDINATES (A.U.)
----------------------------
  NO LB      ZA    FRAG     MASS         X           Y           Z
   0 N     7.0000    0    14.007    0.000000    0.000000    0.000000
   1 N     7.0000    0    14.007    0.000000    0.000000    1.508379

--------------------------------
INTERNAL COORDINATES (ANGSTROEM)
--------------------------------
 N      0   0   0     0.000000000000     0.00000000     0.00000000
 N      1   0   0     0.798200000000     0.00000000     0.00000000

---------------------------
INTERNAL COORDINATES (A.U.)
---------------------------
 N      0   0   0     0.000000000000     0.00000000     0.00000000
 N      1   0   0     1.508379400096     0.00000000     0.00000000


Diagonalization of the overlap matrix:
Smallest eigenvalue                        ... 1.171e-03
Time for diagonalization                   ...    0.000 sec
Threshold for overlap eigenvalues          ... 1.000e-08
Number of eigenvalues below threshold      ... 0
Time for construction of square roots      ...    0.000 sec
Total time needed                          ...    0.001 sec

-------------------
DFT GRID GENERATION
-------------------

General Integration Accuracy     IntAcc      ...  4.670
Radial Grid Type                 RadialGrid  ... Gauss-Chebyshev
Angular Grid (max. acc.)         AngularGrid ... Lebedev-302
Angular grid pruning method      GridPruning ... 3 (G Style)
Weight generation scheme         WeightScheme... Becke
Basis function cutoff            BFCut       ...    1.0000e-10
Integration weight cutoff        WCut        ...    1.0000e-14
Grids for H and He will be reduced by one unit

# of grid points (after initial pruning)     ...  12424 (   0.0 sec)
# of grid points (after weights+screening)   ...  12390 (   0.0 sec)
nearest neighbour list constructed           ...    0.0 sec
Grid point re-assignment to atoms done       ...    0.0 sec
Grid point division into batches done        ...    0.1 sec
Reduced shell lists constructed in    0.1 sec

Total number of grid points                  ...    12390
Total number of batches                      ...      194
Average number of points per batch           ...       63
Average number of grid points per atom       ...     6195
Average number of shells per batch           ...     9.71 (80.94%)
Average number of basis functions per batch  ...    23.38 (83.52%)
Average number of large shells per batch     ...     9.01 (92.71%)
Average number of large basis fcns per batch ...    21.82 (93.29%)
Maximum spatial batch extension              ...  16.88, 16.88, 15.81 au
Average spatial batch extension              ...   3.83,  3.84,  3.18 au

Time for grid setup =    0.083 sec

--------------
SCF ITERATIONS
--------------
ITER       Energy         Delta-E        Max-DP      RMS-DP      [F,P]   Gradient Norm
               ***  Starting incremental Fock matrix formation  ***
                             ****Resetting KDIIS****
                             ****Turning on KDIIS(Cayley)****
  0   -108.8788589115   0.000000000000 0.00655565  0.00084220  0.0555820   0.056695271
  1   -108.8826638824  -0.003804970947 0.00912990  0.00137030  0.0502574   0.050785672
  2   -108.8878902604  -0.005226377962 0.02879943  0.00288662  0.0402371   0.041100446
  3   -108.8943846804  -0.006494420009 0.06524080  0.00540981  0.0241212   0.024688077
  4   -108.8980487030  -0.003664022550 0.00153640  0.00009937  0.0002009   0.000177552
                          ***Energy convergence achieved***
  5   -108.8980489328  -0.000000229792 0.00019877  0.00001355  0.0000373   0.000029629
Warning: badly conditioned DIIS matrix, 1 vectors out of 5 destroyed

            ***Energy convergence in two consecutive cycles with***
                    ***'reasonable' density convergence***
                       *** signaling convergence ***

                    *** KDIIS BlockDiag ( 1.402 sec) ***

               *****************************************************
               *                     SUCCESS                       *
               *           SCF CONVERGED AFTER   6 CYCLES          *
               *****************************************************

Setting up the final grid:

General Integration Accuracy     IntAcc      ...  5.010
Radial Grid Type                 RadialGrid  ... Gauss-Chebyshev
Angular Grid (max. acc.)         AngularGrid ... Lebedev-434
Angular grid pruning method      GridPruning ... 3 (G Style)
Weight generation scheme         WeightScheme... Becke
Basis function cutoff            BFCut       ...    1.0000e-10
Integration weight cutoff        WCut        ...    1.0000e-14
Grids for H and He will be reduced by one unit

# of grid points (after initial pruning)     ...  21180 (   0.0 sec)
# of grid points (after weights+screening)   ...  21038 (   0.0 sec)
nearest neighbour list constructed           ...    0.0 sec
Grid point re-assignment to atoms done       ...    0.0 sec
Grid point division into batches done        ...    0.2 sec
Reduced shell lists constructed in    0.2 sec

Total number of grid points                  ...    21038
Total number of batches                      ...      330
Average number of points per batch           ...       63
Average number of grid points per atom       ...    10519
Average number of shells per batch           ...     9.44 (78.65%)
Average number of basis functions per batch  ...    22.63 (80.84%)
Average number of large shells per batch     ...     8.88 (94.11%)
Average number of large basis fcns per batch ...    21.44 (94.74%)
Maximum spatial batch extension              ...  16.29, 16.29, 19.52 au
Average spatial batch extension              ...   3.13,  3.10,  2.80 au

Final grid set up in    0.2 sec
Final integration                            ... done (   0.1 sec)
Change in XC energy                          ...    -0.000141542
Integrated number of electrons               ...    14.000002385
Previous integrated no of electrons          ...    14.000005620
Total Energy       :         -108.89819048 Eh           -2963.27041 eV
  Last Energy change         ...   -5.7553e-09  Tolerance :   1.0000e-06
  Last MAX-Density change    ...    3.6005e-05  Tolerance :   1.0000e-05
             **** THE GBW FILE WAS UPDATED (N2.gbw) ****
             **** DENSITY FILE WAS UPDATED (N2.scfp) ****
             **** ENERGY FILE WAS UPDATED (N2.en.tmp) ****
             **** THE GBW FILE WAS UPDATED (N2.gbw) ****
             **** DENSITY FILE WAS UPDATED (N2.scfp) ****
Total SCF time: 0 days 0 hours 0 min 1 sec 

-------------------------   --------------------
FINAL SINGLE POINT ENERGY      -108.898190480658
-------------------------   --------------------

Storing actual gbw-file in N2.003.gbw ... done

                            ***************************************
                            *     ORCA property calculations      *
                            ***************************************

                                    ---------------------
                                    Active property flags
                                    ---------------------
   (+) Dipole Moment


------------------------------------------------------------------------------
                       ORCA ELECTRIC PROPERTIES CALCULATION
------------------------------------------------------------------------------

Dipole Moment Calculation                       ... on
Quadrupole Moment Calculation                   ... off
Polarizability Calculation                      ... off
GBWName                                         ... N2.gbw
Electron density file                           ... N2.scfp
The origin for moment calculation is the CENTER OF MASS  = ( 0.000000,  0.000000  0.754190)

-------------
DIPOLE MOMENT
-------------
                                X             Y             Z
Electronic contribution:      0.00000      -0.00000      -0.00000
Nuclear contribution   :      0.00000       0.00000       0.00000
                        -----------------------------------------
Total Dipole Moment    :      0.00000      -0.00000      -0.00000
                        -----------------------------------------
Magnitude (a.u.)       :      0.00000
Magnitude (Debye)      :      0.00000



--------------------
Rotational spectrum 
--------------------
 
Rotational constants in cm-1:     0.000000     3.777968     3.777968 
Rotational constants in MHz :     0.000000 113260.643314 113260.643314 

 Dipole components along the rotational axes: 
x,y,z [a.u.] :    -0.000000    -0.000000     0.000000 
x,y,z [Debye]:    -0.000000    -0.000000     0.000000 

 

         *************************************************************
                                TRAJECTORY STEP   4
                  R  :   0.89820000
         *************************************************************
---------------------------------
CARTESIAN COORDINATES (ANGSTROEM)
---------------------------------
  N      0.000000    0.000000    0.000000
  N      0.000000    0.000000    0.898200

----------------------------
CARTESIAN COORDINATES (A.U.)
----------------------------
  NO LB      ZA    FRAG     MASS         X           Y           Z
   0 N     7.0000    0    14.007    0.000000    0.000000    0.000000
   1 N     7.0000    0    14.007    0.000000    0.000000    1.697352

--------------------------------
INTERNAL COORDINATES (ANGSTROEM)
--------------------------------
 N      0   0   0     0.000000000000     0.00000000     0.00000000
 N      1   0   0     0.898200000000     0.00000000     0.00000000

---------------------------
INTERNAL COORDINATES (A.U.)
---------------------------
 N      0   0   0     0.000000000000     0.00000000     0.00000000
 N      1   0   0     1.697352013488     0.00000000     0.00000000


Diagonalization of the overlap matrix:
Smallest eigenvalue                        ... 2.112e-03
Time for diagonalization                   ...    0.001 sec
Threshold for overlap eigenvalues          ... 1.000e-08
Number of eigenvalues below threshold      ... 0
Time for construction of square roots      ...    0.000 sec
Total time needed                          ...    0.001 sec

-------------------
DFT GRID GENERATION
-------------------

General Integration Accuracy     IntAcc      ...  4.670
Radial Grid Type                 RadialGrid  ... Gauss-Chebyshev
Angular Grid (max. acc.)         AngularGrid ... Lebedev-302
Angular grid pruning method      GridPruning ... 3 (G Style)
Weight generation scheme         WeightScheme... Becke
Basis function cutoff            BFCut       ...    1.0000e-10
Integration weight cutoff        WCut        ...    1.0000e-14
Grids for H and He will be reduced by one unit

# of grid points (after initial pruning)     ...  12424 (   0.0 sec)
# of grid points (after weights+screening)   ...  12392 (   0.0 sec)
nearest neighbour list constructed           ...    0.0 sec
Grid point re-assignment to atoms done       ...    0.0 sec
Grid point division into batches done        ...    0.1 sec
Reduced shell lists constructed in    0.1 sec

Total number of grid points                  ...    12392
Total number of batches                      ...      194
Average number of points per batch           ...       63
Average number of grid points per atom       ...     6196
Average number of shells per batch           ...     9.66 (80.47%)
Average number of basis functions per batch  ...    23.22 (82.91%)
Average number of large shells per batch     ...     8.96 (92.78%)
Average number of large basis fcns per batch ...    21.75 (93.68%)
Maximum spatial batch extension              ...  16.88, 17.90, 14.76 au
Average spatial batch extension              ...   3.84,  3.86,  3.23 au

Time for grid setup =    0.083 sec

--------------
SCF ITERATIONS
--------------
ITER       Energy         Delta-E        Max-DP      RMS-DP      [F,P]   Gradient Norm
               ***  Starting incremental Fock matrix formation  ***
                             ****Resetting KDIIS****
                             ****Turning on KDIIS(Cayley)****
  0   -109.2764742378   0.000000000000 0.00470663  0.00061286  0.0549879   0.047575221
  1   -109.2792716052  -0.002797367340 0.00751577  0.00103077  0.0487863   0.042485936
  2   -109.2830392180  -0.003767612802 0.01299830  0.00192334  0.0396984   0.034364116
  3   -109.2876959542  -0.004656736201 0.02185153  0.00307672  0.0239114   0.020636037
  4   -109.2903174639  -0.002621509721 0.00016621  0.00001459  0.0001098   0.000102125
                          ***Energy convergence achieved***
  5   -109.2903175360  -0.000000072097 0.00006329  0.00000433  0.0000183   0.000012775
Warning: badly conditioned DIIS matrix, 1 vectors out of 5 destroyed
Warning: badly conditioned DIIS matrix, 1 vectors out of 4 destroyed
                           ***RMSP convergence achieved***

            ***Energy convergence in two consecutive cycles with***
                    ***'reasonable' density convergence***
                       *** signaling convergence ***

                    *** KDIIS BlockDiag ( 1.402 sec) ***

               *****************************************************
               *                     SUCCESS                       *
               *           SCF CONVERGED AFTER   6 CYCLES          *
               *****************************************************

Setting up the final grid:

General Integration Accuracy     IntAcc      ...  5.010
Radial Grid Type                 RadialGrid  ... Gauss-Chebyshev
Angular Grid (max. acc.)         AngularGrid ... Lebedev-434
Angular grid pruning method      GridPruning ... 3 (G Style)
Weight generation scheme         WeightScheme... Becke
Basis function cutoff            BFCut       ...    1.0000e-10
Integration weight cutoff        WCut        ...    1.0000e-14
Grids for H and He will be reduced by one unit

# of grid points (after initial pruning)     ...  21180 (   0.0 sec)
# of grid points (after weights+screening)   ...  21056 (   0.0 sec)
nearest neighbour list constructed           ...    0.0 sec
Grid point re-assignment to atoms done       ...    0.0 sec
Grid point division into batches done        ...    0.2 sec
Reduced shell lists constructed in    0.2 sec

Total number of grid points                  ...    21056
Total number of batches                      ...      330
Average number of points per batch           ...       63
Average number of grid points per atom       ...    10528
Average number of shells per batch           ...     9.40 (78.32%)
Average number of basis functions per batch  ...    22.56 (80.59%)
Average number of large shells per batch     ...     8.81 (93.76%)
Average number of large basis fcns per batch ...    21.33 (94.54%)
Maximum spatial batch extension              ...  16.29, 16.29, 19.64 au
Average spatial batch extension              ...   3.14,  3.10,  2.82 au

Final grid set up in    0.2 sec
Final integration                            ... done (   0.1 sec)
Change in XC energy                          ...    -0.000112511
Integrated number of electrons               ...    14.000000730
Previous integrated no of electrons          ...    14.000006301
Total Energy       :         -109.29043005 Eh           -2973.94379 eV
  Last Energy change         ...   -1.2442e-09  Tolerance :   1.0000e-06
  Last MAX-Density change    ...    1.3087e-05  Tolerance :   1.0000e-05
             **** THE GBW FILE WAS UPDATED (N2.gbw) ****
             **** DENSITY FILE WAS UPDATED (N2.scfp) ****
             **** ENERGY FILE WAS UPDATED (N2.en.tmp) ****
             **** THE GBW FILE WAS UPDATED (N2.gbw) ****
             **** DENSITY FILE WAS UPDATED (N2.scfp) ****
Total SCF time: 0 days 0 hours 0 min 1 sec 

-------------------------   --------------------
FINAL SINGLE POINT ENERGY      -109.290430047879
-------------------------   --------------------

Storing actual gbw-file in N2.004.gbw ... done

                            ***************************************
                            *     ORCA property calculations      *
                            ***************************************

                                    ---------------------
                                    Active property flags
                                    ---------------------
   (+) Dipole Moment


------------------------------------------------------------------------------
                       ORCA ELECTRIC PROPERTIES CALCULATION
------------------------------------------------------------------------------

Dipole Moment Calculation                       ... on
Quadrupole Moment Calculation                   ... off
Polarizability Calculation                      ... off
GBWName                                         ... N2.gbw
Electron density file                           ... N2.scfp
The origin for moment calculation is the CENTER OF MASS  = ( 0.000000,  0.000000  0.848676)

-------------
DIPOLE MOMENT
-------------
                                X             Y             Z
Electronic contribution:      0.00000       0.00000       0.00000
Nuclear contribution   :      0.00000       0.00000       0.00000
                        -----------------------------------------
Total Dipole Moment    :      0.00000       0.00000       0.00000
                        -----------------------------------------
Magnitude (a.u.)       :      0.00000
Magnitude (Debye)      :      0.00000



--------------------
Rotational spectrum 
--------------------
 
Rotational constants in cm-1:     0.000000     2.983566     2.983566 
Rotational constants in MHz :     0.000000 89445.062015 89445.062015 

 Dipole components along the rotational axes: 
x,y,z [a.u.] :     0.000000     0.000000     0.000000 
x,y,z [Debye]:     0.000000     0.000000     0.000000 

 

         *************************************************************
                                TRAJECTORY STEP   5
                  R  :   0.99820000
         *************************************************************
---------------------------------
CARTESIAN COORDINATES (ANGSTROEM)
---------------------------------
  N      0.000000    0.000000    0.000000
  N      0.000000    0.000000    0.998200

----------------------------
CARTESIAN COORDINATES (A.U.)
----------------------------
  NO LB      ZA    FRAG     MASS         X           Y           Z
   0 N     7.0000    0    14.007    0.000000    0.000000    0.000000
   1 N     7.0000    0    14.007    0.000000    0.000000    1.886325

--------------------------------
INTERNAL COORDINATES (ANGSTROEM)
--------------------------------
 N      0   0   0     0.000000000000     0.00000000     0.00000000
 N      1   0   0     0.998200000000     0.00000000     0.00000000

---------------------------
INTERNAL COORDINATES (A.U.)
---------------------------
 N      0   0   0     0.000000000000     0.00000000     0.00000000
 N      1   0   0     1.886324626880     0.00000000     0.00000000


Diagonalization of the overlap matrix:
Smallest eigenvalue                        ... 3.499e-03
Time for diagonalization                   ...    0.001 sec
Threshold for overlap eigenvalues          ... 1.000e-08
Number of eigenvalues below threshold      ... 0
Time for construction of square roots      ...    0.000 sec
Total time needed                          ...    0.001 sec

-------------------
DFT GRID GENERATION
-------------------

General Integration Accuracy     IntAcc      ...  4.670
Radial Grid Type                 RadialGrid  ... Gauss-Chebyshev
Angular Grid (max. acc.)         AngularGrid ... Lebedev-302
Angular grid pruning method      GridPruning ... 3 (G Style)
Weight generation scheme         WeightScheme... Becke
Basis function cutoff            BFCut       ...    1.0000e-10
Integration weight cutoff        WCut        ...    1.0000e-14
Grids for H and He will be reduced by one unit

# of grid points (after initial pruning)     ...  12424 (   0.0 sec)
# of grid points (after weights+screening)   ...  12392 (   0.0 sec)
nearest neighbour list constructed           ...    0.0 sec
Grid point re-assignment to atoms done       ...    0.0 sec
Grid point division into batches done        ...    0.1 sec
Reduced shell lists constructed in    0.1 sec

Total number of grid points                  ...    12392
Total number of batches                      ...      194
Average number of points per batch           ...       63
Average number of grid points per atom       ...     6196
Average number of shells per batch           ...     9.65 (80.43%)
Average number of basis functions per batch  ...    23.20 (82.86%)
Average number of large shells per batch     ...     8.90 (92.24%)
Average number of large basis fcns per batch ...    21.69 (93.50%)
Maximum spatial batch extension              ...  19.94, 19.94, 14.76 au
Average spatial batch extension              ...   3.86,  3.91,  3.22 au

Time for grid setup =    0.082 sec

--------------
SCF ITERATIONS
--------------
ITER       Energy         Delta-E        Max-DP      RMS-DP      [F,P]   Gradient Norm
               ***  Starting incremental Fock matrix formation  ***
                             ****Resetting KDIIS****
                             ****Turning on KDIIS(Cayley)****
  0   -109.4441736600   0.000000000000 0.00396879  0.00049881  0.0369348   0.038764303
  1   -109.4461703565  -0.001996696471 0.00626054  0.00085948  0.0327143   0.034629483
  2   -109.4489065880  -0.002736231464 0.01087497  0.00160031  0.0266209   0.028052396
  3   -109.4523164256  -0.003409837661 0.01620415  0.00246006  0.0160138   0.016853849
  4   -109.4542388201  -0.001922394506 0.00014534  0.00001283  0.0001188   0.000076866
                          ***Energy convergence achieved***
  5   -109.4542388612  -0.000000041058 0.00003672  0.00000354  0.0000281   0.000017303
Warning: badly conditioned DIIS matrix, 1 vectors out of 5 destroyed
Warning: badly conditioned DIIS matrix, 1 vectors out of 4 destroyed
                           ***RMSP convergence achieved***
                           ***MAXP convergence achieved***
                    *** KDIIS BlockDiag ( 1.398 sec) ***

               *****************************************************
               *                     SUCCESS                       *
               *           SCF CONVERGED AFTER   6 CYCLES          *
               *****************************************************

Setting up the final grid:

General Integration Accuracy     IntAcc      ...  5.010
Radial Grid Type                 RadialGrid  ... Gauss-Chebyshev
Angular Grid (max. acc.)         AngularGrid ... Lebedev-434
Angular grid pruning method      GridPruning ... 3 (G Style)
Weight generation scheme         WeightScheme... Becke
Basis function cutoff            BFCut       ...    1.0000e-10
Integration weight cutoff        WCut        ...    1.0000e-14
Grids for H and He will be reduced by one unit

# of grid points (after initial pruning)     ...  21180 (   0.0 sec)
# of grid points (after weights+screening)   ...  21072 (   0.0 sec)
nearest neighbour list constructed           ...    0.0 sec
Grid point re-assignment to atoms done       ...    0.0 sec
Grid point division into batches done        ...    0.2 sec
Reduced shell lists constructed in    0.2 sec

Total number of grid points                  ...    21072
Total number of batches                      ...      330
Average number of points per batch           ...       63
Average number of grid points per atom       ...    10536
Average number of shells per batch           ...     9.37 (78.10%)
Average number of basis functions per batch  ...    22.53 (80.45%)
Average number of large shells per batch     ...     8.72 (93.07%)
Average number of large basis fcns per batch ...    21.22 (94.19%)
Maximum spatial batch extension              ...  16.29, 16.29, 19.54 au
Average spatial batch extension              ...   3.15,  3.15,  2.85 au

Final grid set up in    0.2 sec
Final integration                            ... done (   0.1 sec)
Change in XC energy                          ...    -0.000088419
Integrated number of electrons               ...    13.999998215
Previous integrated no of electrons          ...    13.999996778
Total Energy       :         -109.45432728 Eh           -2978.40366 eV
  Last Energy change         ...   -2.1213e-09  Tolerance :   1.0000e-06
  Last MAX-Density change    ...    5.7380e-06  Tolerance :   1.0000e-05
             **** THE GBW FILE WAS UPDATED (N2.gbw) ****
             **** DENSITY FILE WAS UPDATED (N2.scfp) ****
             **** ENERGY FILE WAS UPDATED (N2.en.tmp) ****
             **** THE GBW FILE WAS UPDATED (N2.gbw) ****
             **** DENSITY FILE WAS UPDATED (N2.scfp) ****
Total SCF time: 0 days 0 hours 0 min 1 sec 

-------------------------   --------------------
FINAL SINGLE POINT ENERGY      -109.454327282692
-------------------------   --------------------

Storing actual gbw-file in N2.005.gbw ... done

                            ***************************************
                            *     ORCA property calculations      *
                            ***************************************

                                    ---------------------
                                    Active property flags
                                    ---------------------
   (+) Dipole Moment


------------------------------------------------------------------------------
                       ORCA ELECTRIC PROPERTIES CALCULATION
------------------------------------------------------------------------------

Dipole Moment Calculation                       ... on
Quadrupole Moment Calculation                   ... off
Polarizability Calculation                      ... off
GBWName                                         ... N2.gbw
Electron density file                           ... N2.scfp
The origin for moment calculation is the CENTER OF MASS  = ( 0.000000,  0.000000  0.943162)

-------------
DIPOLE MOMENT
-------------
                                X             Y             Z
Electronic contribution:     -0.00000      -0.00000       0.00000
Nuclear contribution   :      0.00000       0.00000       0.00000
                        -----------------------------------------
Total Dipole Moment    :     -0.00000      -0.00000       0.00000
                        -----------------------------------------
Magnitude (a.u.)       :      0.00000
Magnitude (Debye)      :      0.00000



--------------------
Rotational spectrum 
--------------------
 
Rotational constants in cm-1:     0.000000     2.415720     2.415720 
Rotational constants in MHz :     0.000000 72421.470682 72421.470682 

 Dipole components along the rotational axes: 
x,y,z [a.u.] :     0.000000    -0.000000    -0.000000 
x,y,z [Debye]:     0.000000    -0.000000    -0.000000 

 

         *************************************************************
                                TRAJECTORY STEP   6
                  R  :   1.09820000
         *************************************************************
---------------------------------
CARTESIAN COORDINATES (ANGSTROEM)
---------------------------------
  N      0.000000    0.000000    0.000000
  N      0.000000    0.000000    1.098200

----------------------------
CARTESIAN COORDINATES (A.U.)
----------------------------
  NO LB      ZA    FRAG     MASS         X           Y           Z
   0 N     7.0000    0    14.007    0.000000    0.000000    0.000000
   1 N     7.0000    0    14.007    0.000000    0.000000    2.075297

--------------------------------
INTERNAL COORDINATES (ANGSTROEM)
--------------------------------
 N      0   0   0     0.000000000000     0.00000000     0.00000000
 N      1   0   0     1.098200000000     0.00000000     0.00000000

---------------------------
INTERNAL COORDINATES (A.U.)
---------------------------
 N      0   0   0     0.000000000000     0.00000000     0.00000000
 N      1   0   0     2.075297240272     0.00000000     0.00000000


Diagonalization of the overlap matrix:
Smallest eigenvalue                        ... 5.446e-03
Time for diagonalization                   ...    0.001 sec
Threshold for overlap eigenvalues          ... 1.000e-08
Number of eigenvalues below threshold      ... 0
Time for construction of square roots      ...    0.000 sec
Total time needed                          ...    0.001 sec

-------------------
DFT GRID GENERATION
-------------------

General Integration Accuracy     IntAcc      ...  4.670
Radial Grid Type                 RadialGrid  ... Gauss-Chebyshev
Angular Grid (max. acc.)         AngularGrid ... Lebedev-302
Angular grid pruning method      GridPruning ... 3 (G Style)
Weight generation scheme         WeightScheme... Becke
Basis function cutoff            BFCut       ...    1.0000e-10
Integration weight cutoff        WCut        ...    1.0000e-14
Grids for H and He will be reduced by one unit

# of grid points (after initial pruning)     ...  12424 (   0.0 sec)
# of grid points (after weights+screening)   ...  12394 (   0.0 sec)
nearest neighbour list constructed           ...    0.0 sec
Grid point re-assignment to atoms done       ...    0.0 sec
Grid point division into batches done        ...    0.1 sec
Reduced shell lists constructed in    0.1 sec

Total number of grid points                  ...    12394
Total number of batches                      ...      194
Average number of points per batch           ...       63
Average number of grid points per atom       ...     6197
Average number of shells per batch           ...     9.63 (80.21%)
Average number of basis functions per batch  ...    23.17 (82.77%)
Average number of large shells per batch     ...     8.83 (91.74%)
Average number of large basis fcns per batch ...    21.57 (93.07%)
Maximum spatial batch extension              ...  19.94, 19.94, 14.76 au
Average spatial batch extension              ...   3.83,  3.87,  3.27 au

Time for grid setup =    0.083 sec

--------------
SCF ITERATIONS
--------------
ITER       Energy         Delta-E        Max-DP      RMS-DP      [F,P]   Gradient Norm
               ***  Starting incremental Fock matrix formation  ***
                             ****Resetting KDIIS****
                             ****Turning on KDIIS(Cayley)****
  0   -109.4874469246   0.000000000000 0.00328710  0.00044748  0.0335471   0.031688128
  1   -109.4889094456  -0.001462521036 0.00565878  0.00081569  0.0296970   0.028397422
  2   -109.4910059560  -0.002096510447 0.01029567  0.00151439  0.0242045   0.023082553
  3   -109.4936673076  -0.002661351515 0.01584522  0.00230710  0.0145410   0.013875487
  4   -109.4951714581  -0.001504150538 0.00013812  0.00001513  0.0001157   0.000073409
                          ***Energy convergence achieved***
  5   -109.4951715017  -0.000000043625 0.00004920  0.00000351  0.0000089   0.000007354
Warning: badly conditioned DIIS matrix, 1 vectors out of 5 destroyed
                           ***RMSP convergence achieved***
                           ***MAXP convergence achieved***
                    *** KDIIS BlockDiag ( 1.387 sec) ***

               *****************************************************
               *                     SUCCESS                       *
               *           SCF CONVERGED AFTER   6 CYCLES          *
               *****************************************************

Setting up the final grid:

General Integration Accuracy     IntAcc      ...  5.010
Radial Grid Type                 RadialGrid  ... Gauss-Chebyshev
Angular Grid (max. acc.)         AngularGrid ... Lebedev-434
Angular grid pruning method      GridPruning ... 3 (G Style)
Weight generation scheme         WeightScheme... Becke
Basis function cutoff            BFCut       ...    1.0000e-10
Integration weight cutoff        WCut        ...    1.0000e-14
Grids for H and He will be reduced by one unit

# of grid points (after initial pruning)     ...  21180 (   0.0 sec)
# of grid points (after weights+screening)   ...  21082 (   0.0 sec)
nearest neighbour list constructed           ...    0.0 sec
Grid point re-assignment to atoms done       ...    0.0 sec
Grid point division into batches done        ...    0.2 sec
Reduced shell lists constructed in    0.2 sec

Total number of grid points                  ...    21082
Total number of batches                      ...      330
Average number of points per batch           ...       63
Average number of grid points per atom       ...    10541
Average number of shells per batch           ...     9.36 (78.02%)
Average number of basis functions per batch  ...    22.50 (80.35%)
Average number of large shells per batch     ...     8.66 (92.51%)
Average number of large basis fcns per batch ...    21.22 (94.31%)
Maximum spatial batch extension              ...  16.29, 16.29, 19.48 au
Average spatial batch extension              ...   3.17,  3.14,  2.87 au

Final grid set up in    0.2 sec
Final integration                            ... done (   0.1 sec)
Change in XC energy                          ...    -0.000292170
Integrated number of electrons               ...    13.999999026
Previous integrated no of electrons          ...    13.999999040
Total Energy       :         -109.49546367 Eh           -2979.52304 eV
  Last Energy change         ...   -4.6839e-10  Tolerance :   1.0000e-06
  Last MAX-Density change    ...    2.7661e-06  Tolerance :   1.0000e-05
             **** THE GBW FILE WAS UPDATED (N2.gbw) ****
             **** DENSITY FILE WAS UPDATED (N2.scfp) ****
             **** ENERGY FILE WAS UPDATED (N2.en.tmp) ****
             **** THE GBW FILE WAS UPDATED (N2.gbw) ****
             **** DENSITY FILE WAS UPDATED (N2.scfp) ****
Total SCF time: 0 days 0 hours 0 min 1 sec 

-------------------------   --------------------
FINAL SINGLE POINT ENERGY      -109.495463671824
-------------------------   --------------------

Storing actual gbw-file in N2.006.gbw ... done

                            ***************************************
                            *     ORCA property calculations      *
                            ***************************************

                                    ---------------------
                                    Active property flags
                                    ---------------------
   (+) Dipole Moment


------------------------------------------------------------------------------
                       ORCA ELECTRIC PROPERTIES CALCULATION
------------------------------------------------------------------------------

Dipole Moment Calculation                       ... on
Quadrupole Moment Calculation                   ... off
Polarizability Calculation                      ... off
GBWName                                         ... N2.gbw
Electron density file                           ... N2.scfp
The origin for moment calculation is the CENTER OF MASS  = ( 0.000000,  0.000000  1.037649)

-------------
DIPOLE MOMENT
-------------
                                X             Y             Z
Electronic contribution:     -0.00000       0.00000       0.00000
Nuclear contribution   :      0.00000       0.00000       0.00000
                        -----------------------------------------
Total Dipole Moment    :     -0.00000       0.00000       0.00000
                        -----------------------------------------
Magnitude (a.u.)       :      0.00000
Magnitude (Debye)      :      0.00000



--------------------
Rotational spectrum 
--------------------
 
Rotational constants in cm-1:     0.000000     1.995809     1.995809 
Rotational constants in MHz :     0.000000 59832.836535 59832.836535 

 Dipole components along the rotational axes: 
x,y,z [a.u.] :     0.000000     0.000000    -0.000000 
x,y,z [Debye]:     0.000001     0.000000    -0.000000 

 

         *************************************************************
                                TRAJECTORY STEP   7
                  R  :   1.19820000
         *************************************************************
---------------------------------
CARTESIAN COORDINATES (ANGSTROEM)
---------------------------------
  N      0.000000    0.000000    0.000000
  N      0.000000    0.000000    1.198200

----------------------------
CARTESIAN COORDINATES (A.U.)
----------------------------
  NO LB      ZA    FRAG     MASS         X           Y           Z
   0 N     7.0000    0    14.007    0.000000    0.000000    0.000000
   1 N     7.0000    0    14.007    0.000000    0.000000    2.264270

--------------------------------
INTERNAL COORDINATES (ANGSTROEM)
--------------------------------
 N      0   0   0     0.000000000000     0.00000000     0.00000000
 N      1   0   0     1.198200000000     0.00000000     0.00000000

---------------------------
INTERNAL COORDINATES (A.U.)
---------------------------
 N      0   0   0     0.000000000000     0.00000000     0.00000000
 N      1   0   0     2.264269853664     0.00000000     0.00000000


Diagonalization of the overlap matrix:
Smallest eigenvalue                        ... 8.096e-03
Time for diagonalization                   ...    0.001 sec
Threshold for overlap eigenvalues          ... 1.000e-08
Number of eigenvalues below threshold      ... 0
Time for construction of square roots      ...    0.000 sec
Total time needed                          ...    0.001 sec

-------------------
DFT GRID GENERATION
-------------------

General Integration Accuracy     IntAcc      ...  4.670
Radial Grid Type                 RadialGrid  ... Gauss-Chebyshev
Angular Grid (max. acc.)         AngularGrid ... Lebedev-302
Angular grid pruning method      GridPruning ... 3 (G Style)
Weight generation scheme         WeightScheme... Becke
Basis function cutoff            BFCut       ...    1.0000e-10
Integration weight cutoff        WCut        ...    1.0000e-14
Grids for H and He will be reduced by one unit

# of grid points (after initial pruning)     ...  12424 (   0.0 sec)
# of grid points (after weights+screening)   ...  12396 (   0.0 sec)
nearest neighbour list constructed           ...    0.0 sec
Grid point re-assignment to atoms done       ...    0.0 sec
Grid point division into batches done        ...    0.1 sec
Reduced shell lists constructed in    0.1 sec

Total number of grid points                  ...    12396
Total number of batches                      ...      194
Average number of points per batch           ...       63
Average number of grid points per atom       ...     6198
Average number of shells per batch           ...     9.57 (79.74%)
Average number of basis functions per batch  ...    23.06 (82.34%)
Average number of large shells per batch     ...     8.77 (91.64%)
Average number of large basis fcns per batch ...    21.44 (92.97%)
Maximum spatial batch extension              ...  19.94, 19.94, 14.76 au
Average spatial batch extension              ...   3.89,  3.93,  3.27 au

Time for grid setup =    0.083 sec

--------------
SCF ITERATIONS
--------------
ITER       Energy         Delta-E        Max-DP      RMS-DP      [F,P]   Gradient Norm
               ***  Starting incremental Fock matrix formation  ***
                             ****Resetting KDIIS****
                             ****Turning on KDIIS(Cayley)****
  0   -109.4663756823   0.000000000000 0.00290344  0.00041516  0.0298309   0.026943511
  1   -109.4675065730  -0.001130890742 0.00619463  0.00079529  0.0267219   0.024255023
  2   -109.4692218196  -0.001715246560 0.01109814  0.00145032  0.0216734   0.019773029
  3   -109.4714297777  -0.002207958150 0.01677596  0.00219607  0.0129743   0.011884620
  4   -109.4726795745  -0.001249796740 0.00015462  0.00001523  0.0000777   0.000056507
                          ***Energy convergence achieved***
  5   -109.4726795983  -0.000000023786 0.00005123  0.00000453  0.0000326   0.000021920
                           ***RMSP convergence achieved***
                           ***MAXP convergence achieved***
                    *** KDIIS BlockDiag ( 1.385 sec) ***

               *****************************************************
               *                     SUCCESS                       *
               *           SCF CONVERGED AFTER   6 CYCLES          *
               *****************************************************

Setting up the final grid:

General Integration Accuracy     IntAcc      ...  5.010
Radial Grid Type                 RadialGrid  ... Gauss-Chebyshev
Angular Grid (max. acc.)         AngularGrid ... Lebedev-434
Angular grid pruning method      GridPruning ... 3 (G Style)
Weight generation scheme         WeightScheme... Becke
Basis function cutoff            BFCut       ...    1.0000e-10
Integration weight cutoff        WCut        ...    1.0000e-14
Grids for H and He will be reduced by one unit

# of grid points (after initial pruning)     ...  21180 (   0.0 sec)
# of grid points (after weights+screening)   ...  21092 (   0.0 sec)
nearest neighbour list constructed           ...    0.0 sec
Grid point re-assignment to atoms done       ...    0.0 sec
Grid point division into batches done        ...    0.2 sec
Reduced shell lists constructed in    0.2 sec

Total number of grid points                  ...    21092
Total number of batches                      ...      330
Average number of points per batch           ...       63
Average number of grid points per atom       ...    10546
Average number of shells per batch           ...     9.28 (77.34%)
Average number of basis functions per batch  ...    22.36 (79.87%)
Average number of large shells per batch     ...     8.61 (92.74%)
Average number of large basis fcns per batch ...    21.10 (94.34%)
Maximum spatial batch extension              ...  16.29, 23.16, 19.43 au
Average spatial batch extension              ...   3.18,  3.22,  2.92 au

Final grid set up in    0.2 sec
Final integration                            ... done (   0.1 sec)
Change in XC energy                          ...    -0.000465882
Integrated number of electrons               ...    14.000002015
Previous integrated no of electrons          ...    14.000006175
Total Energy       :         -109.47314548 Eh           -2978.91573 eV
[...]
  2   -108.5728399436  -0.000000170037 0.00012104  0.00001424  0.0002019   0.000142755
  3   -108.5728401417  -0.000000198127 0.00018092  0.00002171  0.0001244   0.000087238

            ***Energy convergence in two consecutive cycles with***
                    ***'reasonable' density convergence***
                       *** signaling convergence ***

                    *** KDIIS BlockDiag ( 0.962 sec) ***

               *****************************************************
               *                     SUCCESS                       *
               *           SCF CONVERGED AFTER   4 CYCLES          *
               *****************************************************

Setting up the final grid:

General Integration Accuracy     IntAcc      ...  5.010
Radial Grid Type                 RadialGrid  ... Gauss-Chebyshev
Angular Grid (max. acc.)         AngularGrid ... Lebedev-434
Angular grid pruning method      GridPruning ... 3 (G Style)
Weight generation scheme         WeightScheme... Becke
Basis function cutoff            BFCut       ...    1.0000e-10
Integration weight cutoff        WCut        ...    1.0000e-14
Grids for H and He will be reduced by one unit

# of grid points (after initial pruning)     ...  21180 (   0.0 sec)
# of grid points (after weights+screening)   ...  21172 (   0.0 sec)
nearest neighbour list constructed           ...    0.0 sec
Grid point re-assignment to atoms done       ...    0.0 sec
Grid point division into batches done        ...    0.2 sec
Reduced shell lists constructed in    0.2 sec

Total number of grid points                  ...    21172
Total number of batches                      ...      332
Average number of points per batch           ...       63
Average number of grid points per atom       ...    10586
Average number of shells per batch           ...     6.53 (54.45%)
Average number of basis functions per batch  ...    15.21 (54.31%)
Average number of large shells per batch     ...     5.06 (77.44%)
Average number of large basis fcns per batch ...    12.04 (79.17%)
Maximum spatial batch extension              ...  22.76, 22.76, 15.40 au
Average spatial batch extension              ...   3.57,  3.55,  3.32 au

Final grid set up in    0.2 sec
Final integration                            ... done (   0.1 sec)
Change in XC energy                          ...    -0.000598524
Integrated number of electrons               ...    14.000000175
Previous integrated no of electrons          ...    13.999998039
Total Energy       :         -108.57343878 Eh           -2954.43347 eV
  Last Energy change         ...   -1.1680e-07  Tolerance :   1.0000e-06
  Last MAX-Density change    ...    3.9121e-05  Tolerance :   1.0000e-05
             **** THE GBW FILE WAS UPDATED (N2.gbw) ****
             **** DENSITY FILE WAS UPDATED (N2.scfp) ****
             **** ENERGY FILE WAS UPDATED (N2.en.tmp) ****
             **** THE GBW FILE WAS UPDATED (N2.gbw) ****
             **** DENSITY FILE WAS UPDATED (N2.scfp) ****
Total SCF time: 0 days 0 hours 0 min 1 sec 

-------------------------   --------------------
FINAL SINGLE POINT ENERGY      -108.573438782812
-------------------------   --------------------

Storing actual gbw-file in N2.045.gbw ... done

                            ***************************************
                            *     ORCA property calculations      *
                            ***************************************

                                    ---------------------
                                    Active property flags
                                    ---------------------
   (+) Dipole Moment


------------------------------------------------------------------------------
                       ORCA ELECTRIC PROPERTIES CALCULATION
------------------------------------------------------------------------------

Dipole Moment Calculation                       ... on
Quadrupole Moment Calculation                   ... off
Polarizability Calculation                      ... off
GBWName                                         ... N2.gbw
Electron density file                           ... N2.scfp
The origin for moment calculation is the CENTER OF MASS  = ( 0.000000,  0.000000  4.722615)

-------------
DIPOLE MOMENT
-------------
                                X             Y             Z
Electronic contribution:     -0.00000      -0.00000      -0.00003
Nuclear contribution   :      0.00000       0.00000      -0.00000
                        -----------------------------------------
Total Dipole Moment    :     -0.00000      -0.00000      -0.00003
                        -----------------------------------------
Magnitude (a.u.)       :      0.00003
Magnitude (Debye)      :      0.00007



--------------------
Rotational spectrum 
--------------------
 
Rotational constants in cm-1:     0.000000     0.096351     0.096351 
Rotational constants in MHz :     0.000000  2888.518881  2888.518881 

 Dipole components along the rotational axes: 
x,y,z [a.u.] :    -0.000029    -0.000000    -0.000000 
x,y,z [Debye]:    -0.000072    -0.000000    -0.000000 

 

         *************************************************************
                                TRAJECTORY STEP  46
                  R  :   5.09820000
         *************************************************************
---------------------------------
CARTESIAN COORDINATES (ANGSTROEM)
---------------------------------
  N      0.000000    0.000000    0.000000
  N      0.000000    0.000000    5.098200

----------------------------
CARTESIAN COORDINATES (A.U.)
----------------------------
  NO LB      ZA    FRAG     MASS         X           Y           Z
   0 N     7.0000    0    14.007    0.000000    0.000000    0.000000
   1 N     7.0000    0    14.007    0.000000    0.000000    9.634202

--------------------------------
INTERNAL COORDINATES (ANGSTROEM)
--------------------------------
 N      0   0   0     0.000000000000     0.00000000     0.00000000
 N      1   0   0     5.098200000000     0.00000000     0.00000000

---------------------------
INTERNAL COORDINATES (A.U.)
---------------------------
 N      0   0   0     0.000000000000     0.00000000     0.00000000
 N      1   0   0     9.634201775957     0.00000000     0.00000000


Diagonalization of the overlap matrix:
Smallest eigenvalue                        ... 2.227e-01
Time for diagonalization                   ...    0.000 sec
Threshold for overlap eigenvalues          ... 1.000e-08
Number of eigenvalues below threshold      ... 0
Time for construction of square roots      ...    0.000 sec
Total time needed                          ...    0.001 sec

-------------------
DFT GRID GENERATION
-------------------

General Integration Accuracy     IntAcc      ...  4.670
Radial Grid Type                 RadialGrid  ... Gauss-Chebyshev
Angular Grid (max. acc.)         AngularGrid ... Lebedev-302
Angular grid pruning method      GridPruning ... 3 (G Style)
Weight generation scheme         WeightScheme... Becke
Basis function cutoff            BFCut       ...    1.0000e-10
Integration weight cutoff        WCut        ...    1.0000e-14
Grids for H and He will be reduced by one unit

# of grid points (after initial pruning)     ...  12424 (   0.0 sec)
# of grid points (after weights+screening)   ...  12416 (   0.0 sec)
nearest neighbour list constructed           ...    0.0 sec
Grid point re-assignment to atoms done       ...    0.0 sec
Grid point division into batches done        ...    0.1 sec
Reduced shell lists constructed in    0.1 sec

Total number of grid points                  ...    12416
Total number of batches                      ...      196
Average number of points per batch           ...       63
Average number of grid points per atom       ...     6208
Average number of shells per batch           ...     6.78 (56.47%)
Average number of basis functions per batch  ...    15.72 (56.15%)
Average number of large shells per batch     ...     5.21 (76.85%)
Average number of large basis fcns per batch ...    12.57 (79.95%)
Maximum spatial batch extension              ...  27.50, 19.94, 14.11 au
Average spatial batch extension              ...   4.43,  4.18,  3.89 au

Time for grid setup =    0.080 sec

--------------
SCF ITERATIONS
--------------
ITER       Energy         Delta-E        Max-DP      RMS-DP      [F,P]   Gradient Norm
               ***  Starting incremental Fock matrix formation  ***
                             ****Resetting KDIIS****
                             ****Turning on KDIIS(Cayley)****
  0   -108.5694926418   0.000000000000 0.00002874  0.00000345  0.0002253   0.000170764
                          ***Energy convergence achieved***
  1   -108.5694927117  -0.000000069882 0.00007939  0.00000770  0.0002048   0.000156985
  2   -108.5694928431  -0.000000131383 0.00011270  0.00001252  0.0001672   0.000128930
  3   -108.5694930044  -0.000000161369 0.00014631  0.00001804  0.0001061   0.000079782
  4   -108.5694930990  -0.000000094568 0.00012332  0.00001049  0.0000228   0.000018859
                           ***RMSP convergence achieved***
                           ***MAXP convergence achieved***
                    *** KDIIS BlockDiag ( 1.093 sec) ***

               *****************************************************
               *                     SUCCESS                       *
               *           SCF CONVERGED AFTER   5 CYCLES          *
               *****************************************************

Setting up the final grid:

General Integration Accuracy     IntAcc      ...  5.010
Radial Grid Type                 RadialGrid  ... Gauss-Chebyshev
Angular Grid (max. acc.)         AngularGrid ... Lebedev-434
Angular grid pruning method      GridPruning ... 3 (G Style)
Weight generation scheme         WeightScheme... Becke
Basis function cutoff            BFCut       ...    1.0000e-10
Integration weight cutoff        WCut        ...    1.0000e-14
Grids for H and He will be reduced by one unit

# of grid points (after initial pruning)     ...  21180 (   0.0 sec)
# of grid points (after weights+screening)   ...  21172 (   0.0 sec)
nearest neighbour list constructed           ...    0.0 sec
Grid point re-assignment to atoms done       ...    0.0 sec
Grid point division into batches done        ...    0.2 sec
Reduced shell lists constructed in    0.2 sec

Total number of grid points                  ...    21172
Total number of batches                      ...      332
Average number of points per batch           ...       63
Average number of grid points per atom       ...    10586
Average number of shells per batch           ...     6.50 (54.18%)
Average number of basis functions per batch  ...    15.11 (53.98%)
Average number of large shells per batch     ...     5.03 (77.41%)
Average number of large basis fcns per batch ...    12.01 (79.44%)
Maximum spatial batch extension              ...  22.76, 22.76, 15.54 au
Average spatial batch extension              ...   3.57,  3.55,  3.30 au

Final grid set up in    0.2 sec
Final integration                            ... done (   0.1 sec)
Change in XC energy                          ...    -0.000598508
Integrated number of electrons               ...    14.000007819
Previous integrated no of electrons          ...    13.999987596
Total Energy       :         -108.57009160 Eh           -2954.34239 eV
  Last Energy change         ...    9.8903e-09  Tolerance :   1.0000e-06
  Last MAX-Density change    ...    2.0904e-06  Tolerance :   1.0000e-05
             **** THE GBW FILE WAS UPDATED (N2.gbw) ****
             **** DENSITY FILE WAS UPDATED (N2.scfp) ****
             **** ENERGY FILE WAS UPDATED (N2.en.tmp) ****
             **** THE GBW FILE WAS UPDATED (N2.gbw) ****
             **** DENSITY FILE WAS UPDATED (N2.scfp) ****
Total SCF time: 0 days 0 hours 0 min 1 sec 

-------------------------   --------------------
FINAL SINGLE POINT ENERGY      -108.570091597062
-------------------------   --------------------

Storing actual gbw-file in N2.046.gbw ... done

                            ***************************************
                            *     ORCA property calculations      *
                            ***************************************

                                    ---------------------
                                    Active property flags
                                    ---------------------
   (+) Dipole Moment


------------------------------------------------------------------------------
                       ORCA ELECTRIC PROPERTIES CALCULATION
------------------------------------------------------------------------------

Dipole Moment Calculation                       ... on
Quadrupole Moment Calculation                   ... off
Polarizability Calculation                      ... off
GBWName                                         ... N2.gbw
Electron density file                           ... N2.scfp
The origin for moment calculation is the CENTER OF MASS  = ( 0.000000,  0.000000  4.817101)

-------------
DIPOLE MOMENT
-------------
                                X             Y             Z
Electronic contribution:      0.00000       0.00000      -0.00000
Nuclear contribution   :      0.00000       0.00000      -0.00000
                        -----------------------------------------
Total Dipole Moment    :      0.00000       0.00000      -0.00000
                        -----------------------------------------
Magnitude (a.u.)       :      0.00000
Magnitude (Debye)      :      0.00000



--------------------
Rotational spectrum 
--------------------
 
Rotational constants in cm-1:     0.000000     0.092608     0.092608 
Rotational constants in MHz :     0.000000  2776.314963  2776.314963 

 Dipole components along the rotational axes: 
x,y,z [a.u.] :    -0.000000     0.000000     0.000000 
x,y,z [Debye]:    -0.000000     0.000000     0.000000 

 
                              **** TRAJECTORY DONE ***

                         SUMMARY OF THE CALCULATED SURFACE

------------------
TRAJECTORY RESULTS
------------------

Column   1: R

The Calculated Surface using the 'Actual Energy'
   0.59820000 -106.49778516
   0.69820000 -108.08646478
   0.79820000 -108.89819048
   0.89820000 -109.29043005
   0.99820000 -109.45432728
   1.09820000 -109.49546367
   1.19820000 -109.47314548
   1.29820000 -109.42047405
   1.39820000 -109.35547796
   1.49820000 -109.28762114
   1.59820000 -109.22163461
   1.69820000 -109.15989343
   1.79820000 -109.10328438
   1.89820000 -109.05195041
   1.99820000 -109.00569376
   2.09820000 -108.96413101
   2.19820000 -108.92674076
   2.29820000 -108.89309681
   2.39820000 -108.86280493
   2.49820000 -108.83542641
   2.59820000 -108.81061597
   2.69820000 -108.78810068
   2.79820000 -108.76761217
   2.89820000 -108.74889794
   2.99820000 -108.73178878
   3.09820000 -108.71612732
   3.19820000 -108.70177267
   3.29820000 -108.68859992
   3.39820000 -108.67650413
   3.49820000 -108.66539561
   3.59820000 -108.65520685
   3.69820000 -108.64585832
   3.79820000 -108.63727064
   3.89820000 -108.62938419
   3.99820000 -108.62214082
   4.09820000 -108.61547323
   4.19820000 -108.60932684
   4.29820000 -108.60365065
   4.39820000 -108.59839416
   4.49820000 -108.59351361
   4.59820000 -108.58896678
   4.69820000 -108.58471405
   4.79820000 -108.58072451
   4.89820000 -108.57697420
   4.99820000 -108.57343878
   5.09820000 -108.57009160

                        *******************************
                        *   FIT OF THE ACT-ENERGY PES *
                        *******************************
-------------------------------
POTENTIAL ENERGY SURFACE =   0
-------------------------------

Minimum found after 22 iterations
Equilibrium distance and its energy from the interpolated PES:
  Re      =   1.10259 Angstroem  (  2.08360 Bohr)
  E(Re)   =  -109.495522 Eh 
  dE/dR   = -1.026e-07 (-1.400e-01 CHEB)
  d2E/dR2 =    1.672118 (   4.441989 CHEB) (   2.627002 NUM)
  d3E/dR3 =   -5.010338 ( -18.277248 CHEB)

Spectroscopic constants:
  we =    2512.4 cm**-1 (based on SPLINE)
  we =    4094.9 cm**-1 (based on CHEB)
  we =    3149.1 cm**-1 (based on NUM)

Performing Morse fit ...
Morse-Fit Results:
 Te(adiabatic)   =  -14081.8 cm**-1         = -1.746 eV
 d2E/dR**2 (Morse)=      1.897593163 
 d3E/dR**3 (Morse)=     -5.775319500 
 d4E/dR**4 (Morse)=     13.671131281 
 E0               =   -109.559683153 Eh  RMS=7.01e-05
 Re               =   1.13424 Angstroem      =  2.14341 Bohr RMS=3.98e-05)
 De(Morse)        =  25.08537 eV             = 202327.1 cm**-1 RMS=7.11e-05
 D0(Morse)        =  24.91945 eV
 beta             =   1.01450 au          RMS=4.64e-05
 we               =   2676.4 cm**-1
 wexe             =      8.8 cm**-1
 Displacement   =    0.0317 Angstroem      =  0.05981 Bohr

The Calculated Surface using the SCF energy
   0.59820000 -106.49778516
   0.69820000 -108.08646478
   0.79820000 -108.89819048
   0.89820000 -109.29043005
   0.99820000 -109.45432728
   1.09820000 -109.49546367
   1.19820000 -109.47314548
   1.29820000 -109.42047405
   1.39820000 -109.35547796
   1.49820000 -109.28762114
   1.59820000 -109.22163461
   1.69820000 -109.15989343
   1.79820000 -109.10328438
   1.89820000 -109.05195041
   1.99820000 -109.00569376
   2.09820000 -108.96413101
   2.19820000 -108.92674076
   2.29820000 -108.89309681
   2.39820000 -108.86280493
   2.49820000 -108.83542641
   2.59820000 -108.81061597
   2.69820000 -108.78810068
   2.79820000 -108.76761217
   2.89820000 -108.74889794
   2.99820000 -108.73178878
   3.09820000 -108.71612732
   3.19820000 -108.70177267
   3.29820000 -108.68859992
   3.39820000 -108.67650413
   3.49820000 -108.66539561
   3.59820000 -108.65520685
   3.69820000 -108.64585832
   3.79820000 -108.63727064
   3.89820000 -108.62938419
   3.99820000 -108.62214082
   4.09820000 -108.61547323
   4.19820000 -108.60932684
   4.29820000 -108.60365065
   4.39820000 -108.59839416
   4.49820000 -108.59351361
   4.59820000 -108.58896678
   4.69820000 -108.58471405
   4.79820000 -108.58072451
   4.89820000 -108.57697420
   4.99820000 -108.57343878
   5.09820000 -108.57009160

                        *******************************
                        *       FIT OF THE SCF PES    *
                        *******************************
-------------------------------
POTENTIAL ENERGY SURFACE =   0
-------------------------------

Minimum found after 22 iterations
Equilibrium distance and its energy from the interpolated PES:
  Re      =   1.10259 Angstroem  (  2.08360 Bohr)
  E(Re)   =  -109.495522 Eh 
  dE/dR   = -1.026e-07 (-1.400e-01 CHEB)
  d2E/dR2 =    1.672118 (   4.441989 CHEB) (   2.627002 NUM)
  d3E/dR3 =   -5.010338 ( -18.277248 CHEB)

Spectroscopic constants:
  we =    2512.4 cm**-1 (based on SPLINE)
  we =    4094.9 cm**-1 (based on CHEB)
  we =    3149.1 cm**-1 (based on NUM)

Performing Morse fit ...
Morse-Fit Results:
 Te(adiabatic)   =  -14081.8 cm**-1         = -1.746 eV
 d2E/dR**2 (Morse)=      1.897593163 
 d3E/dR**3 (Morse)=     -5.775319500 
 d4E/dR**4 (Morse)=     13.671131281 
 E0               =   -109.559683153 Eh  RMS=7.01e-05
 Re               =   1.13424 Angstroem      =  2.14341 Bohr RMS=3.98e-05)
 De(Morse)        =  25.08537 eV             = 202327.1 cm**-1 RMS=7.11e-05
 D0(Morse)        =  24.91945 eV
 beta             =   1.01450 au          RMS=4.64e-05
 we               =   2676.4 cm**-1
 wexe             =      8.8 cm**-1
 Displacement   =    0.0317 Angstroem      =  0.05981 Bohr


Timings for individual modules:

Sum of individual times         ...       84.450 sec (=   1.407 min)
GTO integral calculation        ...       10.947 sec (=   0.182 min)  13.0 %
SCF iterations                  ...       73.503 sec (=   1.225 min)  87.0 %
                             ****ORCA TERMINATED NORMALLY****
TOTAL RUN TIME: 0 days 0 hours 1 minutes 28 seconds 483 msec
