
                                 *****************
                                 * O   R   C   A *
                                 *****************

           --- An Ab Initio, DFT and Semiempirical electronic structure package ---

                  #######################################################
                  #                        -***-                        #
                  #          Department of theory and spectroscopy      #
                  #               Directorship: Frank Neese             #
                  #        Max Planck Institute fuer Kohlenforschung    #
                  #                Kaiser Wilhelm Platz 1               #
                  #                 D-45470 Muelheim/Ruhr               #
                  #                      Germany                        #
                  #                                                     #
                  #                  All rights reserved                #
                  #                        -***-                        #
                  #######################################################


                         Program Version 4.2.0 -  RELEASE  -


 With contributions from (in alphabetic order):
   Daniel Aravena         : Magnetic Suceptibility
   Michael Atanasov       : Ab Initio Ligand Field Theory (pilot matlab implementation)
   Alexander A. Auer      : GIAO ZORA, VPT2
   Ute Becker             : Parallelization
   Giovanni Bistoni       : ED, misc. LED, open-shell LED, HFLED
   Martin Brehm           : Molecular dynamics
   Dmytro Bykov           : SCF Hessian
   Vijay G. Chilkuri      : MRCI spin determinant printing, contributions to CSF-ICE
   Dipayan Datta          : RHF DLPNO-CCSD density
   Achintya Kumar Dutta   : EOM-CC, STEOM-CC
   Dmitry Ganyushin       : Spin-Orbit,Spin-Spin,Magnetic field MRCI
   Miquel Garcia          : C-PCM Hessian, Gaussian charge scheme
   Yang Guo               : DLPNO-NEVPT2, CIM, IAO-localization
   Andreas Hansen         : Spin unrestricted coupled pair/coupled cluster methods
   Benjamin Helmich-Paris : CASSCF linear response (MC-RPA)
   Lee Huntington         : MR-EOM, pCC
   Robert Izsak           : Overlap fitted RIJCOSX, COSX-SCS-MP3, EOM
   Christian Kollmar      : KDIIS, OOCD, Brueckner-CCSD(T), CCSD density
   Simone Kossmann        : Meta GGA functionals, TD-DFT gradient, OOMP2, MP2 Hessian
   Martin Krupicka        : AUTO-CI
   Lucas Lang             : DCDCAS
   Dagmar Lenk            : GEPOL surface, SMD
   Dimitrios Liakos       : Extrapolation schemes; Compound Job, initial MDCI parallelization
   Dimitrios Manganas     : Further ROCIS development; embedding schemes
   Dimitrios Pantazis     : SARC Basis sets
   Taras Petrenko         : DFT Hessian,TD-DFT gradient, ASA, ECA, R-Raman, ABS, FL, XAS/XES, NRVS
   Peter Pinski           : DLPNO-MP2, DLPNO-MP2 Gradient
   Christoph Reimann      : Effective Core Potentials
   Marius Retegan         : Local ZFS, SOC
   Christoph Riplinger    : Optimizer, TS searches, QM/MM, DLPNO-CCSD(T), (RO)-DLPNO pert. Triples
   Tobias Risthaus        : Range-separated hybrids, TD-DFT gradient, RPA, STAB
   Michael Roemelt        : Original ROCIS implementation
   Masaaki Saitow         : Open-shell DLPNO-CCSD energy and density
   Barbara Sandhoefer     : DKH picture change effects
   Avijit Sen             : IP-ROCIS
   Kantharuban Sivalingam : CASSCF convergence, NEVPT2, FIC-MRCI
   Bernardo de Souza      : ESD, SOC TD-DFT
   Georgi Stoychev        : AutoAux, RI-MP2 NMR
   Willem Van den Heuvel  : Paramagnetic NMR
   Boris Wezisla          : Elementary symmetry handling
   Frank Wennmohs         : Technical directorship


 We gratefully acknowledge several colleagues who have allowed us to
 interface, adapt or use parts of their codes:
   Stefan Grimme, W. Hujo, H. Kruse,             : VdW corrections, initial TS optimization,
                  C. Bannwarth                     DFT functionals, gCP, sTDA/sTD-DF
   Ed Valeev, F. Pavosevic, A. Kumar             : LibInt (2-el integral package), F12 methods
   Garnet Chan, S. Sharma, J. Yang, R. Olivares  : DMRG
   Ulf Ekstrom                                   : XCFun DFT Library
   Mihaly Kallay                                 : mrcc  (arbitrary order and MRCC methods)
   Andreas Klamt, Michael Diedenhofen            : otool_cosmo (COSMO solvation model)
   Jiri Pittner, Ondrej Demel                    : Mk-CCSD
   Frank Weinhold                                : gennbo (NPA and NBO analysis)
   Christopher J. Cramer and Donald G. Truhlar   : smd solvation model
   Lars Goerigk                                  : TD-DFT with DH, B97 family of functionals
   V. Asgeirsson, H. Jonsson                     : NEB implementation
   FAccTs GmbH                                   : IRC, NEB, NEB-TS, Multilevel, MM, QM/MM, CI optimization
   S Lehtola, MJT Oliveira, MAL Marques          : LibXC Library


 Your calculation uses the libint2 library for the computation of 2-el integrals
 For citations please refer to: http://libint.valeyev.net

 Your ORCA version has been built with support for libXC version: 4.2.3
 For citations please refer to: https://tddft.org/programs/libxc/

 This ORCA versions uses:
   CBLAS   interface :  Fast vector & matrix operations
   LAPACKE interface :  Fast linear algebra routines
   SCALAPACK package :  Parallel linear algebra routines


XCFun DFT library Copyright 2009-2010 Ulf Ekstrom and contributors.
See http://admol.org/xcfun for more information. This is free soft-
ware; see the source code for copying conditions. There is ABSOLUTELY
NO WARRANTY; not even for MERCHANTABILITY or FITNESS FOR A PARTICULAR
PURPOSE. For details see the documentation. Scientific users of this 
library should cite U. Ekstrom, L. Visscher, R. Bast, A. J. Thorvald-
sen and K. Ruud; J.Chem.Theor.Comp. 2010, DOI: 10.1021/ct100117s
XCFun Version 0.99 
----- Orbital basis set information -----
Your calculation utilizes the basis: 6-31G(d)
   H-He, Li-Ne : W. J. Hehre, R. Ditchfield and J.A. Pople, J. Chem. Phys. 56, 2257 (1972).
                 Note: He and Ne are unpublished basis sets taken from the Gaussian program.
                 Note: Li and B from J. D. Dill and J. A. Pople, J. Chem. Phys. 62, 2921 (1975).
   Na - Ar     : M. M. Francl, W. J. Pietro, W. J. Hehre, J. S. Binkley, M. S. Gordon, 
                 D. J. DeFrees and J. A. Pople, J. Chem. Phys. 77, 3654 (1982).
   K - Zn      : V. A. Rassolov, J. A. Pople, M. A. Ratner, and T. L. Windus, J. Chem. Phys. 109, 1223 (1998).

================================================================================
                                        WARNINGS
                       Please study these warnings very carefully!
================================================================================


INFO   : the flag for use of LIBINT has been found!

================================================================================
                                       INPUT FILE
================================================================================
NAME = NH3.inp
|  1> ! wB97X 6-31G(d)  KDIIS NOSOSCF VerySlowConv Grid4
|  2> %paras
|  3> R= 0.5126,5.0126,46
|  4> A= 107.67
|  5> end
|  6> * int 0  1
|  7> N 0 0 0 0 0 0
|  8> H 1 0 0 {R} 0 0
|  9> H 1 2 0 {R} {A} 0
| 10> H 1 2 3 {R} {A} 244.15
| 11> *
| 12> 
| 13>                          ****END OF INPUT****
================================================================================

                       ******************************
                       * Parameter Scan Calculation *
                       ******************************

Trajectory settings:
    -> SCF surface will be mapped

There are 1 parameter(s) to be scanned
             R: range=   0.51260000 ..   5.01260000  steps=   46
There will be   46 energy evaluations


         *************************************************************
                                TRAJECTORY STEP   1
                  R  :   0.51260000
         *************************************************************
---------------------------------
CARTESIAN COORDINATES (ANGSTROEM)
---------------------------------
  N      0.000000    0.000000    0.000000
  H      0.512600    0.000000    0.000000
  H     -0.155592    0.488416    0.000000
  H     -0.155592   -0.212957    0.439544

----------------------------
CARTESIAN COORDINATES (A.U.)
----------------------------
  NO LB      ZA    FRAG     MASS         X           Y           Z
   0 N     7.0000    0    14.007    0.000000    0.000000    0.000000
   1 H     1.0000    0     1.008    0.968674    0.000000    0.000000
   2 H     1.0000    0     1.008   -0.294026    0.922972    0.000000
   3 H     1.0000    0     1.008   -0.294026   -0.402431    0.830618

--------------------------------
INTERNAL COORDINATES (ANGSTROEM)
--------------------------------
 N      0   0   0     0.000000000000     0.00000000     0.00000000
 H      1   0   0     0.512600000000     0.00000000     0.00000000
 H      1   2   0     0.512600000000   107.67000000     0.00000000
 H      1   2   3     0.512600000000   107.67000000   244.15000000

---------------------------
INTERNAL COORDINATES (A.U.)
---------------------------
 N      0   0   0     0.000000000000     0.00000000     0.00000000
 H      1   0   0     0.968673616248     0.00000000     0.00000000
 H      1   2   0     0.968673616248   107.67000000     0.00000000
 H      1   2   3     0.968673616248   107.67000000   244.15000000

---------------------
BASIS SET INFORMATION
---------------------
There are 2 groups of distinct atoms

 Group   1 Type N   : 10s4p1d contracted to 3s2p1d pattern {631/31/1}
 Group   2 Type H   : 4s contracted to 2s pattern {31}

Atom   0N    basis set group =>   1
Atom   1H    basis set group =>   2
Atom   2H    basis set group =>   2
Atom   3H    basis set group =>   2
------------------------------------------------------------------------------
                           ORCA GTO INTEGRAL CALCULATION
------------------------------------------------------------------------------

                         BASIS SET STATISTICS AND STARTUP INFO

 # of primitive gaussian shells          ...   27
 # of primitive gaussian functions       ...   39
 # of contracted shells                  ...   12
 # of contracted basis functions         ...   20
 Highest angular momentum                ...    2
 Maximum contraction depth               ...    6
 Integral package used                   ... LIBINT
 Integral threshhold            Thresh   ...  1.000e-10
 Primitive cut-off              TCut     ...  1.000e-11


------------------------------ INTEGRAL EVALUATION ----------------------------


 * One electron integrals 
 Pre-screening matrix                    ... done
 Shell pair data                         ... done (   0.000 sec)

-------------------------------------------------------------------------------
                                 ORCA SCF
-------------------------------------------------------------------------------

------------
SCF SETTINGS
------------
Hamiltonian:
 Density Functional     Method          .... DFT(GTOs)
 Exchange Functional    Exchange        .... WB97X
 Correlation Functional Correlation     .... WB97X
 Gradients option       PostSCFGGA      .... off
 Hybrid DFT is turned on
   Fraction HF Exchange ScalHFX         ....  0.157706
   Scaling of DF-GGA-X  ScalDFX         ....  0.000000
   Scaling of DF-GGA-C  ScalDFC         ....  1.000000
   Scaling of DF-LDA-C  ScalLDAC        ....  1.000000
   Perturbative correction              ....  0.000000
   Density functional embedding theory  .... OFF
 Long-range corrected/Screened/Range-Separated Hybrid DFT is turned on
   Amount of maximum screened exact exchange              ....  0.842294
   Range separation parameter mu (erf(mu*r12)/r12)        ....  0.300000


General Settings:
 Integral files         IntName         .... NH3
 Hartree-Fock type      HFTyp           .... RHF
 Total Charge           Charge          ....    0
 Multiplicity           Mult            ....    1
 Number of Electrons    NEL             ....   10
 Basis Dimension        Dim             ....   20
 Nuclear Repulsion      ENuc            ....     23.5971688566 Eh

Convergence Acceleration:
 DIIS                   CNVDIIS         .... on
   Start iteration      DIISMaxIt       ....     0
   Startup error        DIISStart       ....  0.200000
   # of expansion vecs  DIISMaxEq       ....     5
   Bias factor          DIISBfac        ....   1.050
   Max. coefficient     DIISMaxC        ....  10.000
 Newton-Raphson         CNVNR           .... off
 SOSCF                  CNVSOSCF        .... off
 Level Shifting         CNVShift        .... off
 Zerner damping         CNVZerner       .... off
 Static damping         CNVDamp         .... off
 Fernandez-Rico         CNVRico         .... off

SCF Procedure:
 Maximum # iterations   MaxIter         ....   125
 SCF integral mode      SCFMode         .... Direct
   Integral package                     .... LIBINT
 Reset frequency        DirectResetFreq ....    20
 Integral Threshold     Thresh          ....  1.000e-10 Eh
 Primitive CutOff       TCut            ....  1.000e-11 Eh

Convergence Tolerance:
 Convergence Check Mode ConvCheckMode   .... All-Criteria
 Convergence forced     ConvForced      .... 0
 Energy Change          TolE            ....  1.000e-06 Eh
 Max Density Change     TolMaxP         ....  1.000e-05
 RMS Density Change     TolRMSP         ....  1.000e-06
 DIIS Error             TolErr          ....  1.000e-06


Diagonalization of the overlap matrix:
Smallest eigenvalue                        ... 1.008e-02
Time for diagonalization                   ...    0.000 sec
Threshold for overlap eigenvalues          ... 1.000e-08
Number of eigenvalues below threshold      ... 0
Time for construction of square roots      ...    0.000 sec
Total time needed                          ...    0.001 sec

-------------------
DFT GRID GENERATION
-------------------

General Integration Accuracy     IntAcc      ...  4.670
Radial Grid Type                 RadialGrid  ... Gauss-Chebyshev
Angular Grid (max. acc.)         AngularGrid ... Lebedev-302
Angular grid pruning method      GridPruning ... 3 (G Style)
Weight generation scheme         WeightScheme... Becke
Basis function cutoff            BFCut       ...    1.0000e-10
Integration weight cutoff        WCut        ...    1.0000e-14
Grids for H and He will be reduced by one unit

# of grid points (after initial pruning)     ...  16394 (   0.0 sec)
# of grid points (after weights+screening)   ...  15933 (   0.0 sec)
nearest neighbour list constructed           ...    0.0 sec
Grid point re-assignment to atoms done       ...    0.0 sec
Grid point division into batches done        ...    0.1 sec
Reduced shell lists constructed in    0.1 sec

Total number of grid points                  ...    15933
Total number of batches                      ...      250
Average number of points per batch           ...       63
Average number of grid points per atom       ...     3983
Average number of shells per batch           ...    10.39 (86.59%)
Average number of basis functions per batch  ...    17.34 (86.69%)
Average number of large shells per batch     ...    10.00 (96.20%)
Average number of large basis fcns per batch ...    16.67 (96.16%)
Maximum spatial batch extension              ...  15.95, 16.88, 16.88 au
Average spatial batch extension              ...   3.04,  2.95,  3.16 au

Time for grid setup =    0.080 sec

------------------------------
INITIAL GUESS: MODEL POTENTIAL
------------------------------
Loading Hartree-Fock densities                     ... done
Calculating cut-offs                               ... done
Setting up the integral package                    ... done
Initializing the effective Hamiltonian             ... done
Starting the Coulomb interaction                   ... done (   0.0 sec)
Reading the grid                                   ... done
Mapping shells                                     ... done
Starting the XC term evaluation                    ... done (   0.0 sec)
  promolecular density results
     # of electrons  =      9.998424353
     EX              =     -7.800306470
     EC              =     -0.325894685
     EX+EC           =     -8.126201155
Transforming the Hamiltonian                       ... done (   0.0 sec)
Diagonalizing the Hamiltonian                      ... done (   0.0 sec)
Back transforming the eigenvectors                 ... done (   0.0 sec)
Now organizing SCF variables                       ... done
                      ------------------
                      INITIAL GUESS DONE (   0.2 sec)
                      ------------------
--------------
SCF ITERATIONS
--------------
ITER       Energy         Delta-E        Max-DP      RMS-DP      [F,P]   Gradient Norm
               ***  Starting incremental Fock matrix formation  ***
                             ****Resetting KDIIS****
                             ****Turning on KDIIS(Cayley)****
  0    -53.8101577986   0.000000000000 0.07778677  0.00833437  0.3036219   0.309665348
  1    -53.9092588231  -0.099101024473 0.12259829  0.01268480  0.2731828   0.263870150
  2    -54.0241270847  -0.114868261545 0.42256551  0.05236344  0.2059366   0.204442143
  3    -54.1064380076  -0.082310922941 0.12857390  0.01539102  0.0934244   0.108461795
  4    -54.1203922081  -0.013954200484 0.15748925  0.02097211  0.1713827   0.078158679
  5    -54.1670588997  -0.046666691627 0.12211367  0.01570540  0.0832117   0.038128122
  6    -54.1326597759   0.034399123834 0.23143899  0.02869547  0.1547151   0.070271613
  7    -54.1814483472  -0.048788571319 0.02934920  0.00334103  0.0060671   0.004734513
  8    -54.1816591495  -0.000210802338 0.00279568  0.00044185  0.0009697   0.000602301
  9    -54.1816625943  -0.000003444787 0.00062579  0.00009056  0.0001046   0.000103914
Warning: badly conditioned DIIS matrix, 1 vectors out of 5 destroyed
                          ***Energy convergence achieved***
 10    -54.1816626620  -0.000000067716 0.00018723  0.00001921  0.0000323   0.000020240

            ***Energy convergence in two consecutive cycles with***
                    ***'reasonable' density convergence***
                       *** signaling convergence ***

                    *** KDIIS BlockDiag ( 2.396 sec) ***

               *****************************************************
               *                     SUCCESS                       *
               *           SCF CONVERGED AFTER  11 CYCLES          *
               *****************************************************

Setting up the final grid:

General Integration Accuracy     IntAcc      ...  5.010
Radial Grid Type                 RadialGrid  ... Gauss-Chebyshev
Angular Grid (max. acc.)         AngularGrid ... Lebedev-434
Angular grid pruning method      GridPruning ... 3 (G Style)
Weight generation scheme         WeightScheme... Becke
Basis function cutoff            BFCut       ...    1.0000e-10
Integration weight cutoff        WCut        ...    1.0000e-14
Grids for H and He will be reduced by one unit

# of grid points (after initial pruning)     ...  30666 (   0.0 sec)
# of grid points (after weights+screening)   ...  29725 (   0.0 sec)
nearest neighbour list constructed           ...    0.0 sec
Grid point re-assignment to atoms done       ...    0.0 sec
Grid point division into batches done        ...    0.2 sec
Reduced shell lists constructed in    0.2 sec

Total number of grid points                  ...    29725
Total number of batches                      ...      467
Average number of points per batch           ...       63
Average number of grid points per atom       ...     7431
Average number of shells per batch           ...    10.19 (84.94%)
Average number of basis functions per batch  ...    17.03 (85.13%)
Average number of large shells per batch     ...     9.79 (96.06%)
Average number of large basis fcns per batch ...    16.37 (96.16%)
Maximum spatial batch extension              ...  14.80, 14.76, 16.52 au
Average spatial batch extension              ...   2.42,  2.46,  2.60 au

Final grid set up in    0.2 sec
Final integration                            ... done (   0.2 sec)
Change in XC energy                          ...     0.000070574
Integrated number of electrons               ...     9.999999717
Previous integrated no of electrons          ...     9.999957959

----------------
TOTAL SCF ENERGY
----------------

Total Energy       :          -54.18159209 Eh           -1474.35608 eV

Components:
Nuclear Repulsion  :           23.59716886 Eh             642.11161 eV
Electronic Energy  :          -77.77876095 Eh           -2116.46768 eV
One Electron Energy:         -116.33495982 Eh           -3165.63519 eV
Two Electron Energy:           38.55619887 Eh            1049.16751 eV

Virial components:
Potential Energy   :         -116.26287064 Eh           -3163.67355 eV
Kinetic Energy     :           62.08127855 Eh            1689.31747 eV
Virial Ratio       :            1.87275252


DFT components:
N(Alpha)           :        4.999999858696 electrons
N(Beta)            :        4.999999858696 electrons
N(Total)           :        9.999999717391 electrons
E(XC)              :       -6.327198109672 Eh       
DFET-embed. en.    :        0.000000000000 Eh       

---------------
SCF CONVERGENCE
---------------

  Last Energy change         ...   -3.0932e-09  Tolerance :   1.0000e-06
  Last MAX-Density change    ...    1.5141e-05  Tolerance :   1.0000e-05
  Last RMS-Density change    ...    1.6474e-06  Tolerance :   1.0000e-06
  Last DIIS Error            ...    4.7980e-06  Tolerance :   1.0000e-06

             **** THE GBW FILE WAS UPDATED (NH3.gbw) ****
             **** DENSITY FILE WAS UPDATED (NH3.scfp) ****
             **** ENERGY FILE WAS UPDATED (NH3.en.tmp) ****
             **** THE GBW FILE WAS UPDATED (NH3.gbw) ****
             **** DENSITY FILE WAS UPDATED (NH3.scfp) ****
----------------
ORBITAL ENERGIES
----------------

  NO   OCC          E(Eh)            E(eV) 
   0   2.0000     -14.355323      -390.6282 
   1   2.0000      -1.244240       -33.8575 
   2   2.0000      -0.763455       -20.7747 
   3   2.0000      -0.763408       -20.7734 
   4   2.0000      -0.400612       -10.9012 
   5   0.0000       0.268207         7.2983 
   6   0.0000       0.369132        10.0446 
   7   0.0000       0.369147        10.0450 
   8   0.0000       0.780648        21.2425 
   9   0.0000       0.824284        22.4299 
  10   0.0000       0.824329        22.4311 
  11   0.0000       1.324169        36.0325 
  12   0.0000       1.612929        43.8900 
  13   0.0000       1.612940        43.8903 
  14   0.0000       1.726808        46.9888 
  15   0.0000       1.726823        46.9892 
  16   0.0000       1.753997        47.7287 
  17   0.0000       4.280672       116.4830 
  18   0.0000       4.408980       119.9744 
  19   0.0000       4.409023       119.9756 

                    ********************************
                    * MULLIKEN POPULATION ANALYSIS *
                    ********************************

-----------------------
MULLIKEN ATOMIC CHARGES
-----------------------
   0 N :   -0.219244
   1 H :    0.073068
   2 H :    0.073086
   3 H :    0.073090
Sum of atomic charges:    0.0000000

--------------------------------
MULLIKEN REDUCED ORBITAL CHARGES
--------------------------------
  0 N s       :     2.735387  s :     2.735387
      pz      :     1.641891  p :     4.451349
      px      :     1.373700
      py      :     1.435758
      dz2     :     0.013131  d :     0.032508
      dxz     :     0.003389
      dyz     :     0.004669
      dx2y2   :     0.010748
      dxy     :     0.000571
  1 H s       :     0.926932  s :     0.926932
  2 H s       :     0.926914  s :     0.926914
  3 H s       :     0.926910  s :     0.926910


                     *******************************
                     * LOEWDIN POPULATION ANALYSIS *
                     *******************************

----------------------
LOEWDIN ATOMIC CHARGES
----------------------
   0 N :   -0.570098
   1 H :    0.190037
   2 H :    0.190031
   3 H :    0.190030

-------------------------------
LOEWDIN REDUCED ORBITAL CHARGES
-------------------------------
  0 N s       :     2.824125  s :     2.824125
      pz      :     1.703617  p :     4.695127
      px      :     1.468561
      py      :     1.522948
      dz2     :     0.018147  d :     0.050846
      dxz     :     0.004656
      dyz     :     0.007041
      dx2y2   :     0.018408
      dxy     :     0.002594
  1 H s       :     0.809963  s :     0.809963
  2 H s       :     0.809969  s :     0.809969
  3 H s       :     0.809970  s :     0.809970


                      *****************************
                      * MAYER POPULATION ANALYSIS *
                      *****************************

  NA   - Mulliken gross atomic population
  ZA   - Total nuclear charge
  QA   - Mulliken gross atomic charge
  VA   - Mayer's total valence
  BVA  - Mayer's bonded valence
  FA   - Mayer's free valence

  ATOM       NA         ZA         QA         VA         BVA        FA
  0 N      7.2192     7.0000    -0.2192     2.7525     2.7525     0.0000
  1 H      0.9269     1.0000     0.0731     0.9706     0.9706     0.0000
  2 H      0.9269     1.0000     0.0731     0.9706     0.9706     0.0000
  3 H      0.9269     1.0000     0.0731     0.9706     0.9706     0.0000

  Mayer bond orders larger than 0.100000
B(  0-N ,  1-H ) :   0.9175 B(  0-N ,  2-H ) :   0.9175 B(  0-N ,  3-H ) :   0.9175 


-------
TIMINGS
-------

Total SCF time: 0 days 0 hours 0 min 2 sec 

Total time                  ....       2.798 sec
Sum of individual times     ....       2.651 sec  ( 94.8%)

Fock matrix formation       ....       2.217 sec  ( 79.2%)
  XC integration            ....       1.249 sec  ( 56.3% of F)
    Basis function eval.    ....       0.229 sec  ( 18.4% of XC)
    Density eval.           ....       0.077 sec  (  6.1% of XC)
    XC-Functional eval.     ....       0.841 sec  ( 67.3% of XC)
    XC-Potential eval.      ....       0.051 sec  (  4.1% of XC)
Diagonalization             ....       0.003 sec  (  0.1%)
Density matrix formation    ....       0.000 sec  (  0.0%)
Population analysis         ....       0.001 sec  (  0.0%)
Initial guess               ....       0.116 sec  (  4.1%)
Orbital Transformation      ....       0.000 sec  (  0.0%)
Orbital Orthonormalization  ....       0.000 sec  (  0.0%)
DIIS solution               ....       0.000 sec  (  0.0%)
Grid generation             ....       0.314 sec  ( 11.2%)

-------------------------   --------------------
FINAL SINGLE POINT ENERGY       -54.181592090846
-------------------------   --------------------

Storing actual gbw-file in NH3.001.gbw ... done

                            ***************************************
                            *     ORCA property calculations      *
                            ***************************************

                                    ---------------------
                                    Active property flags
                                    ---------------------
   (+) Dipole Moment


------------------------------------------------------------------------------
                       ORCA ELECTRIC PROPERTIES CALCULATION
------------------------------------------------------------------------------

Dipole Moment Calculation                       ... on
Quadrupole Moment Calculation                   ... off
Polarizability Calculation                      ... off
GBWName                                         ... NH3.gbw
Electron density file                           ... NH3.scfp
The origin for moment calculation is the CENTER OF MASS  = ( 0.022528,  0.030809  0.049161)

-------------
DIPOLE MOMENT
-------------
                                X             Y             Z
Electronic contribution:      0.06603       0.09036       0.14417
Nuclear contribution   :      0.15535       0.21245       0.33901
                        -----------------------------------------
Total Dipole Moment    :      0.22138       0.30281       0.48318
                        -----------------------------------------
Magnitude (a.u.)       :      0.61169
Magnitude (Debye)      :      1.55479



--------------------
Rotational spectrum 
--------------------
 
Rotational constants in cm-1:    39.130397    39.124693    24.412204 
Rotational constants in MHz : 1173099.788347 1172928.778345 731859.453357 

 Dipole components along the rotational axes: 
x,y,z [a.u.] :     0.000003     0.000066     0.611690 
x,y,z [Debye]:     0.000008     0.000168     1.554792 

 

         *************************************************************
                                TRAJECTORY STEP   2
                  R  :   0.61260000
         *************************************************************
---------------------------------
CARTESIAN COORDINATES (ANGSTROEM)
---------------------------------
  N      0.000000    0.000000    0.000000
  H      0.612600    0.000000    0.000000
  H     -0.185945    0.583698    0.000000
  H     -0.185945   -0.254502    0.525292

----------------------------
CARTESIAN COORDINATES (A.U.)
----------------------------
  NO LB      ZA    FRAG     MASS         X           Y           Z
   0 N     7.0000    0    14.007    0.000000    0.000000    0.000000
   1 H     1.0000    0     1.008    1.157646    0.000000    0.000000
   2 H     1.0000    0     1.008   -0.351385    1.103029    0.000000
   3 H     1.0000    0     1.008   -0.351385   -0.480939    0.992658

--------------------------------
INTERNAL COORDINATES (ANGSTROEM)
--------------------------------
 N      0   0   0     0.000000000000     0.00000000     0.00000000
 H      1   0   0     0.612600000000     0.00000000     0.00000000
 H      1   2   0     0.612600000000   107.67000000     0.00000000
 H      1   2   3     0.612600000000   107.67000000   244.15000000

---------------------------
INTERNAL COORDINATES (A.U.)
---------------------------
 N      0   0   0     0.000000000000     0.00000000     0.00000000
 H      1   0   0     1.157646229640     0.00000000     0.00000000
 H      1   2   0     1.157646229640   107.67000000     0.00000000
 H      1   2   3     1.157646229640   107.67000000   244.15000000


Diagonalization of the overlap matrix:
Smallest eigenvalue                        ... 1.311e-02
Time for diagonalization                   ...    0.000 sec
Threshold for overlap eigenvalues          ... 1.000e-08
Number of eigenvalues below threshold      ... 0
Time for construction of square roots      ...    0.000 sec
Total time needed                          ...    0.001 sec

-------------------
DFT GRID GENERATION
-------------------

General Integration Accuracy     IntAcc      ...  4.670
Radial Grid Type                 RadialGrid  ... Gauss-Chebyshev
Angular Grid (max. acc.)         AngularGrid ... Lebedev-302
Angular grid pruning method      GridPruning ... 3 (G Style)
Weight generation scheme         WeightScheme... Becke
Basis function cutoff            BFCut       ...    1.0000e-10
Integration weight cutoff        WCut        ...    1.0000e-14
Grids for H and He will be reduced by one unit

# of grid points (after initial pruning)     ...  16394 (   0.0 sec)
# of grid points (after weights+screening)   ...  15988 (   0.0 sec)
nearest neighbour list constructed           ...    0.0 sec
Grid point re-assignment to atoms done       ...    0.0 sec
Grid point division into batches done        ...    0.1 sec
Reduced shell lists constructed in    0.1 sec

Total number of grid points                  ...    15988
Total number of batches                      ...      252
Average number of points per batch           ...       63
Average number of grid points per atom       ...     3997
Average number of shells per batch           ...    10.39 (86.59%)
Average number of basis functions per batch  ...    17.35 (86.74%)
Average number of large shells per batch     ...     9.97 (95.97%)
Average number of large basis fcns per batch ...    16.65 (95.99%)
Maximum spatial batch extension              ...  16.88, 16.88, 16.88 au
Average spatial batch extension              ...   3.05,  2.96,  3.19 au

Time for grid setup =    0.080 sec

--------------
SCF ITERATIONS
--------------
ITER       Energy         Delta-E        Max-DP      RMS-DP      [F,P]   Gradient Norm
               ***  Starting incremental Fock matrix formation  ***
                             ****Resetting KDIIS****
                             ****Turning on KDIIS(Cayley)****
  0    -55.4103389078   0.000000000000 0.01355751  0.00219162  0.0616216   0.073662497
  1    -55.4159105975  -0.005571689648 0.02281628  0.00364320  0.0522174   0.063908560
  2    -55.4218212602  -0.005910662704 0.03881445  0.00617326  0.0424612   0.051845662
  3    -55.4290853620  -0.007264101857 0.05895622  0.00886727  0.0255138   0.031228563
  4    -55.4331980562  -0.004112694123 0.00155368  0.00021382  0.0003200   0.000313527
                          ***Energy convergence achieved***
  5    -55.4331988482  -0.000000792032 0.00042833  0.00005997  0.0000603   0.000059989
  6    -55.4331988861  -0.000000037913 0.00006889  0.00001003  0.0000204   0.000020236
Warning: badly conditioned DIIS matrix, 1 vectors out of 5 destroyed

            ***Energy convergence in two consecutive cycles with***
                    ***'reasonable' density convergence***
                       *** signaling convergence ***

                    *** KDIIS BlockDiag ( 1.621 sec) ***

               *****************************************************
               *                     SUCCESS                       *
               *           SCF CONVERGED AFTER   7 CYCLES          *
               *****************************************************

Setting up the final grid:

General Integration Accuracy     IntAcc      ...  5.010
Radial Grid Type                 RadialGrid  ... Gauss-Chebyshev
Angular Grid (max. acc.)         AngularGrid ... Lebedev-434
Angular grid pruning method      GridPruning ... 3 (G Style)
Weight generation scheme         WeightScheme... Becke
Basis function cutoff            BFCut       ...    1.0000e-10
Integration weight cutoff        WCut        ...    1.0000e-14
Grids for H and He will be reduced by one unit

# of grid points (after initial pruning)     ...  30666 (   0.0 sec)
# of grid points (after weights+screening)   ...  29843 (   0.0 sec)
nearest neighbour list constructed           ...    0.0 sec
Grid point re-assignment to atoms done       ...    0.0 sec
Grid point division into batches done        ...    0.2 sec
Reduced shell lists constructed in    0.2 sec

Total number of grid points                  ...    29843
Total number of batches                      ...      469
Average number of points per batch           ...       63
Average number of grid points per atom       ...     7461
Average number of shells per batch           ...    10.20 (84.96%)
Average number of basis functions per batch  ...    17.05 (85.23%)
Average number of large shells per batch     ...     9.75 (95.60%)
Average number of large basis fcns per batch ...    16.29 (95.54%)
Maximum spatial batch extension              ...  14.99, 14.94, 16.27 au
Average spatial batch extension              ...   2.47,  2.46,  2.57 au

Final grid set up in    0.2 sec
Final integration                            ... done (   0.2 sec)
Change in XC energy                          ...     0.000310816
Integrated number of electrons               ...     9.999999633
Previous integrated no of electrons          ...     9.999991535
Total Energy       :          -55.43288807 Eh           -1508.40557 eV
  Last Energy change         ...   -2.8683e-09  Tolerance :   1.0000e-06
  Last MAX-Density change    ...    3.1650e-05  Tolerance :   1.0000e-05
             **** THE GBW FILE WAS UPDATED (NH3.gbw) ****
             **** DENSITY FILE WAS UPDATED (NH3.scfp) ****
             **** ENERGY FILE WAS UPDATED (NH3.en.tmp) ****
             **** THE GBW FILE WAS UPDATED (NH3.gbw) ****
             **** DENSITY FILE WAS UPDATED (NH3.scfp) ****
Total SCF time: 0 days 0 hours 0 min 2 sec 

-------------------------   --------------------
FINAL SINGLE POINT ENERGY       -55.432888073003
-------------------------   --------------------

Storing actual gbw-file in NH3.002.gbw ... done

                            ***************************************
                            *     ORCA property calculations      *
                            ***************************************

                                    ---------------------
                                    Active property flags
                                    ---------------------
   (+) Dipole Moment


------------------------------------------------------------------------------
                       ORCA ELECTRIC PROPERTIES CALCULATION
------------------------------------------------------------------------------

Dipole Moment Calculation                       ... on
Quadrupole Moment Calculation                   ... off
Polarizability Calculation                      ... off
GBWName                                         ... NH3.gbw
Electron density file                           ... NH3.scfp
The origin for moment calculation is the CENTER OF MASS  = ( 0.026922,  0.036819  0.058752)

-------------
DIPOLE MOMENT
-------------
                                X             Y             Z
Electronic contribution:      0.05095       0.06973       0.11127
Nuclear contribution   :      0.18565       0.25390       0.40514
                        -----------------------------------------
Total Dipole Moment    :      0.23660       0.32363       0.51641
                        -----------------------------------------
Magnitude (a.u.)       :      0.65376
Magnitude (Debye)      :      1.66171



--------------------
Rotational spectrum 
--------------------
 
Rotational constants in cm-1:    27.397912    27.393918    17.092682 
Rotational constants in MHz : 821368.749306 821249.013310 512425.703118 

 Dipole components along the rotational axes: 
x,y,z [a.u.] :    -0.000000     0.000068     0.653756 
x,y,z [Debye]:    -0.000001     0.000172     1.661714 

 

         *************************************************************
                                TRAJECTORY STEP   3
                  R  :   0.71260000
         *************************************************************
---------------------------------
CARTESIAN COORDINATES (ANGSTROEM)
---------------------------------
  N      0.000000    0.000000    0.000000
  H      0.712600    0.000000    0.000000
  H     -0.216298    0.678980    0.000000
  H     -0.216298   -0.296047    0.611040

----------------------------
CARTESIAN COORDINATES (A.U.)
----------------------------
  NO LB      ZA    FRAG     MASS         X           Y           Z
   0 N     7.0000    0    14.007    0.000000    0.000000    0.000000
   1 H     1.0000    0     1.008    1.346619    0.000000    0.000000
   2 H     1.0000    0     1.008   -0.408745    1.283086    0.000000
   3 H     1.0000    0     1.008   -0.408745   -0.559447    1.154699

--------------------------------
INTERNAL COORDINATES (ANGSTROEM)
--------------------------------
 N      0   0   0     0.000000000000     0.00000000     0.00000000
 H      1   0   0     0.712600000000     0.00000000     0.00000000
 H      1   2   0     0.712600000000   107.67000000     0.00000000
 H      1   2   3     0.712600000000   107.67000000   244.15000000

---------------------------
INTERNAL COORDINATES (A.U.)
---------------------------
 N      0   0   0     0.000000000000     0.00000000     0.00000000
 H      1   0   0     1.346618843032     0.00000000     0.00000000
 H      1   2   0     1.346618843032   107.67000000     0.00000000
 H      1   2   3     1.346618843032   107.67000000   244.15000000


Diagonalization of the overlap matrix:
Smallest eigenvalue                        ... 1.713e-02
Time for diagonalization                   ...    0.000 sec
Threshold for overlap eigenvalues          ... 1.000e-08
Number of eigenvalues below threshold      ... 0
Time for construction of square roots      ...    0.000 sec
Total time needed                          ...    0.001 sec

-------------------
DFT GRID GENERATION
-------------------

General Integration Accuracy     IntAcc      ...  4.670
Radial Grid Type                 RadialGrid  ... Gauss-Chebyshev
Angular Grid (max. acc.)         AngularGrid ... Lebedev-302
Angular grid pruning method      GridPruning ... 3 (G Style)
Weight generation scheme         WeightScheme... Becke
Basis function cutoff            BFCut       ...    1.0000e-10
Integration weight cutoff        WCut        ...    1.0000e-14
Grids for H and He will be reduced by one unit

# of grid points (after initial pruning)     ...  16394 (   0.0 sec)
# of grid points (after weights+screening)   ...  16032 (   0.0 sec)
nearest neighbour list constructed           ...    0.0 sec
Grid point re-assignment to atoms done       ...    0.0 sec
Grid point division into batches done        ...    0.1 sec
Reduced shell lists constructed in    0.1 sec

Total number of grid points                  ...    16032
Total number of batches                      ...      253
Average number of points per batch           ...       63
Average number of grid points per atom       ...     4008
Average number of shells per batch           ...    10.35 (86.29%)
Average number of basis functions per batch  ...    17.27 (86.34%)
Average number of large shells per batch     ...     9.96 (96.20%)
Average number of large basis fcns per batch ...    16.65 (96.40%)
Maximum spatial batch extension              ...  15.98, 16.04, 16.88 au
Average spatial batch extension              ...   3.06,  2.93,  3.21 au

Time for grid setup =    0.080 sec

--------------
SCF ITERATIONS
--------------
ITER       Energy         Delta-E        Max-DP      RMS-DP      [F,P]   Gradient Norm
               ***  Starting incremental Fock matrix formation  ***
                             ****Resetting KDIIS****
                             ****Turning on KDIIS(Cayley)****
  0    -56.0446285201   0.000000000000 0.01115413  0.00156475  0.0561394   0.064709793
  1    -56.0492389672  -0.004610447112 0.01941065  0.00231269  0.0490111   0.055943085
  2    -56.0539845718  -0.004745604650 0.03286344  0.00395102  0.0397247   0.045417166
  3    -56.0598476624  -0.005863090586 0.04913168  0.00597762  0.0237997   0.027389005
  4    -56.0631901636  -0.003342501193 0.00107612  0.00015169  0.0002487   0.000277575
                          ***Energy convergence achieved***
  5    -56.0631907147  -0.000000551116 0.00014983  0.00002281  0.0000366   0.000033735

            ***Energy convergence in two consecutive cycles with***
                    ***'reasonable' density convergence***
                       *** signaling convergence ***

                    *** KDIIS BlockDiag ( 1.438 sec) ***

               *****************************************************
               *                     SUCCESS                       *
               *           SCF CONVERGED AFTER   6 CYCLES          *
               *****************************************************

Setting up the final grid:

General Integration Accuracy     IntAcc      ...  5.010
Radial Grid Type                 RadialGrid  ... Gauss-Chebyshev
Angular Grid (max. acc.)         AngularGrid ... Lebedev-434
Angular grid pruning method      GridPruning ... 3 (G Style)
Weight generation scheme         WeightScheme... Becke
Basis function cutoff            BFCut       ...    1.0000e-10
Integration weight cutoff        WCut        ...    1.0000e-14
Grids for H and He will be reduced by one unit

# of grid points (after initial pruning)     ...  30666 (   0.0 sec)
# of grid points (after weights+screening)   ...  29938 (   0.0 sec)
nearest neighbour list constructed           ...    0.0 sec
Grid point re-assignment to atoms done       ...    0.0 sec
Grid point division into batches done        ...    0.2 sec
Reduced shell lists constructed in    0.2 sec

Total number of grid points                  ...    29938
Total number of batches                      ...      470
Average number of points per batch           ...       63
Average number of grid points per atom       ...     7484
Average number of shells per batch           ...    10.16 (84.68%)
Average number of basis functions per batch  ...    16.96 (84.82%)
Average number of large shells per batch     ...     9.70 (95.51%)
Average number of large basis fcns per batch ...    16.24 (95.73%)
Maximum spatial batch extension              ...  15.18, 15.23, 16.27 au
Average spatial batch extension              ...   2.45,  2.44,  2.56 au

Final grid set up in    0.2 sec
Final integration                            ... done (   0.2 sec)
Change in XC energy                          ...     0.000207384
Integrated number of electrons               ...    10.000001805
Previous integrated no of electrons          ...    10.000017011
Total Energy       :          -56.06298334 Eh           -1525.55133 eV
  Last Energy change         ...   -1.1303e-08  Tolerance :   1.0000e-06
  Last MAX-Density change    ...    1.4356e-05  Tolerance :   1.0000e-05
             **** THE GBW FILE WAS UPDATED (NH3.gbw) ****
             **** DENSITY FILE WAS UPDATED (NH3.scfp) ****
             **** ENERGY FILE WAS UPDATED (NH3.en.tmp) ****
             **** THE GBW FILE WAS UPDATED (NH3.gbw) ****
             **** DENSITY FILE WAS UPDATED (NH3.scfp) ****
Total SCF time: 0 days 0 hours 0 min 1 sec 

-------------------------   --------------------
FINAL SINGLE POINT ENERGY       -56.062983342025
-------------------------   --------------------

Storing actual gbw-file in NH3.003.gbw ... done

                            ***************************************
                            *     ORCA property calculations      *
                            ***************************************

                                    ---------------------
                                    Active property flags
                                    ---------------------
   (+) Dipole Moment


------------------------------------------------------------------------------
                       ORCA ELECTRIC PROPERTIES CALCULATION
------------------------------------------------------------------------------

Dipole Moment Calculation                       ... on
Quadrupole Moment Calculation                   ... off
Polarizability Calculation                      ... off
GBWName                                         ... NH3.gbw
Electron density file                           ... NH3.scfp
The origin for moment calculation is the CENTER OF MASS  = ( 0.031317,  0.042829  0.068342)

-------------
DIPOLE MOMENT
-------------
                                X             Y             Z
Electronic contribution:      0.03166       0.04334       0.06917
Nuclear contribution   :      0.21596       0.29534       0.47128
                        -----------------------------------------
Total Dipole Moment    :      0.24762       0.33869       0.54045
                        -----------------------------------------
Magnitude (a.u.)       :      0.68418
Magnitude (Debye)      :      1.73906



--------------------
Rotational spectrum 
--------------------
 
Rotational constants in cm-1:    20.247892    20.244941    12.632013 
Rotational constants in MHz : 607016.538879 606928.050329 378698.211981 

 Dipole components along the rotational axes: 
x,y,z [a.u.] :    -0.000005     0.000078     0.684184 
x,y,z [Debye]:    -0.000013     0.000199     1.739058 

 

         *************************************************************
                                TRAJECTORY STEP   4
                  R  :   0.81260000
         *************************************************************
---------------------------------
CARTESIAN COORDINATES (ANGSTROEM)
---------------------------------
  N      0.000000    0.000000    0.000000
  H      0.812600    0.000000    0.000000
  H     -0.246652    0.774262    0.000000
  H     -0.246652   -0.337591    0.696788

----------------------------
CARTESIAN COORDINATES (A.U.)
----------------------------
  NO LB      ZA    FRAG     MASS         X           Y           Z
   0 N     7.0000    0    14.007    0.000000    0.000000    0.000000
   1 H     1.0000    0     1.008    1.535591    0.000000    0.000000
   2 H     1.0000    0     1.008   -0.466105    1.463143    0.000000
   3 H     1.0000    0     1.008   -0.466105   -0.637955    1.316739

--------------------------------
INTERNAL COORDINATES (ANGSTROEM)
--------------------------------
 N      0   0   0     0.000000000000     0.00000000     0.00000000
 H      1   0   0     0.812600000000     0.00000000     0.00000000
 H      1   2   0     0.812600000000   107.67000000     0.00000000
 H      1   2   3     0.812600000000   107.67000000   244.15000000

---------------------------
INTERNAL COORDINATES (A.U.)
---------------------------
 N      0   0   0     0.000000000000     0.00000000     0.00000000
 H      1   0   0     1.535591456424     0.00000000     0.00000000
 H      1   2   0     1.535591456424   107.67000000     0.00000000
 H      1   2   3     1.535591456424   107.67000000   244.15000000


Diagonalization of the overlap matrix:
Smallest eigenvalue                        ... 2.264e-02
Time for diagonalization                   ...    0.000 sec
Threshold for overlap eigenvalues          ... 1.000e-08
Number of eigenvalues below threshold      ... 0
Time for construction of square roots      ...    0.000 sec
Total time needed                          ...    0.001 sec

-------------------
DFT GRID GENERATION
-------------------

General Integration Accuracy     IntAcc      ...  4.670
Radial Grid Type                 RadialGrid  ... Gauss-Chebyshev
Angular Grid (max. acc.)         AngularGrid ... Lebedev-302
Angular grid pruning method      GridPruning ... 3 (G Style)
Weight generation scheme         WeightScheme... Becke
Basis function cutoff            BFCut       ...    1.0000e-10
Integration weight cutoff        WCut        ...    1.0000e-14
Grids for H and He will be reduced by one unit

# of grid points (after initial pruning)     ...  16394 (   0.0 sec)
# of grid points (after weights+screening)   ...  16069 (   0.0 sec)
nearest neighbour list constructed           ...    0.0 sec
Grid point re-assignment to atoms done       ...    0.0 sec
Grid point division into batches done        ...    0.1 sec
Reduced shell lists constructed in    0.1 sec

Total number of grid points                  ...    16069
Total number of batches                      ...      253
Average number of points per batch           ...       63
Average number of grid points per atom       ...     4017
Average number of shells per batch           ...    10.37 (86.38%)
Average number of basis functions per batch  ...    17.29 (86.44%)
Average number of large shells per batch     ...     9.91 (95.63%)
Average number of large basis fcns per batch ...    16.61 (96.06%)
Maximum spatial batch extension              ...  15.79, 16.22, 16.88 au
Average spatial batch extension              ...   3.11,  2.96,  3.22 au

Time for grid setup =    0.080 sec

--------------
SCF ITERATIONS
--------------
ITER       Energy         Delta-E        Max-DP      RMS-DP      [F,P]   Gradient Norm
               ***  Starting incremental Fock matrix formation  ***
                             ****Resetting KDIIS****
                             ****Turning on KDIIS(Cayley)****
  0    -56.3532112247   0.000000000000 0.00922546  0.00125412  0.0525204   0.055000191
  1    -56.3567425850  -0.003531360298 0.01636787  0.00176551  0.0461436   0.047400674
  2    -56.3603248757  -0.003582290717 0.03222972  0.00313836  0.0375395   0.038580328
  3    -56.3648336487  -0.004508773042 0.05650855  0.00492464  0.0224966   0.023286705
  4    -56.3674222824  -0.002588633659 0.00087956  0.00011528  0.0002402   0.000248463
                          ***Energy convergence achieved***
  5    -56.3674226927  -0.000000410288 0.00011533  0.00001057  0.0000154   0.000020481
Warning: badly conditioned DIIS matrix, 1 vectors out of 5 destroyed

            ***Energy convergence in two consecutive cycles with***
                    ***'reasonable' density convergence***
                       *** signaling convergence ***

                    *** KDIIS BlockDiag ( 1.425 sec) ***

               *****************************************************
               *                     SUCCESS                       *
               *           SCF CONVERGED AFTER   6 CYCLES          *
               *****************************************************

Setting up the final grid:

General Integration Accuracy     IntAcc      ...  5.010
Radial Grid Type                 RadialGrid  ... Gauss-Chebyshev
Angular Grid (max. acc.)         AngularGrid ... Lebedev-434
Angular grid pruning method      GridPruning ... 3 (G Style)
Weight generation scheme         WeightScheme... Becke
Basis function cutoff            BFCut       ...    1.0000e-10
Integration weight cutoff        WCut        ...    1.0000e-14
Grids for H and He will be reduced by one unit

# of grid points (after initial pruning)     ...  30666 (   0.0 sec)
# of grid points (after weights+screening)   ...  30023 (   0.0 sec)
nearest neighbour list constructed           ...    0.0 sec
Grid point re-assignment to atoms done       ...    0.0 sec
Grid point division into batches done        ...    0.2 sec
Reduced shell lists constructed in    0.2 sec

Total number of grid points                  ...    30023
Total number of batches                      ...      471
Average number of points per batch           ...       63
Average number of grid points per atom       ...     7506
Average number of shells per batch           ...    10.11 (84.23%)
Average number of basis functions per batch  ...    16.89 (84.44%)
Average number of large shells per batch     ...     9.65 (95.43%)
Average number of large basis fcns per batch ...    16.16 (95.68%)
Maximum spatial batch extension              ...  15.37, 15.30, 16.27 au
Average spatial batch extension              ...   2.47,  2.44,  2.56 au

Final grid set up in    0.2 sec
Final integration                            ... done (   0.2 sec)
Change in XC energy                          ...    -0.000058207
Integrated number of electrons               ...    10.000000546
Previous integrated no of electrons          ...    10.000022443
Total Energy       :          -56.36748090 Eh           -1533.83713 eV
  Last Energy change         ...   -2.6744e-09  Tolerance :   1.0000e-06
  Last MAX-Density change    ...    1.2509e-05  Tolerance :   1.0000e-05
             **** THE GBW FILE WAS UPDATED (NH3.gbw) ****
             **** DENSITY FILE WAS UPDATED (NH3.scfp) ****
             **** ENERGY FILE WAS UPDATED (NH3.en.tmp) ****
             **** THE GBW FILE WAS UPDATED (NH3.gbw) ****
             **** DENSITY FILE WAS UPDATED (NH3.scfp) ****
Total SCF time: 0 days 0 hours 0 min 1 sec 

-------------------------   --------------------
FINAL SINGLE POINT ENERGY       -56.367480902067
-------------------------   --------------------

Storing actual gbw-file in NH3.004.gbw ... done

                            ***************************************
                            *     ORCA property calculations      *
                            ***************************************

                                    ---------------------
                                    Active property flags
                                    ---------------------
   (+) Dipole Moment


------------------------------------------------------------------------------
                       ORCA ELECTRIC PROPERTIES CALCULATION
------------------------------------------------------------------------------

Dipole Moment Calculation                       ... on
Quadrupole Moment Calculation                   ... off
Polarizability Calculation                      ... off
GBWName                                         ... NH3.gbw
Electron density file                           ... NH3.scfp
The origin for moment calculation is the CENTER OF MASS  = ( 0.035712,  0.048840  0.077933)

-------------
DIPOLE MOMENT
-------------
                                X             Y             Z
Electronic contribution:      0.00939       0.01288       0.02056
Nuclear contribution   :      0.24626       0.33679       0.53741
                        -----------------------------------------
Total Dipole Moment    :      0.25565       0.34967       0.55797
                        -----------------------------------------
Magnitude (a.u.)       :      0.70637
Magnitude (Debye)      :      1.79546



--------------------
Rotational spectrum 
--------------------
 
Rotational constants in cm-1:    15.571047    15.568777     9.714279 
Rotational constants in MHz : 466808.251431 466740.201908 291226.743972 

 Dipole components along the rotational axes: 
x,y,z [a.u.] :    -0.000003     0.000081     0.706375 
x,y,z [Debye]:    -0.000009     0.000205     1.795461 

 

         *************************************************************
                                TRAJECTORY STEP   5
                  R  :   0.91260000
         *************************************************************
---------------------------------
CARTESIAN COORDINATES (ANGSTROEM)
---------------------------------
  N      0.000000    0.000000    0.000000
  H      0.912600    0.000000    0.000000
  H     -0.277005    0.869544    0.000000
  H     -0.277005   -0.379136    0.782536

----------------------------
CARTESIAN COORDINATES (A.U.)
----------------------------
  NO LB      ZA    FRAG     MASS         X           Y           Z
   0 N     7.0000    0    14.007    0.000000    0.000000    0.000000
   1 H     1.0000    0     1.008    1.724564    0.000000    0.000000
   2 H     1.0000    0     1.008   -0.523464    1.643200    0.000000
   3 H     1.0000    0     1.008   -0.523464   -0.716463    1.478779

--------------------------------
INTERNAL COORDINATES (ANGSTROEM)
--------------------------------
 N      0   0   0     0.000000000000     0.00000000     0.00000000
 H      1   0   0     0.912600000000     0.00000000     0.00000000
 H      1   2   0     0.912600000000   107.67000000     0.00000000
 H      1   2   3     0.912600000000   107.67000000   244.15000000

---------------------------
INTERNAL COORDINATES (A.U.)
---------------------------
 N      0   0   0     0.000000000000     0.00000000     0.00000000
 H      1   0   0     1.724564069817     0.00000000     0.00000000
 H      1   2   0     1.724564069817   107.67000000     0.00000000
 H      1   2   3     1.724564069817   107.67000000   244.15000000


Diagonalization of the overlap matrix:
Smallest eigenvalue                        ... 3.001e-02
Time for diagonalization                   ...    0.000 sec
Threshold for overlap eigenvalues          ... 1.000e-08
Number of eigenvalues below threshold      ... 0
Time for construction of square roots      ...    0.000 sec
Total time needed                          ...    0.001 sec

-------------------
DFT GRID GENERATION
-------------------

General Integration Accuracy     IntAcc      ...  4.670
Radial Grid Type                 RadialGrid  ... Gauss-Chebyshev
Angular Grid (max. acc.)         AngularGrid ... Lebedev-302
Angular grid pruning method      GridPruning ... 3 (G Style)
Weight generation scheme         WeightScheme... Becke
Basis function cutoff            BFCut       ...    1.0000e-10
Integration weight cutoff        WCut        ...    1.0000e-14
Grids for H and He will be reduced by one unit

# of grid points (after initial pruning)     ...  16394 (   0.0 sec)
# of grid points (after weights+screening)   ...  16098 (   0.0 sec)
nearest neighbour list constructed           ...    0.0 sec
Grid point re-assignment to atoms done       ...    0.0 sec
Grid point division into batches done        ...    0.1 sec
Reduced shell lists constructed in    0.1 sec

Total number of grid points                  ...    16098
Total number of batches                      ...      253
Average number of points per batch           ...       63
Average number of grid points per atom       ...     4024
Average number of shells per batch           ...    10.32 (85.99%)
Average number of basis functions per batch  ...    17.22 (86.08%)
Average number of large shells per batch     ...     9.83 (95.31%)
Average number of large basis fcns per batch ...    16.50 (95.82%)
Maximum spatial batch extension              ...  15.60, 16.40, 16.88 au
Average spatial batch extension              ...   3.10,  2.98,  3.21 au

Time for grid setup =    0.080 sec

--------------
SCF ITERATIONS
--------------
ITER       Energy         Delta-E        Max-DP      RMS-DP      [F,P]   Gradient Norm
               ***  Starting incremental Fock matrix formation  ***
                             ****Resetting KDIIS****
                             ****Turning on KDIIS(Cayley)****
  0    -56.4851159786   0.000000000000 0.00963641  0.00105085  0.0442830   0.045822772
  1    -56.4877292884  -0.002613309720 0.01660180  0.00144812  0.0398217   0.039382526
  2    -56.4903639985  -0.002634710140 0.03188681  0.00269174  0.0325012   0.032175522
  3    -56.4937710722  -0.003407073704 0.05368261  0.00434395  0.0194783   0.019431738
  4    -56.4957422064  -0.001971134232 0.00052966  0.00007907  0.0002253   0.000222811
                          ***Energy convergence achieved***
  5    -56.4957425470  -0.000000340599 0.00013010  0.00001027  0.0000174   0.000020664
Warning: badly conditioned DIIS matrix, 1 vectors out of 5 destroyed

            ***Energy convergence in two consecutive cycles with***
                    ***'reasonable' density convergence***
                       *** signaling convergence ***

                    *** KDIIS BlockDiag ( 1.437 sec) ***

               *****************************************************
               *                     SUCCESS                       *
               *           SCF CONVERGED AFTER   6 CYCLES          *
               *****************************************************

Setting up the final grid:

General Integration Accuracy     IntAcc      ...  5.010
Radial Grid Type                 RadialGrid  ... Gauss-Chebyshev
Angular Grid (max. acc.)         AngularGrid ... Lebedev-434
Angular grid pruning method      GridPruning ... 3 (G Style)
Weight generation scheme         WeightScheme... Becke
Basis function cutoff            BFCut       ...    1.0000e-10
Integration weight cutoff        WCut        ...    1.0000e-14
Grids for H and He will be reduced by one unit

# of grid points (after initial pruning)     ...  30666 (   0.0 sec)
# of grid points (after weights+screening)   ...  30090 (   0.0 sec)
nearest neighbour list constructed           ...    0.0 sec
Grid point re-assignment to atoms done       ...    0.0 sec
Grid point division into batches done        ...    0.2 sec
Reduced shell lists constructed in    0.2 sec

Total number of grid points                  ...    30090
Total number of batches                      ...      473
Average number of points per batch           ...       63
Average number of grid points per atom       ...     7522
Average number of shells per batch           ...    10.10 (84.14%)
Average number of basis functions per batch  ...    16.89 (84.43%)
Average number of large shells per batch     ...     9.60 (95.09%)
Average number of large basis fcns per batch ...    16.15 (95.66%)
Maximum spatial batch extension              ...  15.56, 15.48, 16.27 au
Average spatial batch extension              ...   2.51,  2.47,  2.56 au

Final grid set up in    0.2 sec
Final integration                            ... done (   0.2 sec)
Change in XC energy                          ...    -0.000207670
Integrated number of electrons               ...     9.999998384
Previous integrated no of electrons          ...    10.000005961
Total Energy       :          -56.49595022 Eh           -1537.33296 eV
  Last Energy change         ...   -3.4482e-09  Tolerance :   1.0000e-06
  Last MAX-Density change    ...    2.2481e-05  Tolerance :   1.0000e-05
             **** THE GBW FILE WAS UPDATED (NH3.gbw) ****
             **** DENSITY FILE WAS UPDATED (NH3.scfp) ****
             **** ENERGY FILE WAS UPDATED (NH3.en.tmp) ****
             **** THE GBW FILE WAS UPDATED (NH3.gbw) ****
             **** DENSITY FILE WAS UPDATED (NH3.scfp) ****
Total SCF time: 0 days 0 hours 0 min 1 sec 

-------------------------   --------------------
FINAL SINGLE POINT ENERGY       -56.495950220609
-------------------------   --------------------

Storing actual gbw-file in NH3.005.gbw ... done

                            ***************************************
                            *     ORCA property calculations      *
                            ***************************************

                                    ---------------------
                                    Active property flags
                                    ---------------------
   (+) Dipole Moment


------------------------------------------------------------------------------
                       ORCA ELECTRIC PROPERTIES CALCULATION
------------------------------------------------------------------------------

Dipole Moment Calculation                       ... on
Quadrupole Moment Calculation                   ... off
Polarizability Calculation                      ... off
GBWName                                         ... NH3.gbw
Electron density file                           ... NH3.scfp
The origin for moment calculation is the CENTER OF MASS  = ( 0.040107,  0.054850  0.087523)

-------------
DIPOLE MOMENT
-------------
                                X             Y             Z
Electronic contribution:     -0.01547      -0.02112      -0.03368
Nuclear contribution   :      0.27657       0.37824       0.60355
                        -----------------------------------------
Total Dipole Moment    :      0.26110       0.35711       0.56986
                        -----------------------------------------
Magnitude (a.u.)       :      0.72142
Magnitude (Debye)      :      1.83371



--------------------
Rotational spectrum 
--------------------
 
Rotational constants in cm-1:    12.345552    12.343753     7.701995 
Rotational constants in MHz : 370110.350943 370056.397671 230900.015338 

 Dipole components along the rotational axes: 
x,y,z [a.u.] :    -0.000012     0.000085     0.721421 
x,y,z [Debye]:    -0.000031     0.000215     1.833705 

 

         *************************************************************
                                TRAJECTORY STEP   6
                  R  :   1.01260000
         *************************************************************
---------------------------------
CARTESIAN COORDINATES (ANGSTROEM)
---------------------------------
  N      0.000000    0.000000    0.000000
  H      1.012600    0.000000    0.000000
  H     -0.307359    0.964826    0.000000
  H     -0.307359   -0.420680    0.868284

----------------------------
CARTESIAN COORDINATES (A.U.)
----------------------------
  NO LB      ZA    FRAG     MASS         X           Y           Z
   0 N     7.0000    0    14.007    0.000000    0.000000    0.000000
   1 H     1.0000    0     1.008    1.913537    0.000000    0.000000
   2 H     1.0000    0     1.008   -0.580824    1.823257    0.000000
   3 H     1.0000    0     1.008   -0.580824   -0.794970    1.640819

--------------------------------
INTERNAL COORDINATES (ANGSTROEM)
--------------------------------
 N      0   0   0     0.000000000000     0.00000000     0.00000000
 H      1   0   0     1.012600000000     0.00000000     0.00000000
 H      1   2   0     1.012600000000   107.67000000     0.00000000
 H      1   2   3     1.012600000000   107.67000000   244.15000000

---------------------------
INTERNAL COORDINATES (A.U.)
---------------------------
 N      0   0   0     0.000000000000     0.00000000     0.00000000
 H      1   0   0     1.913536683209     0.00000000     0.00000000
 H      1   2   0     1.913536683209   107.67000000     0.00000000
 H      1   2   3     1.913536683209   107.67000000   244.15000000


Diagonalization of the overlap matrix:
Smallest eigenvalue                        ... 3.939e-02
Time for diagonalization                   ...    0.000 sec
Threshold for overlap eigenvalues          ... 1.000e-08
Number of eigenvalues below threshold      ... 0
Time for construction of square roots      ...    0.000 sec
Total time needed                          ...    0.001 sec

-------------------
DFT GRID GENERATION
-------------------

General Integration Accuracy     IntAcc      ...  4.670
Radial Grid Type                 RadialGrid  ... Gauss-Chebyshev
Angular Grid (max. acc.)         AngularGrid ... Lebedev-302
Angular grid pruning method      GridPruning ... 3 (G Style)
Weight generation scheme         WeightScheme... Becke
Basis function cutoff            BFCut       ...    1.0000e-10
Integration weight cutoff        WCut        ...    1.0000e-14
Grids for H and He will be reduced by one unit

# of grid points (after initial pruning)     ...  16394 (   0.0 sec)
# of grid points (after weights+screening)   ...  16120 (   0.0 sec)
nearest neighbour list constructed           ...    0.0 sec
Grid point re-assignment to atoms done       ...    0.0 sec
Grid point division into batches done        ...    0.1 sec
Reduced shell lists constructed in    0.1 sec

Total number of grid points                  ...    16120
Total number of batches                      ...      254
Average number of points per batch           ...       63
Average number of grid points per atom       ...     4030
Average number of shells per batch           ...    10.31 (85.95%)
Average number of basis functions per batch  ...    17.25 (86.24%)
Average number of large shells per batch     ...     9.72 (94.26%)
Average number of large basis fcns per batch ...    16.38 (94.97%)
Maximum spatial batch extension              ...  16.12, 16.58, 16.88 au
Average spatial batch extension              ...   3.13,  2.97,  3.21 au

Time for grid setup =    0.080 sec

--------------
SCF ITERATIONS
--------------
ITER       Energy         Delta-E        Max-DP      RMS-DP      [F,P]   Gradient Norm
               ***  Starting incremental Fock matrix formation  ***
                             ****Resetting KDIIS****
                             ****Turning on KDIIS(Cayley)****
  0    -56.5199087541   0.000000000000 0.00804401  0.00089055  0.0334754   0.037978680
  1    -56.5218431594  -0.001934405275 0.01361977  0.00124077  0.0282306   0.032598372
  2    -56.5238106414  -0.001967481998 0.02657522  0.00240478  0.0230912   0.026741470
  3    -56.5264292435  -0.002618602087 0.04482263  0.00397936  0.0137952   0.016148398
  4    -56.5279575189  -0.001528275452 0.00034668  0.00006343  0.0002042   0.000221717
                          ***Energy convergence achieved***
  5    -56.5279578927  -0.000000373763 0.00014740  0.00001281  0.0000262   0.000026279

            ***Energy convergence in two consecutive cycles with***
                    ***'reasonable' density convergence***
                       *** signaling convergence ***

                    *** KDIIS BlockDiag ( 1.447 sec) ***

               *****************************************************
               *                     SUCCESS                       *
               *           SCF CONVERGED AFTER   6 CYCLES          *
               *****************************************************

Setting up the final grid:

General Integration Accuracy     IntAcc      ...  5.010
Radial Grid Type                 RadialGrid  ... Gauss-Chebyshev
Angular Grid (max. acc.)         AngularGrid ... Lebedev-434
Angular grid pruning method      GridPruning ... 3 (G Style)
Weight generation scheme         WeightScheme... Becke
Basis function cutoff            BFCut       ...    1.0000e-10
Integration weight cutoff        WCut        ...    1.0000e-14
Grids for H and He will be reduced by one unit

# of grid points (after initial pruning)     ...  30666 (   0.0 sec)
# of grid points (after weights+screening)   ...  30137 (   0.0 sec)
nearest neighbour list constructed           ...    0.0 sec
Grid point re-assignment to atoms done       ...    0.0 sec
Grid point division into batches done        ...    0.2 sec
Reduced shell lists constructed in    0.2 sec

Total number of grid points                  ...    30137
Total number of batches                      ...      473
Average number of points per batch           ...       63
Average number of grid points per atom       ...     7534
Average number of shells per batch           ...    10.11 (84.21%)
Average number of basis functions per batch  ...    16.89 (84.47%)
Average number of large shells per batch     ...     9.49 (93.95%)
Average number of large basis fcns per batch ...    15.99 (94.66%)
Maximum spatial batch extension              ...  15.75, 15.66, 16.27 au
Average spatial batch extension              ...   2.54,  2.48,  2.60 au

Final grid set up in    0.2 sec
Final integration                            ... done (   0.2 sec)
Change in XC energy                          ...    -0.000243291
Integrated number of electrons               ...     9.999999544
Previous integrated no of electrons          ...     9.999992703
Total Energy       :          -56.52820119 Eh           -1538.21056 eV
  Last Energy change         ...   -8.6356e-09  Tolerance :   1.0000e-06
  Last MAX-Density change    ...    1.7515e-05  Tolerance :   1.0000e-05
             **** THE GBW FILE WAS UPDATED (NH3.gbw) ****
             **** DENSITY FILE WAS UPDATED (NH3.scfp) ****
             **** ENERGY FILE WAS UPDATED (NH3.en.tmp) ****
             **** THE GBW FILE WAS UPDATED (NH3.gbw) ****
             **** DENSITY FILE WAS UPDATED (NH3.scfp) ****
Total SCF time: 0 days 0 hours 0 min 1 sec 

-------------------------   --------------------
FINAL SINGLE POINT ENERGY       -56.528201192765
-------------------------   --------------------

Storing actual gbw-file in NH3.006.gbw ... done

                            ***************************************
                            *     ORCA property calculations      *
                            ***************************************

                                    ---------------------
                                    Active property flags
                                    ---------------------
   (+) Dipole Moment


------------------------------------------------------------------------------
                       ORCA ELECTRIC PROPERTIES CALCULATION
------------------------------------------------------------------------------

Dipole Moment Calculation                       ... on
Quadrupole Moment Calculation                   ... off
Polarizability Calculation                      ... off
GBWName                                         ... NH3.gbw
Electron density file                           ... NH3.scfp
The origin for moment calculation is the CENTER OF MASS  = ( 0.044501,  0.060860  0.097114)

-------------
DIPOLE MOMENT
-------------
                                X             Y             Z
Electronic contribution:     -0.04327      -0.05914      -0.09433
Nuclear contribution   :      0.30687       0.41968       0.66968
                        -----------------------------------------
Total Dipole Moment    :      0.26360       0.36055       0.57535
                        -----------------------------------------
Magnitude (a.u.)       :      0.72836
Magnitude (Debye)      :      1.85135



--------------------
Rotational spectrum 
--------------------
 
Rotational constants in cm-1:    10.027568    10.026106     6.255879 
Rotational constants in MHz : 300618.922632 300575.099555 187546.534891 

 Dipole components along the rotational axes: 
x,y,z [a.u.] :    -0.000017     0.000076     0.728361 
x,y,z [Debye]:    -0.000043     0.000194     1.851347 

 

         *************************************************************
                                TRAJECTORY STEP   7
                  R  :   1.11260000
         *************************************************************
---------------------------------
CARTESIAN COORDINATES (ANGSTROEM)
---------------------------------
  N      0.000000    0.000000    0.000000
  H      1.112600    0.000000    0.000000
  H     -0.337712    1.060108    0.000000
  H     -0.337712   -0.462225    0.954032

----------------------------
CARTESIAN COORDINATES (A.U.)
----------------------------
  NO LB      ZA    FRAG     MASS         X           Y           Z
   0 N     7.0000    0    14.007    0.000000    0.000000    0.000000
   1 H     1.0000    0     1.008    2.102509    0.000000    0.000000
   2 H     1.0000    0     1.008   -0.638183    2.003314    0.000000
   3 H     1.0000    0     1.008   -0.638183   -0.873478    1.802860

--------------------------------
INTERNAL COORDINATES (ANGSTROEM)
--------------------------------
 N      0   0   0     0.000000000000     0.00000000     0.00000000
 H      1   0   0     1.112600000000     0.00000000     0.00000000
 H      1   2   0     1.112600000000   107.67000000     0.00000000
 H      1   2   3     1.112600000000   107.67000000   244.15000000

---------------------------
INTERNAL COORDINATES (A.U.)
---------------------------
 N      0   0   0     0.000000000000     0.00000000     0.00000000
 H      1   0   0     2.102509296601     0.00000000     0.00000000
 H      1   2   0     2.102509296601   107.67000000     0.00000000
 H      1   2   3     2.102509296601   107.67000000   244.15000000


Diagonalization of the overlap matrix:
Smallest eigenvalue                        ... 5.067e-02
Time for diagonalization                   ...    0.000 sec
Threshold for overlap eigenvalues          ... 1.000e-08
Number of eigenvalues below threshold      ... 0
Time for construction of square roots      ...    0.000 sec
Total time needed                          ...    0.001 sec

-------------------
DFT GRID GENERATION
-------------------

General Integration Accuracy     IntAcc      ...  4.670
Radial Grid Type                 RadialGrid  ... Gauss-Chebyshev
Angular Grid (max. acc.)         AngularGrid ... Lebedev-302
Angular grid pruning method      GridPruning ... 3 (G Style)
Weight generation scheme         WeightScheme... Becke
Basis function cutoff            BFCut       ...    1.0000e-10
Integration weight cutoff        WCut        ...    1.0000e-14
Grids for H and He will be reduced by one unit

# of grid points (after initial pruning)     ...  16394 (   0.0 sec)
# of grid points (after weights+screening)   ...  16146 (   0.0 sec)
nearest neighbour list constructed           ...    0.0 sec
Grid point re-assignment to atoms done       ...    0.0 sec
Grid point division into batches done        ...    0.1 sec
Reduced shell lists constructed in    0.1 sec

Total number of grid points                  ...    16146
Total number of batches                      ...      254
Average number of points per batch           ...       63
Average number of grid points per atom       ...     4036
Average number of shells per batch           ...    10.29 (85.78%)
Average number of basis functions per batch  ...    17.24 (86.22%)
Average number of large shells per batch     ...     9.63 (93.56%)
Average number of large basis fcns per batch ...    16.28 (94.43%)
Maximum spatial batch extension              ...  15.88, 16.76, 16.88 au
[...]
Time for diagonalization                   ...    0.000 sec
Threshold for overlap eigenvalues          ... 1.000e-08
Number of eigenvalues below threshold      ... 0
Time for construction of square roots      ...    0.000 sec
Total time needed                          ...    0.001 sec

-------------------
DFT GRID GENERATION
-------------------

General Integration Accuracy     IntAcc      ...  4.670
Radial Grid Type                 RadialGrid  ... Gauss-Chebyshev
Angular Grid (max. acc.)         AngularGrid ... Lebedev-302
Angular grid pruning method      GridPruning ... 3 (G Style)
Weight generation scheme         WeightScheme... Becke
Basis function cutoff            BFCut       ...    1.0000e-10
Integration weight cutoff        WCut        ...    1.0000e-14
Grids for H and He will be reduced by one unit

# of grid points (after initial pruning)     ...  16394 (   0.0 sec)
# of grid points (after weights+screening)   ...  16378 (   0.0 sec)
nearest neighbour list constructed           ...    0.0 sec
Grid point re-assignment to atoms done       ...    0.0 sec
Grid point division into batches done        ...    0.1 sec
Reduced shell lists constructed in    0.1 sec

Total number of grid points                  ...    16378
Total number of batches                      ...      258
Average number of points per batch           ...       63
Average number of grid points per atom       ...     4094
Average number of shells per batch           ...     5.56 (46.33%)
Average number of basis functions per batch  ...     9.61 (48.07%)
Average number of large shells per batch     ...     3.59 (64.65%)
Average number of large basis fcns per batch ...     6.41 (66.71%)
Maximum spatial batch extension              ...  19.60, 18.85, 22.27 au
Average spatial batch extension              ...   3.96,  3.93,  3.88 au

Time for grid setup =    0.080 sec

--------------
SCF ITERATIONS
--------------
ITER       Energy         Delta-E        Max-DP      RMS-DP      [F,P]   Gradient Norm
               ***  Starting incremental Fock matrix formation  ***
                             ****Resetting KDIIS****
                             ****Turning on KDIIS(Cayley)****
  0    -55.5837002566   0.000000000000 0.00007388  0.00001470  0.0003465   0.000315180
                          ***Energy convergence achieved***
  1    -55.5837006991  -0.000000442485 0.00010618  0.00001767  0.0002517   0.000272582
  2    -55.5837010907  -0.000000391622 0.00021503  0.00003551  0.0002295   0.000226995
  3    -55.5837017209  -0.000000630189 0.00041566  0.00006437  0.0001333   0.000135905

            ***Energy convergence in two consecutive cycles with***
                    ***'reasonable' density convergence***
                       *** signaling convergence ***

                    *** KDIIS BlockDiag ( 1.025 sec) ***

               *****************************************************
               *                     SUCCESS                       *
               *           SCF CONVERGED AFTER   4 CYCLES          *
               *****************************************************

Setting up the final grid:

General Integration Accuracy     IntAcc      ...  5.010
Radial Grid Type                 RadialGrid  ... Gauss-Chebyshev
Angular Grid (max. acc.)         AngularGrid ... Lebedev-434
Angular grid pruning method      GridPruning ... 3 (G Style)
Weight generation scheme         WeightScheme... Becke
Basis function cutoff            BFCut       ...    1.0000e-10
Integration weight cutoff        WCut        ...    1.0000e-14
Grids for H and He will be reduced by one unit

# of grid points (after initial pruning)     ...  30666 (   0.0 sec)
# of grid points (after weights+screening)   ...  30639 (   0.0 sec)
nearest neighbour list constructed           ...    0.0 sec
Grid point re-assignment to atoms done       ...    0.0 sec
Grid point division into batches done        ...    0.2 sec
Reduced shell lists constructed in    0.2 sec

Total number of grid points                  ...    30639
Total number of batches                      ...      481
Average number of points per batch           ...       63
Average number of grid points per atom       ...     7660
Average number of shells per batch           ...     5.09 (42.43%)
Average number of basis functions per batch  ...     8.72 (43.61%)
Average number of large shells per batch     ...     3.30 (64.87%)
Average number of large basis fcns per batch ...     5.80 (66.46%)
Maximum spatial batch extension              ...  18.60, 16.21, 20.79 au
Average spatial batch extension              ...   3.23,  3.17,  3.22 au

Final grid set up in    0.2 sec
Final integration                            ... done (   0.1 sec)
Change in XC energy                          ...    -0.000078887
Integrated number of electrons               ...     9.999996319
Previous integrated no of electrons          ...    10.000004810
Total Energy       :          -55.58378101 Eh           -1512.51158 eV
  Last Energy change         ...   -3.9805e-07  Tolerance :   1.0000e-06
  Last MAX-Density change    ...    3.3951e-05  Tolerance :   1.0000e-05
             **** THE GBW FILE WAS UPDATED (NH3.gbw) ****
             **** DENSITY FILE WAS UPDATED (NH3.scfp) ****
             **** ENERGY FILE WAS UPDATED (NH3.en.tmp) ****
             **** THE GBW FILE WAS UPDATED (NH3.gbw) ****
             **** DENSITY FILE WAS UPDATED (NH3.scfp) ****
Total SCF time: 0 days 0 hours 0 min 1 sec 

-------------------------   --------------------
FINAL SINGLE POINT ENERGY       -55.583781005756
-------------------------   --------------------

Storing actual gbw-file in NH3.045.gbw ... done

                            ***************************************
                            *     ORCA property calculations      *
                            ***************************************

                                    ---------------------
                                    Active property flags
                                    ---------------------
   (+) Dipole Moment


------------------------------------------------------------------------------
                       ORCA ELECTRIC PROPERTIES CALCULATION
------------------------------------------------------------------------------

Dipole Moment Calculation                       ... on
Quadrupole Moment Calculation                   ... off
Polarizability Calculation                      ... off
GBWName                                         ... NH3.gbw
Electron density file                           ... NH3.scfp
The origin for moment calculation is the CENTER OF MASS  = ( 0.215897,  0.295262  0.471145)

-------------
DIPOLE MOMENT
-------------
                                X             Y             Z
Electronic contribution:     -1.54356      -2.11143      -3.36984
Nuclear contribution   :      1.48879       2.03608       3.24894
                        -----------------------------------------
Total Dipole Moment    :     -0.05476      -0.07535      -0.12090
                        -----------------------------------------
Magnitude (a.u.)       :      0.15262
Magnitude (Debye)      :      0.38794



--------------------
Rotational spectrum 
--------------------
 
Rotational constants in cm-1:     0.426038     0.425976     0.265792 
Rotational constants in MHz : 12772.307102 12770.445204  7968.234064 

 Dipole components along the rotational axes: 
x,y,z [a.u.] :     0.000352     0.000491    -0.152621 
x,y,z [Debye]:     0.000895     0.001249    -0.387933 

 

         *************************************************************
                                TRAJECTORY STEP  46
                  R  :   5.01260000
         *************************************************************
---------------------------------
CARTESIAN COORDINATES (ANGSTROEM)
---------------------------------
  N      0.000000    0.000000    0.000000
  H      5.012600    0.000000    0.000000
  H     -1.521496    4.776108    0.000000
  H     -1.521496   -2.082463    4.298204

----------------------------
CARTESIAN COORDINATES (A.U.)
----------------------------
  NO LB      ZA    FRAG     MASS         X           Y           Z
   0 N     7.0000    0    14.007    0.000000    0.000000    0.000000
   1 H     1.0000    0     1.008    9.472441    0.000000    0.000000
   2 H     1.0000    0     1.008   -2.875210    9.025537    0.000000
   3 H     1.0000    0     1.008   -2.875210   -3.935284    8.122429

--------------------------------
INTERNAL COORDINATES (ANGSTROEM)
--------------------------------
 N      0   0   0     0.000000000000     0.00000000     0.00000000
 H      1   0   0     5.012600000000     0.00000000     0.00000000
 H      1   2   0     5.012600000000   107.67000000     0.00000000
 H      1   2   3     5.012600000000   107.67000000   244.15000000

---------------------------
INTERNAL COORDINATES (A.U.)
---------------------------
 N      0   0   0     0.000000000000     0.00000000     0.00000000
 H      1   0   0     9.472441218894     0.00000000     0.00000000
 H      1   2   0     9.472441218894   107.67000000     0.00000000
 H      1   2   3     9.472441218894   107.67000000   244.15000000


Diagonalization of the overlap matrix:
Smallest eigenvalue                        ... 2.228e-01
Time for diagonalization                   ...    0.000 sec
Threshold for overlap eigenvalues          ... 1.000e-08
Number of eigenvalues below threshold      ... 0
Time for construction of square roots      ...    0.000 sec
Total time needed                          ...    0.001 sec

-------------------
DFT GRID GENERATION
-------------------

General Integration Accuracy     IntAcc      ...  4.670
Radial Grid Type                 RadialGrid  ... Gauss-Chebyshev
Angular Grid (max. acc.)         AngularGrid ... Lebedev-302
Angular grid pruning method      GridPruning ... 3 (G Style)
Weight generation scheme         WeightScheme... Becke
Basis function cutoff            BFCut       ...    1.0000e-10
Integration weight cutoff        WCut        ...    1.0000e-14
Grids for H and He will be reduced by one unit

# of grid points (after initial pruning)     ...  16394 (   0.0 sec)
# of grid points (after weights+screening)   ...  16378 (   0.0 sec)
nearest neighbour list constructed           ...    0.0 sec
Grid point re-assignment to atoms done       ...    0.0 sec
Grid point division into batches done        ...    0.1 sec
Reduced shell lists constructed in    0.1 sec

Total number of grid points                  ...    16378
Total number of batches                      ...      258
Average number of points per batch           ...       63
Average number of grid points per atom       ...     4094
Average number of shells per batch           ...     5.52 (46.01%)
Average number of basis functions per batch  ...     9.54 (47.68%)
Average number of large shells per batch     ...     3.54 (64.13%)
Average number of large basis fcns per batch ...     6.35 (66.60%)
Maximum spatial batch extension              ...  17.36, 22.27, 22.27 au
Average spatial batch extension              ...   3.95,  3.93,  3.85 au

Time for grid setup =    0.079 sec

--------------
SCF ITERATIONS
--------------
ITER       Energy         Delta-E        Max-DP      RMS-DP      [F,P]   Gradient Norm
               ***  Starting incremental Fock matrix formation  ***
                             ****Resetting KDIIS****
                             ****Turning on KDIIS(Cayley)****
  0    -55.5811758530   0.000000000000 0.00006475  0.00001351  0.0003255   0.000281907
                          ***Energy convergence achieved***
  1    -55.5811762198  -0.000000366768 0.00009042  0.00001561  0.0002371   0.000241871
  2    -55.5811765297  -0.000000309875 0.00018748  0.00003114  0.0002164   0.000201655
  3    -55.5811770268  -0.000000497143 0.00036585  0.00005610  0.0001301   0.000120892

            ***Energy convergence in two consecutive cycles with***
                    ***'reasonable' density convergence***
                       *** signaling convergence ***

                    *** KDIIS BlockDiag ( 1.024 sec) ***

               *****************************************************
               *                     SUCCESS                       *
               *           SCF CONVERGED AFTER   4 CYCLES          *
               *****************************************************

Setting up the final grid:

General Integration Accuracy     IntAcc      ...  5.010
Radial Grid Type                 RadialGrid  ... Gauss-Chebyshev
Angular Grid (max. acc.)         AngularGrid ... Lebedev-434
Angular grid pruning method      GridPruning ... 3 (G Style)
Weight generation scheme         WeightScheme... Becke
Basis function cutoff            BFCut       ...    1.0000e-10
Integration weight cutoff        WCut        ...    1.0000e-14
Grids for H and He will be reduced by one unit

# of grid points (after initial pruning)     ...  30666 (   0.0 sec)
# of grid points (after weights+screening)   ...  30641 (   0.0 sec)
nearest neighbour list constructed           ...    0.0 sec
Grid point re-assignment to atoms done       ...    0.0 sec
Grid point division into batches done        ...    0.2 sec
Reduced shell lists constructed in    0.2 sec

Total number of grid points                  ...    30641
Total number of batches                      ...      482
Average number of points per batch           ...       63
Average number of grid points per atom       ...     7660
Average number of shells per batch           ...     5.07 (42.24%)
Average number of basis functions per batch  ...     8.70 (43.50%)
Average number of large shells per batch     ...     3.29 (64.99%)
Average number of large basis fcns per batch ...     5.79 (66.56%)
Maximum spatial batch extension              ...  16.64, 16.81, 20.79 au
Average spatial batch extension              ...   3.26,  3.16,  3.25 au

Final grid set up in    0.2 sec
Final integration                            ... done (   0.1 sec)
Change in XC energy                          ...    -0.000080254
Integrated number of electrons               ...    10.000000962
Previous integrated no of electrons          ...     9.999994286
Total Energy       :          -55.58125761 Eh           -1512.44291 eV
  Last Energy change         ...   -3.2760e-07  Tolerance :   1.0000e-06
  Last MAX-Density change    ...    1.3184e-05  Tolerance :   1.0000e-05
             **** THE GBW FILE WAS UPDATED (NH3.gbw) ****
             **** DENSITY FILE WAS UPDATED (NH3.scfp) ****
             **** ENERGY FILE WAS UPDATED (NH3.en.tmp) ****
             **** THE GBW FILE WAS UPDATED (NH3.gbw) ****
             **** DENSITY FILE WAS UPDATED (NH3.scfp) ****
Total SCF time: 0 days 0 hours 0 min 1 sec 

-------------------------   --------------------
FINAL SINGLE POINT ENERGY       -55.581257608233
-------------------------   --------------------

Storing actual gbw-file in NH3.046.gbw ... done

                            ***************************************
                            *     ORCA property calculations      *
                            ***************************************

                                    ---------------------
                                    Active property flags
                                    ---------------------
   (+) Dipole Moment


------------------------------------------------------------------------------
                       ORCA ELECTRIC PROPERTIES CALCULATION
------------------------------------------------------------------------------

Dipole Moment Calculation                       ... on
Quadrupole Moment Calculation                   ... off
Polarizability Calculation                      ... off
GBWName                                         ... NH3.gbw
Electron density file                           ... NH3.scfp
The origin for moment calculation is the CENTER OF MASS  = ( 0.220292,  0.301273  0.480736)

-------------
DIPOLE MOMENT
-------------
                                X             Y             Z
Electronic contribution:     -1.57770      -2.15791      -3.44463
Nuclear contribution   :      1.51910       2.07753       3.31507
                        -----------------------------------------
Total Dipole Moment    :     -0.05860      -0.08039      -0.12956
                        -----------------------------------------
Magnitude (a.u.)       :      0.16334
Magnitude (Debye)      :      0.41518



--------------------
Rotational spectrum 
--------------------
 
Rotational constants in cm-1:     0.409209     0.409150     0.255293 
Rotational constants in MHz : 12267.782302 12265.993951  7653.477171 

 Dipole components along the rotational axes: 
x,y,z [a.u.] :     0.000684     0.000537    -0.163340 
x,y,z [Debye]:     0.001738     0.001365    -0.415177 

 
                              **** TRAJECTORY DONE ***

                         SUMMARY OF THE CALCULATED SURFACE

------------------
TRAJECTORY RESULTS
------------------

Column   1: R

The Calculated Surface using the 'Actual Energy'
   0.51260000 -54.18159209
   0.61260000 -55.43288807
   0.71260000 -56.06298334
   0.81260000 -56.36748090
   0.91260000 -56.49595022
   1.01260000 -56.52820119
   1.11260000 -56.50857133
   1.21260000 -56.46241250
   1.31260000 -56.40445736
   1.41260000 -56.34311281
   1.51260000 -56.28276654
   1.61260000 -56.22535952
   1.71260000 -56.17138128
   1.81260000 -56.12086363
   1.91260000 -56.07358955
   2.01260000 -56.02943816
   2.11260000 -55.98821319
   2.21260000 -55.94983239
   2.31260000 -55.91416726
   2.41260000 -55.88100991
   2.51260000 -55.85022559
   2.61260000 -55.82167710
   2.71260000 -55.79517672
   2.81260000 -55.77058069
   2.91260000 -55.74778257
   3.01260000 -55.72676130
   3.11260000 -55.70822916
   3.21260000 -55.69261589
   3.31260000 -55.67924041
   3.41260000 -55.66752631
   3.51260000 -55.65711234
   3.61260000 -55.64779399
   3.71260000 -55.63943573
   3.81260000 -55.63191601
   3.91260000 -55.62514051
   4.01260000 -55.61903119
   4.11260000 -55.61350871
   4.21260000 -55.60850609
   4.31260000 -55.60396436
   4.41260000 -55.59983276
   4.51260000 -55.59606299
   4.61260000 -55.59260844
   4.71260000 -55.58943012
   4.81260000 -55.58649626
   4.91260000 -55.58378101
   5.01260000 -55.58125761

The Calculated Surface using the SCF energy
   0.51260000 -54.18159209
   0.61260000 -55.43288807
   0.71260000 -56.06298334
   0.81260000 -56.36748090
   0.91260000 -56.49595022
   1.01260000 -56.52820119
   1.11260000 -56.50857133
   1.21260000 -56.46241250
   1.31260000 -56.40445736
   1.41260000 -56.34311281
   1.51260000 -56.28276654
   1.61260000 -56.22535952
   1.71260000 -56.17138128
   1.81260000 -56.12086363
   1.91260000 -56.07358955
   2.01260000 -56.02943816
   2.11260000 -55.98821319
   2.21260000 -55.94983239
   2.31260000 -55.91416726
   2.41260000 -55.88100991
   2.51260000 -55.85022559
   2.61260000 -55.82167710
   2.71260000 -55.79517672
   2.81260000 -55.77058069
   2.91260000 -55.74778257
   3.01260000 -55.72676130
   3.11260000 -55.70822916
   3.21260000 -55.69261589
   3.31260000 -55.67924041
   3.41260000 -55.66752631
   3.51260000 -55.65711234
   3.61260000 -55.64779399
   3.71260000 -55.63943573
   3.81260000 -55.63191601
   3.91260000 -55.62514051
   4.01260000 -55.61903119
   4.11260000 -55.61350871
   4.21260000 -55.60850609
   4.31260000 -55.60396436
   4.41260000 -55.59983276
   4.51260000 -55.59606299
   4.61260000 -55.59260844
   4.71260000 -55.58943012
   4.81260000 -55.58649626
   4.91260000 -55.58378101
   5.01260000 -55.58125761


Timings for individual modules:

Sum of individual times         ...      101.480 sec (=   1.691 min)
GTO integral calculation        ...       10.804 sec (=   0.180 min)  10.6 %
SCF iterations                  ...       90.676 sec (=   1.511 min)  89.4 %
                             ****ORCA TERMINATED NORMALLY****
TOTAL RUN TIME: 0 days 0 hours 1 minutes 45 seconds 532 msec
