2
Point_1/orca1.out	Energy:    -113.2192629
C         -0.63133        1.61361        0.00000
O          0.37229        1.61361        0.00000
