2
Point_10/orca10.out	Energy:    -113.2569606
C         -0.74622        1.61361       -0.00000
O          0.48718        1.61361       -0.00000
