2
Point_11/orca11.out	Energy:    -113.2364241
C         -0.77288        1.61361       -0.00000
O          0.51384        1.61361        0.00000
