2
Point_12/orca12.out	Energy:    -113.2047305
C         -0.80644        1.61361        0.00000
O          0.54740        1.61361        0.00000
