2
Point_13/orca13.out	Energy:    -113.1591401
C         -0.84961        1.61361        0.00000
O          0.59057        1.61361        0.00000
