2
Point_14/orca14.out	Energy:    -113.0977143
C         -0.90596        1.61361        0.00000
O          0.64692        1.61361        0.00000
