2
Point_15/orca15.out	Energy:    -113.0245481
C         -0.97636        1.61361       -0.00000
O          0.71732        1.61361        0.00000
