2
Point_16/orca16.out	Energy:    -112.9530972
C         -1.05303        1.61361       -0.00000
O          0.79399        1.61361        0.00000
