2
Point_17/orca17.out	Energy:    -112.8948381
C         -1.12490        1.61361       -0.00000
O          0.86586        1.61361        0.00000
