2
Point_18/orca18.out	Energy:    -112.8478145
C         -1.19208        1.61361       -0.00000
O          0.93304        1.61361        0.00000
