2
Point_19/orca19.out	Energy:    -112.8095680
C         -1.25671        1.61361        0.00000
O          0.99767        1.61361        0.00000
