2
Point_2/orca2.out	Energy:    -113.2329662
C         -0.63890        1.61361       -0.00000
O          0.37986        1.61361       -0.00000
