2
Point_20/orca20.out	Energy:    -112.7804331
C         -1.31918        1.61361        0.00000
O          1.06014        1.61361        0.00000
