2
Point_21/orca21.out	Energy:    -112.7608010
C         -1.37965        1.61361        0.00000
O          1.12061        1.61361        0.00000
