2
Point_22/orca22.out	Energy:    -112.7476738
C         -1.43801        1.61361        0.00000
O          1.17897        1.61361       -0.00000
