2
Point_23/orca23.out	Energy:    -112.7382986
C         -1.49440        1.61361        0.00000
O          1.23536        1.61361        0.00000
