2
Point_24/orca24.out	Energy:    -112.7311862
C         -1.54916        1.61361        0.00000
O          1.29012        1.61361        0.00000
