2
Point_25/orca25.out	Energy:    -112.7254880
C         -1.60270        1.61361        0.00000
O          1.34366        1.61361        0.00000
