2
Point_26/orca26.out	Energy:    -112.6387896
C         -1.65538        1.61361        0.00000
O          1.39634        1.61361        0.00000
