2
Point_27/orca27.out	Energy:    -112.6258350
C         -1.70749        1.61361        0.00000
O          1.44845        1.61361        0.00000
