2
Point_28/orca28.out	Energy:    -112.6139491
C         -1.75923        1.61361        0.00000
O          1.50019        1.61361        0.00000
