2
Point_29/orca29.out	Energy:    -112.6030674
C         -1.81073        1.61361        0.00000
O          1.55169        1.61361        0.00000
