2
Point_3/orca3.out	Energy:    -113.2454044
C         -0.64725        1.61361       -0.00000
O          0.38821        1.61361       -0.00000
