2
Point_30/orca30.out	Energy:    -112.5930971
C         -1.86208        1.61361        0.00000
O          1.60304        1.61361        0.00000
