2
Point_31/orca31.out	Energy:    -112.5839771
C         -1.91335        1.61361        0.00000
O          1.65431        1.61361        0.00000
