2
Point_32/orca32.out	Energy:    -112.5937781
C         -1.96456        1.61361        0.00000
O          1.70552        1.61361        0.00000
