2
Point_33/orca33.out	Energy:    -112.5680209
C         -2.01574        1.61361       -0.00000
O          1.75670        1.61361        0.00000
