2
Point_34/orca34.out	Energy:    -112.7020456
C         -2.06690        1.61361       -0.00000
O          1.80786        1.61361        0.00000
