2
Point_35/orca35.out	Energy:    -112.7010963
C         -2.11805        1.61361       -0.00000
O          1.85901        1.61361        0.00000
