2
Point_36/orca36.out	Energy:    -112.5763096
C         -2.16920        1.61361       -0.00000
O          1.91016        1.61361       -0.00000
