2
Point_37/orca37.out	Energy:    -111.6982970
C         -2.22034        1.61361       -0.00000
O          1.96130        1.61361       -0.00000
