2
Point_38/orca38.out	Energy:    -112.6992202
C         -2.27149        1.61361       -0.00000
O          2.01245        1.61361       -0.00000
