2
Point_39/orca39.out	Energy:    -112.5335708
C         -2.32263        1.61361       -0.00000
O          2.06359        1.61361       -0.00000
