2
Point_4/orca4.out	Energy:    -113.2561978
C         -0.65646        1.61361       -0.00000
O          0.39742        1.61361       -0.00000
