2
Point_40/orca40.out	Energy:    -112.6985318
C         -2.37377        1.61361       -0.00000
O          2.11473        1.61361       -0.00000
