2
Point_41/orca41.out	Energy:    -112.6983109
C         -2.42491        1.61361       -0.00000
O          2.16587        1.61361       -0.00000
