2
Point_42/orca42.out	Energy:    -112.5214318
C         -2.47605        1.61361        0.00000
O          2.21701        1.61361        0.00000
