2
Point_43/orca43.out	Energy:    -112.6980372
C         -2.52719        1.61361        0.00000
O          2.26815        1.61361        0.00000
