2
Point_44/orca44.out	Energy:    -112.5145638
C         -2.57833        1.61361        0.00000
O          2.31929        1.61361        0.00000
