2
Point_45/orca45.out	Energy:    -112.6978803
C         -2.62947        1.61361        0.00000
O          2.37043        1.61361        0.00000
