2
Point_5/orca5.out	Energy:    -113.2650034
C         -0.66671        1.61361       -0.00000
O          0.40767        1.61361       -0.00000
