2
Point_6/orca6.out	Energy:    -113.2713846
C         -0.67826        1.61361       -0.00000
O          0.41922        1.61361       -0.00000
