2
Point_7/orca7.out	Energy:    -113.2747402
C         -0.69136        1.61361       -0.00000
O          0.43232        1.61361       -0.00000
