2
Point_8/orca8.out	Energy:    -113.2742820
C         -0.70667        1.61361       -0.00000
O          0.44763        1.61361       -0.00000
