2
Point_9/orca9.out	Energy:    -113.2688369
C         -0.72471        1.61361       -0.00000
O          0.46567        1.61361       -0.00000
