
                                 *****************
                                 * O   R   C   A *
                                 *****************

           --- An Ab Initio, DFT and Semiempirical electronic structure package ---

                  #######################################################
                  #                        -***-                        #
                  #  Department of molecular theory and spectroscopy    #
                  #              Directorship: Frank Neese              #
                  # Max Planck Institute for Chemical Energy Conversion #
                  #                  D-45470 Muelheim/Ruhr              #
                  #                       Germany                       #
                  #                                                     #
                  #                  All rights reserved                #
                  #                        -***-                        #
                  #######################################################


                         Program Version 4.0.0.2 - RELEASE -


 With contributions from (in alphabetic order):
   Daniel Aravena         : Magnetic Properties
   Michael Atanasov       : Ab Initio Ligand Field Theory
   Ute Becker             : Parallelization
   Martin Brehm           : Molecular dynamics
   Dmytro Bykov           : SCF Hessian
   Vijay G. Chilkuri      : MRCI spin determinant printing
   Dipayan Datta          : RHF DLPNO-CCSD density
   Achintya Kumar Dutta   : EOM-CC, STEOM-CC
   Dmitry Ganyushin       : Spin-Orbit,Spin-Spin,Magnetic field MRCI
   Yang Guo               : DLPNO-NEVPT2, CIM, IAO-localization
   Andreas Hansen         : Spin unrestricted coupled pair/coupled cluster methods
   Lee Huntington         : MR-EOM, pCC
   Robert Izsak           : Overlap fitted RIJCOSX, COSX-SCS-MP3, EOM
   Christian Kollmar      : KDIIS, OOCD, Brueckner-CCSD(T), CCSD density
   Simone Kossmann        : Meta GGA functionals, TD-DFT gradient, OOMP2, MP2 Hessian
   Martin Krupicka        : AUTO-CI
   Dagmar Lenk            : GEPOL surface
   Dimitrios Liakos       : Extrapolation schemes; parallel MDCI
   Dimitrios Manganas     : ROCIS; embedding schemes
   Dimitrios Pantazis     : SARC Basis sets
   Taras Petrenko         : DFT Hessian,TD-DFT gradient, ASA, ECA, R-Raman, ABS, FL, XAS/XES, NRVS
   Peter Pinski           : DLPNO-MP2
   Christoph Reimann      : Effective Core Potentials
   Marius Retegan         : Local ZFS, SOC
   Christoph Riplinger    : Optimizer, TS searches, QM/MM, DLPNO-CCSD(T), (RO)-DLPNO pert. Triples
   Tobias Risthaus        : Range-separated hybrids, TD-DFT gradient, RPA, STAB
   Michael Roemelt        : Restricted open shell CIS
   Masaaki Saitow         : Open-shell DLPNO
   Barbara Sandhoefer     : DKH picture change effects
   Kantharuban Sivalingam : CASSCF convergence, NEVPT2, FIC-MRCI
   Georgi Stoychev        : AutoAux
   Boris Wezisla          : Elementary symmetry handling
   Frank Wennmohs         : Technical directorship


 We gratefully acknowledge several colleagues who have allowed us to
 interface, adapt or use parts of their codes:
   Stefan Grimme, W. Hujo, H. Kruse,             : VdW corrections, initial TS optimization,
                  C. Bannwarth                     DFT functionals, gCP, sTDA/sTD-DF
   Ed Valeev                                     : LibInt (2-el integral package), F12 methods
   Garnet Chan, S. Sharma, J. Yang, R. Olivares  : DMRG
   Ulf Ekstrom                                   : XCFun DFT Library
   Mihaly Kallay                                 : mrcc  (arbitrary order and MRCC methods)
   Jiri Pittner, Ondrej Demel                    : Mk-CCSD
   Frank Weinhold                                : gennbo (NPA and NBO analysis)
   Christopher J. Cramer and Donald G. Truhlar   : smd solvation model


 Your calculation uses the libint2 library for the computation of 2-el integrals
 For citations please refer to: http://libint.valeyev.net

 This ORCA versions uses:
   CBLAS   interface :  Fast vector & matrix operations
   LAPACKE interface :  Fast linear algebra routines
   SCALAPACK package :  Parallel linear algebra routines


Your calculation utilizes the atom-pairwise dispersion correction
with the zero-damping scheme (D30)
Cite in your paper:
S.Grimme, J.Antony, S.Ehrlich and H.Krieg, J.Chem.Phys., 132, (2010), 154104 
   

XCFun DFT library Copyright 2009-2010 Ulf Ekstrom and contributors.
See http://admol.org/xcfun for more information. This is free soft-
ware; see the source code for copying conditions. There is ABSOLUTELY
NO WARRANTY; not even for MERCHANTABILITY or FITNESS FOR A PARTICULAR
PURPOSE. For details see the documentation. Scientific users of this 
library should cite U. Ekstrom, L. Visscher, R. Bast, A. J. Thorvald-
sen and K. Ruud; J.Chem.Theor.Comp. 2010, DOI: 10.1021/ct100117s
XCFun Version 0.99 
Your calculation utilizes the basis: 6-31G(d)
   H-He, Li-Ne : W. J. Hehre, R. Ditchfield and J.A. Pople, J. Chem. Phys. 56, 2257 (1972).
                 Note: He and Ne are unpublished basis sets taken from the Gaussian program.
                 Note: Li and B from J. D. Dill and J. A. Pople, J. Chem. Phys. 62, 2921 (1975).
   Na - Ar     : M. M. Francl, W. J. Pietro, W. J. Hehre, J. S. Binkley, M. S. Gordon, 
                 D. J. DeFrees and J. A. Pople, J. Chem. Phys. 77, 3654 (1982).
   K - Zn      : V. A. Rassolov, J. A. Pople, M. A. Ratner, and T. L. Windus, J. Chem. Phys. 109, 1223 (1998).

================================================================================
                                        WARNINGS
                       Please study these warnings very carefully!
================================================================================

Warning: TCutStore was < 0. Adjusted to Thresh (uncritical)

INFO   : the flag for use of LIBINT has been found!

================================================================================
                                       INPUT FILE
================================================================================
NAME = initial10.inp
|  1> ! WB97X-D3 6-31G(d) VerySlowConv
|  2> ! KDIIS NOSOSCF
|  3> %base "Scan_10"
|  4> 
|  5> %scf
|  6> maxiter 999
|  7> end
|  8> 
|  9> * xyz 0 1
| 10> C         -0.746224120609    1.613610000000   -0.000000000000
| 11> O          0.487184120609    1.613610000000   -0.000000000000
| 12> **                         ****END OF INPUT****
================================================================================

                       ****************************
                       * Single Point Calculation *
                       ****************************

---------------------------------
CARTESIAN COORDINATES (ANGSTROEM)
---------------------------------
  C     -0.746224    1.613610   -0.000000
  O      0.487184    1.613610   -0.000000

----------------------------
CARTESIAN COORDINATES (A.U.)
----------------------------
  NO LB      ZA    FRAG     MASS         X           Y           Z
   0 C     6.0000    0    12.011   -1.410159    3.049281   -0.000000
   1 O     8.0000    0    15.999    0.920645    3.049281   -0.000000

--------------------------------
INTERNAL COORDINATES (ANGSTROEM)
--------------------------------
 C      0   0   0     0.000000000000     0.00000000     0.00000000
 O      1   0   0     1.233408241218     0.00000000     0.00000000

---------------------------
INTERNAL COORDINATES (A.U.)
---------------------------
 C      0   0   0     0.000000000000     0.00000000     0.00000000
 O      1   0   0     2.330803787224     0.00000000     0.00000000

---------------------
BASIS SET INFORMATION
---------------------
There are 2 groups of distinct atoms

 Group   1 Type C   : 10s4p1d contracted to 3s2p1d pattern {631/31/1}
 Group   2 Type O   : 10s4p1d contracted to 3s2p1d pattern {631/31/1}

Atom   0C    basis set group =>   1
Atom   1O    basis set group =>   2
------------------------------------------------------------------------------
                           ORCA GTO INTEGRAL CALCULATION
------------------------------------------------------------------------------

                         BASIS SET STATISTICS AND STARTUP INFO

 # of primitive gaussian shells          ...   30
 # of primitive gaussian functions       ...   54
 # of contracted shells                  ...   12
 # of contracted basis functions         ...   28
 Highest angular momentum                ...    2
 Maximum contraction depth               ...    6
 Integral package used                   ... LIBINT
 Integral threshhold            Thresh   ...  1.000e-10
 Primitive cut-off              TCut     ...  1.000e-11


------------------------------ INTEGRAL EVALUATION ----------------------------


 * One electron integrals 
 Pre-screening matrix                    ... done
 Shell pair data                         ... done (   0.000 sec)

-------------------------------------------------------------------------------
                                 ORCA SCF
-------------------------------------------------------------------------------

------------
SCF SETTINGS
------------
Hamiltonian:
 Density Functional     Method          .... DFT(GTOs)
 Exchange Functional    Exchange        .... WB97X-D3
 Correlation Functional Correlation     .... WB97X-D3
 Gradients option       PostSCFGGA      .... off
 Hybrid DFT is turned on
   Fraction HF Exchange ScalHFX         ....  0.195728
   Scaling of DF-GGA-X  ScalDFX         ....  0.000000
   Scaling of DF-GGA-C  ScalDFC         ....  1.000000
   Scaling of DF-LDA-C  ScalLDAC        ....  1.000000
   Perturbative correction              ....  0.000000
 Long-range corrected/Screened/Range-Separated Hybrid DFT is turned on
   Amount of maximum screened exact exchange              ....  0.804272
   Range separation parameter mu (erf(mu*r12)/r12)        ....  0.250000


General Settings:
 Integral files         IntName         .... Scan_10
 Hartree-Fock type      HFTyp           .... RHF
 Total Charge           Charge          ....    0
 Multiplicity           Mult            ....    1
 Number of Electrons    NEL             ....   14
 Basis Dimension        Dim             ....   28
 Nuclear Repulsion      ENuc            ....     20.5937540788 Eh

Convergence Acceleration:
 DIIS                   CNVDIIS         .... on
   Start iteration      DIISMaxIt       ....     0
   Startup error        DIISStart       ....  0.200000
   # of expansion vecs  DIISMaxEq       ....     5
   Bias factor          DIISBfac        ....   1.050
   Max. coefficient     DIISMaxC        ....  10.000
 Newton-Raphson         CNVNR           .... off
 SOSCF                  CNVSOSCF        .... off
 Level Shifting         CNVShift        .... off
 Zerner damping         CNVZerner       .... off
 Static damping         CNVDamp         .... off
 Fernandez-Rico         CNVRico         .... off

SCF Procedure:
 Maximum # iterations   MaxIter         ....   999
 SCF integral mode      SCFMode         .... Direct
   Integral package                     .... LIBINT
 Reset frequeny         DirectResetFreq ....    20
 Integral Threshold     Thresh          ....  1.000e-10 Eh
 Primitive CutOff       TCut            ....  1.000e-11 Eh

Convergence Tolerance:
 Convergence Check Mode ConvCheckMode   .... All-Criteria
 Convergence forced     ConvForced      .... 0
 Energy Change          TolE            ....  1.000e-06 Eh
 Max Density Change     TolMaxP         ....  1.000e-05
 RMS Density Change     TolRMSP         ....  1.000e-06
 DIIS Error             TolErr          ....  1.000e-06


Diagonalization of the overlap matrix:
Smallest eigenvalue                        ... 1.931e-02
Time for diagonalization                   ...    0.001 sec
Threshold for overlap eigenvalues          ... 1.000e-08
Number of eigenvalues below threshold      ... 0
Time for construction of square roots      ...    0.012 sec
Total time needed                          ...    0.013 sec

-------------------
DFT GRID GENERATION
-------------------

General Integration Accuracy     IntAcc      ...  4.340
Radial Grid Type                 RadialGrid  ... Gauss-Chebyshev
Angular Grid (max. acc.)         AngularGrid ... Lebedev-110
Angular grid pruning method      GridPruning ... 3 (G Style)
Weight generation scheme         WeightScheme... Becke
Basis function cutoff            BFCut       ...    1.0000e-10
Integration weight cutoff        WCut        ...    1.0000e-14
Grids for H and He will be reduced by one unit

# of grid points (after initial pruning)     ...   3372 (   0.0 sec)
# of grid points (after weights+screening)   ...   3346 (   0.0 sec)
nearest neighbour list constructed           ...    0.0 sec
Grid point re-assignment to atoms done       ...    0.0 sec
Grid point division into batches done        ...    0.0 sec
Reduced shell lists constructed in    0.0 sec

Total number of grid points                  ...     3346
Total number of batches                      ...       53
Average number of points per batch           ...       63
Average number of grid points per atom       ...     1673
Average number of shells per batch           ...    10.30 (85.80%)
Average number of basis functions per batch  ...    24.78 (88.49%)
Average number of large shells per batch     ...     9.54 (92.63%)
Average number of large basis fcns per batch ...    23.28 (93.95%)
Maximum spatial batch extension              ...  17.72, 25.60, 31.36 au
Average spatial batch extension              ...   5.88,  7.30,  6.81 au

Time for grid setup =    0.027 sec

------------------------------
INITIAL GUESS: MODEL POTENTIAL
------------------------------
Loading Hartree-Fock densities                     ... done
Calculating cut-offs                               ... done
Setting up the integral package                    ... done
Initializing the effective Hamiltonian             ... done
Starting the Coulomb interaction                   ... done (   0.0 sec)
Reading the grid                                   ... done
Mapping shells                                     ... done
Starting the XC term evaluation                    ... done (   0.0 sec)
  promolecular density results
     # of electrons  =     14.000034596
     EX              =    -13.124215179
     EC              =     -0.440523773
     EX+EC           =    -13.564738951
Transforming the Hamiltonian                       ... done (   0.0 sec)
Diagonalizing the Hamiltonian                      ... done (   0.0 sec)
Back transforming the eigenvectors                 ... done (   0.0 sec)
Now organizing SCF variables                       ... done
                      ------------------
                      INITIAL GUESS DONE (   0.2 sec)
                      ------------------
--------------
SCF ITERATIONS
--------------
ITER       Energy         Delta-E        Max-DP      RMS-DP      [F,P]   Gradient Norm
               ***  Starting incremental Fock matrix formation  ***
                             ****Resetting KDIIS****
                             ****Turning on KDIIS(Cayley)****
  0   -113.2151210144   0.000000000000 0.03003757  0.00218286  0.0923467   0.090057185
  1   -113.2357345481  -0.020613533714 0.01504204  0.00104626  0.0653817   0.064230842
  2   -113.2429971460  -0.007262597955 0.02246350  0.00155106  0.0535461   0.051361833
  3   -113.2510024535  -0.008005307481 0.03455662  0.00236147  0.0349944   0.032010383
  4   -113.2562644447  -0.005261991175 0.00724730  0.00063716  0.0054566   0.003129744
  5   -113.2559323258   0.000332118857 0.02250294  0.00201465  0.0099779   0.005794686
  6   -113.2563210802  -0.000388754425 0.00725656  0.00065196  0.0042663   0.002462005
  7   -113.2564035650  -0.000082484737 0.00070734  0.00006784  0.0004751   0.000271163
                           ***MAXP convergence achieved***
  8   -113.2564045990  -0.000001034065 0.00000944  0.00000104  0.0000041   0.000003621
Warning: badly conditioned DIIS matrix, 1 vectors out of 5 destroyed
                          ***Energy convergence achieved***
                           ***RMSP convergence achieved***
                    *** KDIIS BlockDiag ( 0.000 sec) ***

               *****************************************************
               *                     SUCCESS                       *
               *           SCF CONVERGED AFTER   9 CYCLES          *
               *****************************************************

Setting up the final grid:

General Integration Accuracy     IntAcc      ...  4.670
Radial Grid Type                 RadialGrid  ... Gauss-Chebyshev
Angular Grid (max. acc.)         AngularGrid ... Lebedev-302
Angular grid pruning method      GridPruning ... 3 (G Style)
Weight generation scheme         WeightScheme... Becke
Basis function cutoff            BFCut       ...    1.0000e-10
Integration weight cutoff        WCut        ...    1.0000e-14
Grids for H and He will be reduced by one unit

# of grid points (after initial pruning)     ...  12424 (   0.0 sec)
# of grid points (after weights+screening)   ...  12394 (   0.0 sec)
nearest neighbour list constructed           ...    0.0 sec
Grid point re-assignment to atoms done       ...    0.0 sec
Grid point division into batches done        ...    0.1 sec
Reduced shell lists constructed in    0.1 sec

Total number of grid points                  ...    12394
Total number of batches                      ...      194
Average number of points per batch           ...       63
Average number of grid points per atom       ...     6197
Average number of shells per batch           ...     9.20 (76.67%)
Average number of basis functions per batch  ...    22.19 (79.27%)
Average number of large shells per batch     ...     8.54 (92.87%)
Average number of large basis fcns per batch ...    20.88 (94.09%)
Maximum spatial batch extension              ...  18.86, 24.37, 22.15 au
Average spatial batch extension              ...   3.83,  4.33,  4.26 au

Final grid set up in    0.1 sec
Final integration                            ... done (   0.1 sec)
Change in XC energy                          ...    -0.000555798
Integrated number of electrons               ...    14.000004628
Previous integrated no of electrons          ...    13.999925166

----------------
TOTAL SCF ENERGY
----------------

Total Energy       :         -113.25696040 Eh           -3081.87857 eV

Components:
Nuclear Repulsion  :           20.59375408 Eh             560.38454 eV
Electronic Energy  :         -133.85071448 Eh           -3642.26311 eV
One Electron Energy:         -194.67049425 Eh           -5297.25346 eV
Two Electron Energy:           60.81977978 Eh            1654.99035 eV

Virial components:
Potential Energy   :         -225.41165649 Eh           -6133.76301 eV
Kinetic Energy     :          112.15469609 Eh            3051.88444 eV
Virial Ratio       :            2.00982807


DFT components:
N(Alpha)           :        7.000002313886 electrons
N(Beta)            :        7.000002313886 electrons
N(Total)           :       14.000004627771 electrons
E(XC)              :       -9.670953480207 Eh       

---------------
SCF CONVERGENCE
---------------

  Last Energy change         ...   -1.2574e-10  Tolerance :   1.0000e-06
  Last MAX-Density change    ...    1.8148e-06  Tolerance :   1.0000e-05
  Last RMS-Density change    ...    1.6697e-07  Tolerance :   1.0000e-06
  Last DIIS Error            ...    9.8696e-07  Tolerance :   1.0000e-06

             **** THE GBW FILE WAS UPDATED (Scan_10.gbw) ****
             **** DENSITY FILE WAS UPDATED (Scan_10.scfp.tmp) ****
             **** ENERGY FILE WAS UPDATED (Scan_10.en.tmp) ****
----------------
ORBITAL ENERGIES
----------------

  NO   OCC          E(Eh)            E(eV) 
   0   2.0000     -19.359815      -526.8074 
   1   2.0000     -10.436260      -283.9851 
   2   2.0000      -1.219473       -33.1835 
   3   2.0000      -0.674731       -18.3604 
   4   2.0000      -0.535111       -14.5611 
   5   2.0000      -0.535111       -14.5611 
   6   2.0000      -0.478349       -13.0165 
   7   0.0000       0.037787         1.0282 
   8   0.0000       0.037787         1.0282 
   9   0.0000       0.338629         9.2146 
  10   0.0000       0.621693        16.9171 
  11   0.0000       0.621693        16.9171 
  12   0.0000       0.680000        18.5037 
  13   0.0000       0.723580        19.6896 
  14   0.0000       0.955210        25.9926 
  15   0.0000       1.021908        27.8075 
  16   0.0000       1.021908        27.8075 
  17   0.0000       1.578627        42.9566 
  18   0.0000       1.578627        42.9566 
  19   0.0000       1.588177        43.2165 
  20   0.0000       1.606367        43.7115 
  21   0.0000       1.606481        43.7146 
  22   0.0000       1.996087        54.3163 
  23   0.0000       1.996328        54.3229 
  24   0.0000       2.340965        63.7009 
  25   0.0000       2.597827        70.6905 
  26   0.0000       2.597827        70.6905 
  27   0.0000       2.942257        80.0629 

                    ********************************
                    * MULLIKEN POPULATION ANALYSIS *
                    ********************************

-----------------------
MULLIKEN ATOMIC CHARGES
-----------------------
   0 C :    0.245872
   1 O :   -0.245872
Sum of atomic charges:   -0.0000000

--------------------------------
MULLIKEN REDUCED ORBITAL CHARGES
--------------------------------
  0 C s       :     3.800414  s :     3.800414
      pz      :     0.494978  p :     1.892790
      px      :     0.902833
      py      :     0.494978
      dz2     :     0.006547  d :     0.060925
      dxz     :     0.017367
      dyz     :     0.000000
      dx2y2   :     0.019642
      dxy     :     0.017367
  1 O s       :     3.868820  s :     3.868820
      pz      :     1.477807  p :     4.348904
      px      :     1.393291
      py      :     1.477807
      dz2     :     0.002113  d :     0.028147
      dxz     :     0.009848
      dyz     :     0.000000
      dx2y2   :     0.006339
      dxy     :     0.009848


                     *******************************
                     * LOEWDIN POPULATION ANALYSIS *
                     *******************************

----------------------
LOEWDIN ATOMIC CHARGES
----------------------
   0 C :    0.074924
   1 O :   -0.074924

-------------------------------
LOEWDIN REDUCED ORBITAL CHARGES
-------------------------------
  0 C s       :     3.612527  s :     3.612527
      pz      :     0.520840  p :     2.195725
      px      :     1.154045
      py      :     0.520840
      dz2     :     0.014784  d :     0.116824
      dxz     :     0.028845
      dyz     :     0.000000
      dx2y2   :     0.044351
      dxy     :     0.028845
  1 O s       :     3.621294  s :     3.621294
      pz      :     1.439739  p :     4.407446
      px      :     1.527968
      py      :     1.439739
      dz2     :     0.006258  d :     0.046184
      dxz     :     0.010576
      dyz     :     0.000000
      dx2y2   :     0.018774
      dxy     :     0.010576


                      *****************************
                      * MAYER POPULATION ANALYSIS *
                      *****************************

  NA   - Mulliken gross atomic population
  ZA   - Total nuclear charge
  QA   - Mulliken gross atomic charge
  VA   - Mayer's total valence
  BVA  - Mayer's bonded valence
  FA   - Mayer's free valence

  ATOM       NA         ZA         QA         VA         BVA        FA
  0 C      5.7541     6.0000     0.2459     2.3485     2.3485    -0.0000
  1 O      8.2459     8.0000    -0.2459     2.3485     2.3485     0.0000

  Mayer bond orders larger than 0.1
B(  0-C ,  1-O ) :   2.3485 

-------
TIMINGS
-------

Total SCF time: 0 days 0 hours 0 min 3 sec 

Total time                  ....       3.891 sec
Sum of individual times     ....       3.707 sec  ( 95.3%)

Fock matrix formation       ....       3.388 sec  ( 87.1%)
  XC integration            ....       0.599 sec  ( 17.7% of F)
    Basis function eval.    ....       0.142 sec  ( 23.7% of XC)
    Density eval.           ....       0.025 sec  (  4.2% of XC)
    XC-Functional eval.     ....       0.146 sec  ( 24.4% of XC)
    XC-Potential eval.      ....       0.020 sec  (  3.4% of XC)
Diagonalization             ....       0.031 sec  (  0.8%)
Density matrix formation    ....       0.000 sec  (  0.0%)
Population analysis         ....       0.016 sec  (  0.4%)
Initial guess               ....       0.137 sec  (  3.5%)
Orbital Transformation      ....       0.000 sec  (  0.0%)
Orbital Orthonormalization  ....       0.000 sec  (  0.0%)
DIIS solution               ....       0.000 sec  (  0.0%)
Grid generation             ....       0.135 sec  (  3.5%)


-------------------------------------------------------------------------------
                          DFT DISPERSION CORRECTION                            
                                                                               
                              DFTD3 V3.1  Rev 1                                
                              USING zero damping                               
-------------------------------------------------------------------------------
The omegaB97X-D3 functional is recognized. Fit by Chai et al.
Active option DFTDOPT                   ...         3   

molecular C6(AA) [au] = 100.824159 


            DFT-D V3
 parameters
 s6 scaling factor         :     1.0000 
 rs6 scaling factor        :     1.2810 
 s8 scaling factor         :     1.0000 
 rs8 scaling factor        :     1.0940 
 Damping factor alpha6     :    14.0000 
 Damping factor alpha8     :    16.0000 
 ad hoc parameters k1-k3   :    16.0000     1.3333    -4.0000 

 Edisp/kcal,au: -0.000138632413  -0.000000220925 
 E6   /kcal   :  -0.000015759 
 E8   /kcal   :  -0.000122873 
 % E8         :  88.632469862 

-------------------------   ----------------
Dispersion correction           -0.000000221
-------------------------   ----------------


-------------------------   --------------------
FINAL SINGLE POINT ENERGY      -113.256960618426
-------------------------   --------------------


                            ***************************************
                            *     ORCA property calculations      *
                            ***************************************

                                    ---------------------
                                    Active property flags
                                    ---------------------
   (+) Dipole Moment


------------------------------------------------------------------------------
                       ORCA ELECTRIC PROPERTIES CALCULATION
------------------------------------------------------------------------------

Dipole Moment Calculation                       ... on
Quadrupole Moment Calculation                   ... off
Polarizability Calculation                      ... off
GBWName                                         ... Scan_10.gbw
Electron density file                           ... Scan_10.scfp.tmp

-------------
DIPOLE MOMENT
-------------
                                X             Y             Z
Electronic contribution:     -0.13586      -0.00000       0.00000
Nuclear contribution   :      0.00782      -0.00000       0.00000
                        -----------------------------------------
Total Dipole Moment    :     -0.12804      -0.00000       0.00000
                        -----------------------------------------
Magnitude (a.u.)       :      0.12804
Magnitude (Debye)      :      0.32545


Timings for individual modules:

Sum of individual times         ...        4.393 sec (=   0.073 min)
GTO integral calculation        ...        0.459 sec (=   0.008 min)  10.4 %
SCF iterations                  ...        3.935 sec (=   0.066 min)  89.6 %
                             ****ORCA TERMINATED NORMALLY****
TOTAL RUN TIME: 0 days 0 hours 0 minutes 4 seconds 819 msec
