
                                 *****************
                                 * O   R   C   A *
                                 *****************

           --- An Ab Initio, DFT and Semiempirical electronic structure package ---

                  #######################################################
                  #                        -***-                        #
                  #  Department of molecular theory and spectroscopy    #
                  #              Directorship: Frank Neese              #
                  # Max Planck Institute for Chemical Energy Conversion #
                  #                  D-45470 Muelheim/Ruhr              #
                  #                       Germany                       #
                  #                                                     #
                  #                  All rights reserved                #
                  #                        -***-                        #
                  #######################################################


                         Program Version 4.0.0.2 - RELEASE -


 With contributions from (in alphabetic order):
   Daniel Aravena         : Magnetic Properties
   Michael Atanasov       : Ab Initio Ligand Field Theory
   Ute Becker             : Parallelization
   Martin Brehm           : Molecular dynamics
   Dmytro Bykov           : SCF Hessian
   Vijay G. Chilkuri      : MRCI spin determinant printing
   Dipayan Datta          : RHF DLPNO-CCSD density
   Achintya Kumar Dutta   : EOM-CC, STEOM-CC
   Dmitry Ganyushin       : Spin-Orbit,Spin-Spin,Magnetic field MRCI
   Yang Guo               : DLPNO-NEVPT2, CIM, IAO-localization
   Andreas Hansen         : Spin unrestricted coupled pair/coupled cluster methods
   Lee Huntington         : MR-EOM, pCC
   Robert Izsak           : Overlap fitted RIJCOSX, COSX-SCS-MP3, EOM
   Christian Kollmar      : KDIIS, OOCD, Brueckner-CCSD(T), CCSD density
   Simone Kossmann        : Meta GGA functionals, TD-DFT gradient, OOMP2, MP2 Hessian
   Martin Krupicka        : AUTO-CI
   Dagmar Lenk            : GEPOL surface
   Dimitrios Liakos       : Extrapolation schemes; parallel MDCI
   Dimitrios Manganas     : ROCIS; embedding schemes
   Dimitrios Pantazis     : SARC Basis sets
   Taras Petrenko         : DFT Hessian,TD-DFT gradient, ASA, ECA, R-Raman, ABS, FL, XAS/XES, NRVS
   Peter Pinski           : DLPNO-MP2
   Christoph Reimann      : Effective Core Potentials
   Marius Retegan         : Local ZFS, SOC
   Christoph Riplinger    : Optimizer, TS searches, QM/MM, DLPNO-CCSD(T), (RO)-DLPNO pert. Triples
   Tobias Risthaus        : Range-separated hybrids, TD-DFT gradient, RPA, STAB
   Michael Roemelt        : Restricted open shell CIS
   Masaaki Saitow         : Open-shell DLPNO
   Barbara Sandhoefer     : DKH picture change effects
   Kantharuban Sivalingam : CASSCF convergence, NEVPT2, FIC-MRCI
   Georgi Stoychev        : AutoAux
   Boris Wezisla          : Elementary symmetry handling
   Frank Wennmohs         : Technical directorship


 We gratefully acknowledge several colleagues who have allowed us to
 interface, adapt or use parts of their codes:
   Stefan Grimme, W. Hujo, H. Kruse,             : VdW corrections, initial TS optimization,
                  C. Bannwarth                     DFT functionals, gCP, sTDA/sTD-DF
   Ed Valeev                                     : LibInt (2-el integral package), F12 methods
   Garnet Chan, S. Sharma, J. Yang, R. Olivares  : DMRG
   Ulf Ekstrom                                   : XCFun DFT Library
   Mihaly Kallay                                 : mrcc  (arbitrary order and MRCC methods)
   Jiri Pittner, Ondrej Demel                    : Mk-CCSD
   Frank Weinhold                                : gennbo (NPA and NBO analysis)
   Christopher J. Cramer and Donald G. Truhlar   : smd solvation model


 Your calculation uses the libint2 library for the computation of 2-el integrals
 For citations please refer to: http://libint.valeyev.net

 This ORCA versions uses:
   CBLAS   interface :  Fast vector & matrix operations
   LAPACKE interface :  Fast linear algebra routines
   SCALAPACK package :  Parallel linear algebra routines


Your calculation utilizes the atom-pairwise dispersion correction
with the zero-damping scheme (D30)
Cite in your paper:
S.Grimme, J.Antony, S.Ehrlich and H.Krieg, J.Chem.Phys., 132, (2010), 154104 
   

XCFun DFT library Copyright 2009-2010 Ulf Ekstrom and contributors.
See http://admol.org/xcfun for more information. This is free soft-
ware; see the source code for copying conditions. There is ABSOLUTELY
NO WARRANTY; not even for MERCHANTABILITY or FITNESS FOR A PARTICULAR
PURPOSE. For details see the documentation. Scientific users of this 
library should cite U. Ekstrom, L. Visscher, R. Bast, A. J. Thorvald-
sen and K. Ruud; J.Chem.Theor.Comp. 2010, DOI: 10.1021/ct100117s
XCFun Version 0.99 
Your calculation utilizes the basis: 6-31G(d)
   H-He, Li-Ne : W. J. Hehre, R. Ditchfield and J.A. Pople, J. Chem. Phys. 56, 2257 (1972).
                 Note: He and Ne are unpublished basis sets taken from the Gaussian program.
                 Note: Li and B from J. D. Dill and J. A. Pople, J. Chem. Phys. 62, 2921 (1975).
   Na - Ar     : M. M. Francl, W. J. Pietro, W. J. Hehre, J. S. Binkley, M. S. Gordon, 
                 D. J. DeFrees and J. A. Pople, J. Chem. Phys. 77, 3654 (1982).
   K - Zn      : V. A. Rassolov, J. A. Pople, M. A. Ratner, and T. L. Windus, J. Chem. Phys. 109, 1223 (1998).

================================================================================
                                        WARNINGS
                       Please study these warnings very carefully!
================================================================================

Warning: TCutStore was < 0. Adjusted to Thresh (uncritical)

INFO   : the flag for use of LIBINT has been found!

================================================================================
                                       INPUT FILE
================================================================================
NAME = initial15.inp
|  1> ! WB97X-D3 6-31G(d) VerySlowConv
|  2> ! KDIIS NOSOSCF
|  3> %base "Scan_15"
|  4> 
|  5> %scf
|  6> maxiter 999
|  7> end
|  8> 
|  9> * xyz 0 1
| 10> C         -0.976362332736    1.613610000000   -0.000000000000
| 11> O          0.717322332736    1.613610000000    0.000000000000
| 12> **                         ****END OF INPUT****
================================================================================

                       ****************************
                       * Single Point Calculation *
                       ****************************

---------------------------------
CARTESIAN COORDINATES (ANGSTROEM)
---------------------------------
  C     -0.976362    1.613610   -0.000000
  O      0.717322    1.613610    0.000000

----------------------------
CARTESIAN COORDINATES (A.U.)
----------------------------
  NO LB      ZA    FRAG     MASS         X           Y           Z
   0 C     6.0000    0    12.011   -1.845057    3.049281   -0.000000
   1 O     8.0000    0    15.999    1.355543    3.049281    0.000000

--------------------------------
INTERNAL COORDINATES (ANGSTROEM)
--------------------------------
 C      0   0   0     0.000000000000     0.00000000     0.00000000
 O      1   0   0     1.693684665472     0.00000000     0.00000000

---------------------------
INTERNAL COORDINATES (A.U.)
---------------------------
 C      0   0   0     0.000000000000     0.00000000     0.00000000
 O      1   0   0     3.200600174964     0.00000000     0.00000000

---------------------
BASIS SET INFORMATION
---------------------
There are 2 groups of distinct atoms

 Group   1 Type C   : 10s4p1d contracted to 3s2p1d pattern {631/31/1}
 Group   2 Type O   : 10s4p1d contracted to 3s2p1d pattern {631/31/1}

Atom   0C    basis set group =>   1
Atom   1O    basis set group =>   2
------------------------------------------------------------------------------
                           ORCA GTO INTEGRAL CALCULATION
------------------------------------------------------------------------------

                         BASIS SET STATISTICS AND STARTUP INFO

 # of primitive gaussian shells          ...   30
 # of primitive gaussian functions       ...   54
 # of contracted shells                  ...   12
 # of contracted basis functions         ...   28
 Highest angular momentum                ...    2
 Maximum contraction depth               ...    6
 Integral package used                   ... LIBINT
 Integral threshhold            Thresh   ...  1.000e-10
 Primitive cut-off              TCut     ...  1.000e-11


------------------------------ INTEGRAL EVALUATION ----------------------------


 * One electron integrals 
 Pre-screening matrix                    ... done
 Shell pair data                         ... done (   0.000 sec)

-------------------------------------------------------------------------------
                                 ORCA SCF
-------------------------------------------------------------------------------

------------
SCF SETTINGS
------------
Hamiltonian:
 Density Functional     Method          .... DFT(GTOs)
 Exchange Functional    Exchange        .... WB97X-D3
 Correlation Functional Correlation     .... WB97X-D3
 Gradients option       PostSCFGGA      .... off
 Hybrid DFT is turned on
   Fraction HF Exchange ScalHFX         ....  0.195728
   Scaling of DF-GGA-X  ScalDFX         ....  0.000000
   Scaling of DF-GGA-C  ScalDFC         ....  1.000000
   Scaling of DF-LDA-C  ScalLDAC        ....  1.000000
   Perturbative correction              ....  0.000000
 Long-range corrected/Screened/Range-Separated Hybrid DFT is turned on
   Amount of maximum screened exact exchange              ....  0.804272
   Range separation parameter mu (erf(mu*r12)/r12)        ....  0.250000


General Settings:
 Integral files         IntName         .... Scan_15
 Hartree-Fock type      HFTyp           .... RHF
 Total Charge           Charge          ....    0
 Multiplicity           Mult            ....    1
 Number of Electrons    NEL             ....   14
 Basis Dimension        Dim             ....   28
 Nuclear Repulsion      ENuc            ....     14.9971872074 Eh

Convergence Acceleration:
 DIIS                   CNVDIIS         .... on
   Start iteration      DIISMaxIt       ....     0
   Startup error        DIISStart       ....  0.200000
   # of expansion vecs  DIISMaxEq       ....     5
   Bias factor          DIISBfac        ....   1.050
   Max. coefficient     DIISMaxC        ....  10.000
 Newton-Raphson         CNVNR           .... off
 SOSCF                  CNVSOSCF        .... off
 Level Shifting         CNVShift        .... off
 Zerner damping         CNVZerner       .... off
 Static damping         CNVDamp         .... off
 Fernandez-Rico         CNVRico         .... off

SCF Procedure:
 Maximum # iterations   MaxIter         ....   999
 SCF integral mode      SCFMode         .... Direct
   Integral package                     .... LIBINT
 Reset frequeny         DirectResetFreq ....    20
 Integral Threshold     Thresh          ....  1.000e-10 Eh
 Primitive CutOff       TCut            ....  1.000e-11 Eh

Convergence Tolerance:
 Convergence Check Mode ConvCheckMode   .... All-Criteria
 Convergence forced     ConvForced      .... 0
 Energy Change          TolE            ....  1.000e-06 Eh
 Max Density Change     TolMaxP         ....  1.000e-05
 RMS Density Change     TolRMSP         ....  1.000e-06
 DIIS Error             TolErr          ....  1.000e-06


Diagonalization of the overlap matrix:
Smallest eigenvalue                        ... 5.265e-02
Time for diagonalization                   ...    0.001 sec
Threshold for overlap eigenvalues          ... 1.000e-08
Number of eigenvalues below threshold      ... 0
Time for construction of square roots      ...    0.007 sec
Total time needed                          ...    0.008 sec

-------------------
DFT GRID GENERATION
-------------------

General Integration Accuracy     IntAcc      ...  4.340
Radial Grid Type                 RadialGrid  ... Gauss-Chebyshev
Angular Grid (max. acc.)         AngularGrid ... Lebedev-110
Angular grid pruning method      GridPruning ... 3 (G Style)
Weight generation scheme         WeightScheme... Becke
Basis function cutoff            BFCut       ...    1.0000e-10
Integration weight cutoff        WCut        ...    1.0000e-14
Grids for H and He will be reduced by one unit

# of grid points (after initial pruning)     ...   3372 (   0.0 sec)
# of grid points (after weights+screening)   ...   3350 (   0.0 sec)
nearest neighbour list constructed           ...    0.0 sec
Grid point re-assignment to atoms done       ...    0.0 sec
Grid point division into batches done        ...    0.0 sec
Reduced shell lists constructed in    0.0 sec

Total number of grid points                  ...     3350
Total number of batches                      ...       53
Average number of points per batch           ...       63
Average number of grid points per atom       ...     1675
Average number of shells per batch           ...     9.98 (83.18%)
Average number of basis functions per batch  ...    24.35 (86.97%)
Average number of large shells per batch     ...     9.24 (92.58%)
Average number of large basis fcns per batch ...    22.65 (93.00%)
Maximum spatial batch extension              ...  17.24, 25.60, 31.36 au
Average spatial batch extension              ...   5.86,  6.96,  6.92 au

Time for grid setup =    0.023 sec

------------------------------
INITIAL GUESS: MODEL POTENTIAL
------------------------------
Loading Hartree-Fock densities                     ... done
Calculating cut-offs                               ... done
Setting up the integral package                    ... done
Initializing the effective Hamiltonian             ... done
Starting the Coulomb interaction                   ... done (   0.0 sec)
Reading the grid                                   ... done
Mapping shells                                     ... done
Starting the XC term evaluation                    ... done (   0.0 sec)
  promolecular density results
     # of electrons  =     14.000064458
     EX              =    -12.998738558
     EC              =     -0.421727385
     EX+EC           =    -13.420465943
Transforming the Hamiltonian                       ... done (   0.0 sec)
Diagonalizing the Hamiltonian                      ... done (   0.0 sec)
Back transforming the eigenvectors                 ... done (   0.0 sec)
Now organizing SCF variables                       ... done
                      ------------------
                      INITIAL GUESS DONE (   0.1 sec)
                      ------------------
--------------
SCF ITERATIONS
--------------
ITER       Energy         Delta-E        Max-DP      RMS-DP      [F,P]   Gradient Norm
               ***  Starting incremental Fock matrix formation  ***
                             ****Resetting KDIIS****
                             ****Turning on KDIIS(Cayley)****
  0   -112.7074837023   0.000000000000 0.04939363  0.00432702  0.2520108   0.206152359
  1   -112.8098361535  -0.102352451249 0.06192708  0.00703591  0.2140372   0.164946914
  2   -112.9422269923  -0.132390838769 0.12179803  0.01567863  0.1328449   0.103561225
  3   -113.0021608435  -0.059933851208 0.03875154  0.00529476  0.0733889   0.053715133
  4   -113.0216973033  -0.019536459838 0.00588367  0.00050156  0.0068438   0.005743673
  5   -113.0221635211  -0.000466217794 0.02817138  0.00225259  0.0069233   0.004883704
  6   -113.0235648422  -0.001401321107 0.01342924  0.00103517  0.0022031   0.001620629
  7   -113.0237762066  -0.000211364348 0.00526816  0.00042047  0.0012867   0.000778985
  8   -113.0237977096  -0.000021503010 0.00038280  0.00003697  0.0002590   0.000264137
                          ***Energy convergence achieved***
  9   -113.0237982605  -0.000000550957 0.00009133  0.00000720  0.0000118   0.000017128

            ***Energy convergence in two consecutive cycles with***
                    ***'reasonable' density convergence***
                       *** signaling convergence ***

                    *** KDIIS BlockDiag ( 0.000 sec) ***

               *****************************************************
               *                     SUCCESS                       *
               *           SCF CONVERGED AFTER  10 CYCLES          *
               *****************************************************

Setting up the final grid:

General Integration Accuracy     IntAcc      ...  4.670
Radial Grid Type                 RadialGrid  ... Gauss-Chebyshev
Angular Grid (max. acc.)         AngularGrid ... Lebedev-302
Angular grid pruning method      GridPruning ... 3 (G Style)
Weight generation scheme         WeightScheme... Becke
Basis function cutoff            BFCut       ...    1.0000e-10
Integration weight cutoff        WCut        ...    1.0000e-14
Grids for H and He will be reduced by one unit

# of grid points (after initial pruning)     ...  12424 (   0.0 sec)
# of grid points (after weights+screening)   ...  12399 (   0.0 sec)
nearest neighbour list constructed           ...    0.0 sec
Grid point re-assignment to atoms done       ...    0.0 sec
Grid point division into batches done        ...    0.1 sec
Reduced shell lists constructed in    0.1 sec

Total number of grid points                  ...    12399
Total number of batches                      ...      194
Average number of points per batch           ...       63
Average number of grid points per atom       ...     6200
Average number of shells per batch           ...     9.02 (75.13%)
Average number of basis functions per batch  ...    21.91 (78.24%)
Average number of large shells per batch     ...     8.29 (91.92%)
Average number of large basis fcns per batch ...    20.42 (93.21%)
Maximum spatial batch extension              ...  18.86, 20.64, 19.94 au
Average spatial batch extension              ...   3.93,  4.36,  4.34 au

Final grid set up in    0.1 sec
Final integration                            ... done (   0.1 sec)
Change in XC energy                          ...    -0.000746970
Integrated number of electrons               ...    13.999998205
Previous integrated no of electrons          ...    14.000167620

----------------
TOTAL SCF ENERGY
----------------

Total Energy       :         -113.02454524 Eh           -3075.55423 eV

Components:
Nuclear Repulsion  :           14.99718721 Eh             408.09421 eV
Electronic Energy  :         -128.02173245 Eh           -3483.64845 eV
One Electron Energy:         -183.70032503 Eh           -4998.73998 eV
Two Electron Energy:           55.67859258 Eh            1515.09153 eV

Virial components:
Potential Energy   :         -224.58473966 Eh           -6111.26146 eV
Kinetic Energy     :          111.56019442 Eh            3035.70722 eV
Virial Ratio       :            2.01312610


DFT components:
N(Alpha)           :        6.999999102573 electrons
N(Beta)            :        6.999999102573 electrons
N(Total)           :       13.999998205147 electrons
E(XC)              :       -9.491276354122 Eh       

---------------
SCF CONVERGENCE
---------------

  Last Energy change         ...   -7.3831e-09  Tolerance :   1.0000e-06
  Last MAX-Density change    ...    1.9317e-05  Tolerance :   1.0000e-05
  Last RMS-Density change    ...    1.1839e-06  Tolerance :   1.0000e-06
  Last DIIS Error            ...    3.6668e-06  Tolerance :   1.0000e-06

             **** THE GBW FILE WAS UPDATED (Scan_15.gbw) ****
             **** DENSITY FILE WAS UPDATED (Scan_15.scfp.tmp) ****
             **** ENERGY FILE WAS UPDATED (Scan_15.en.tmp) ****
----------------
ORBITAL ENERGIES
----------------

  NO   OCC          E(Eh)            E(eV) 
   0   2.0000     -19.341503      -526.3090 
   1   2.0000     -10.536136      -286.7028 
   2   2.0000      -1.050372       -28.5821 
   3   2.0000      -0.700877       -19.0718 
   4   2.0000      -0.461497       -12.5580 
   5   2.0000      -0.430352       -11.7105 
   6   2.0000      -0.430352       -11.7105 
   7   0.0000      -0.069285        -1.8853 
   8   0.0000      -0.069285        -1.8853 
   9   0.0000       0.095262         2.5922 
  10   0.0000       0.587009        15.9733 
  11   0.0000       0.607906        16.5420 
  12   0.0000       0.607906        16.5420 
  13   0.0000       0.670388        18.2422 
  14   0.0000       1.009852        27.4795 
  15   0.0000       1.009852        27.4795 
  16   0.0000       1.046817        28.4853 
  17   0.0000       1.413880        38.4736 
  18   0.0000       1.578667        42.9577 
  19   0.0000       1.578667        42.9577 
  20   0.0000       1.689289        45.9679 
  21   0.0000       1.689499        45.9736 
  22   0.0000       1.742396        47.4130 
  23   0.0000       1.907113        51.8952 
  24   0.0000       1.907796        51.9138 
  25   0.0000       2.146882        58.4196 
  26   0.0000       2.146882        58.4196 
  27   0.0000       2.687075        73.1190 

                    ********************************
                    * MULLIKEN POPULATION ANALYSIS *
                    ********************************

-----------------------
MULLIKEN ATOMIC CHARGES
-----------------------
   0 C :    0.356952
   1 O :   -0.356952
Sum of atomic charges:   -0.0000000

--------------------------------
MULLIKEN REDUCED ORBITAL CHARGES
--------------------------------
  0 C s       :     3.905042  s :     3.905042
      pz      :     0.455539  p :     1.722715
      px      :     0.811637
      py      :     0.455539
      dz2     :     0.002069  d :     0.015291
      dxz     :     0.003507
      dyz     :     0.000000
      dx2y2   :     0.006208
      dxy     :     0.003507
  1 O s       :     3.978197  s :     3.978197
      pz      :     1.538488  p :     4.367390
      px      :     1.290414
      py      :     1.538488
      dz2     :     0.001608  d :     0.011365
      dxz     :     0.002466
      dyz     :     0.000000
      dx2y2   :     0.004825
      dxy     :     0.002466


                     *******************************
                     * LOEWDIN POPULATION ANALYSIS *
                     *******************************

----------------------
LOEWDIN ATOMIC CHARGES
----------------------
   0 C :    0.271126
   1 O :   -0.271126

-------------------------------
LOEWDIN REDUCED ORBITAL CHARGES
-------------------------------
  0 C s       :     3.844969  s :     3.844969
      pz      :     0.464092  p :     1.858042
      px      :     0.929858
      py      :     0.464092
      dz2     :     0.004144  d :     0.025864
      dxz     :     0.004645
      dyz     :     0.000000
      dx2y2   :     0.012431
      dxy     :     0.004645
  1 O s       :     3.862740  s :     3.862740
      pz      :     1.528653  p :     4.391570
      px      :     1.334263
      py      :     1.528653
      dz2     :     0.002899  d :     0.016815
      dxz     :     0.002610
      dyz     :     0.000000
      dx2y2   :     0.008697
      dxy     :     0.002610


                      *****************************
                      * MAYER POPULATION ANALYSIS *
                      *****************************

  NA   - Mulliken gross atomic population
  ZA   - Total nuclear charge
  QA   - Mulliken gross atomic charge
  VA   - Mayer's total valence
  BVA  - Mayer's bonded valence
  FA   - Mayer's free valence

  ATOM       NA         ZA         QA         VA         BVA        FA
  0 C      5.6430     6.0000     0.3570     2.2997     2.2997     0.0000
  1 O      8.3570     8.0000    -0.3570     2.2997     2.2997    -0.0000

  Mayer bond orders larger than 0.1
B(  0-C ,  1-O ) :   2.2997 

-------
TIMINGS
-------

Total SCF time: 0 days 0 hours 0 min 3 sec 

Total time                  ....       3.428 sec
Sum of individual times     ....       3.278 sec  ( 95.6%)

Fock matrix formation       ....       3.023 sec  ( 88.2%)
  XC integration            ....       0.558 sec  ( 18.5% of F)
    Basis function eval.    ....       0.134 sec  ( 24.0% of XC)
    Density eval.           ....       0.025 sec  (  4.5% of XC)
    XC-Functional eval.     ....       0.148 sec  ( 26.5% of XC)
    XC-Potential eval.      ....       0.019 sec  (  3.5% of XC)
Diagonalization             ....       0.005 sec  (  0.1%)
Density matrix formation    ....       0.000 sec  (  0.0%)
Population analysis         ....       0.011 sec  (  0.3%)
Initial guess               ....       0.112 sec  (  3.3%)
Orbital Transformation      ....       0.000 sec  (  0.0%)
Orbital Orthonormalization  ....       0.000 sec  (  0.0%)
DIIS solution               ....       0.000 sec  (  0.0%)
Grid generation             ....       0.128 sec  (  3.7%)


-------------------------------------------------------------------------------
                          DFT DISPERSION CORRECTION                            
                                                                               
                              DFTD3 V3.1  Rev 1                                
                              USING zero damping                               
-------------------------------------------------------------------------------
The omegaB97X-D3 functional is recognized. Fit by Chai et al.
Active option DFTDOPT                   ...         3   

molecular C6(AA) [au] = 102.304039 


            DFT-D V3
 parameters
 s6 scaling factor         :     1.0000 
 rs6 scaling factor        :     1.2810 
 s8 scaling factor         :     1.0000 
 rs8 scaling factor        :     1.0940 
 Damping factor alpha6     :    14.0000 
 Damping factor alpha8     :    16.0000 
 ad hoc parameters k1-k3   :    16.0000     1.3333    -4.0000 

 Edisp/kcal,au: -0.001779326382  -0.000002835537 
 E6   /kcal   :  -0.000202272 
 E8   /kcal   :  -0.001577055 
 % E8         :  88.632118376 

-------------------------   ----------------
Dispersion correction           -0.000002836
-------------------------   ----------------


-------------------------   --------------------
FINAL SINGLE POINT ENERGY      -113.024548073968
-------------------------   --------------------


                            ***************************************
                            *     ORCA property calculations      *
                            ***************************************

                                    ---------------------
                                    Active property flags
                                    ---------------------
   (+) Dipole Moment


------------------------------------------------------------------------------
                       ORCA ELECTRIC PROPERTIES CALCULATION
------------------------------------------------------------------------------

Dipole Moment Calculation                       ... on
Quadrupole Moment Calculation                   ... off
Polarizability Calculation                      ... off
GBWName                                         ... Scan_15.gbw
Electron density file                           ... Scan_15.scfp.tmp

-------------
DIPOLE MOMENT
-------------
                                X             Y             Z
Electronic contribution:     -0.73031      -0.00000      -0.00000
Nuclear contribution   :      0.01074      -0.00000       0.00000
                        -----------------------------------------
Total Dipole Moment    :     -0.71957      -0.00000      -0.00000
                        -----------------------------------------
Magnitude (a.u.)       :      0.71957
Magnitude (Debye)      :      1.82901


Timings for individual modules:

Sum of individual times         ...        3.782 sec (=   0.063 min)
GTO integral calculation        ...        0.328 sec (=   0.005 min)   8.7 %
SCF iterations                  ...        3.454 sec (=   0.058 min)  91.3 %
                             ****ORCA TERMINATED NORMALLY****
TOTAL RUN TIME: 0 days 0 hours 0 minutes 4 seconds 147 msec
