
                                 *****************
                                 * O   R   C   A *
                                 *****************

           --- An Ab Initio, DFT and Semiempirical electronic structure package ---

                  #######################################################
                  #                        -***-                        #
                  #  Department of molecular theory and spectroscopy    #
                  #              Directorship: Frank Neese              #
                  # Max Planck Institute for Chemical Energy Conversion #
                  #                  D-45470 Muelheim/Ruhr              #
                  #                       Germany                       #
                  #                                                     #
                  #                  All rights reserved                #
                  #                        -***-                        #
                  #######################################################


                         Program Version 4.0.0.2 - RELEASE -


 With contributions from (in alphabetic order):
   Daniel Aravena         : Magnetic Properties
   Michael Atanasov       : Ab Initio Ligand Field Theory
   Ute Becker             : Parallelization
   Martin Brehm           : Molecular dynamics
   Dmytro Bykov           : SCF Hessian
   Vijay G. Chilkuri      : MRCI spin determinant printing
   Dipayan Datta          : RHF DLPNO-CCSD density
   Achintya Kumar Dutta   : EOM-CC, STEOM-CC
   Dmitry Ganyushin       : Spin-Orbit,Spin-Spin,Magnetic field MRCI
   Yang Guo               : DLPNO-NEVPT2, CIM, IAO-localization
   Andreas Hansen         : Spin unrestricted coupled pair/coupled cluster methods
   Lee Huntington         : MR-EOM, pCC
   Robert Izsak           : Overlap fitted RIJCOSX, COSX-SCS-MP3, EOM
   Christian Kollmar      : KDIIS, OOCD, Brueckner-CCSD(T), CCSD density
   Simone Kossmann        : Meta GGA functionals, TD-DFT gradient, OOMP2, MP2 Hessian
   Martin Krupicka        : AUTO-CI
   Dagmar Lenk            : GEPOL surface
   Dimitrios Liakos       : Extrapolation schemes; parallel MDCI
   Dimitrios Manganas     : ROCIS; embedding schemes
   Dimitrios Pantazis     : SARC Basis sets
   Taras Petrenko         : DFT Hessian,TD-DFT gradient, ASA, ECA, R-Raman, ABS, FL, XAS/XES, NRVS
   Peter Pinski           : DLPNO-MP2
   Christoph Reimann      : Effective Core Potentials
   Marius Retegan         : Local ZFS, SOC
   Christoph Riplinger    : Optimizer, TS searches, QM/MM, DLPNO-CCSD(T), (RO)-DLPNO pert. Triples
   Tobias Risthaus        : Range-separated hybrids, TD-DFT gradient, RPA, STAB
   Michael Roemelt        : Restricted open shell CIS
   Masaaki Saitow         : Open-shell DLPNO
   Barbara Sandhoefer     : DKH picture change effects
   Kantharuban Sivalingam : CASSCF convergence, NEVPT2, FIC-MRCI
   Georgi Stoychev        : AutoAux
   Boris Wezisla          : Elementary symmetry handling
   Frank Wennmohs         : Technical directorship


 We gratefully acknowledge several colleagues who have allowed us to
 interface, adapt or use parts of their codes:
   Stefan Grimme, W. Hujo, H. Kruse,             : VdW corrections, initial TS optimization,
                  C. Bannwarth                     DFT functionals, gCP, sTDA/sTD-DF
   Ed Valeev                                     : LibInt (2-el integral package), F12 methods
   Garnet Chan, S. Sharma, J. Yang, R. Olivares  : DMRG
   Ulf Ekstrom                                   : XCFun DFT Library
   Mihaly Kallay                                 : mrcc  (arbitrary order and MRCC methods)
   Jiri Pittner, Ondrej Demel                    : Mk-CCSD
   Frank Weinhold                                : gennbo (NPA and NBO analysis)
   Christopher J. Cramer and Donald G. Truhlar   : smd solvation model


 Your calculation uses the libint2 library for the computation of 2-el integrals
 For citations please refer to: http://libint.valeyev.net

 This ORCA versions uses:
   CBLAS   interface :  Fast vector & matrix operations
   LAPACKE interface :  Fast linear algebra routines
   SCALAPACK package :  Parallel linear algebra routines


Your calculation utilizes the atom-pairwise dispersion correction
with the zero-damping scheme (D30)
Cite in your paper:
S.Grimme, J.Antony, S.Ehrlich and H.Krieg, J.Chem.Phys., 132, (2010), 154104 
   

XCFun DFT library Copyright 2009-2010 Ulf Ekstrom and contributors.
See http://admol.org/xcfun for more information. This is free soft-
ware; see the source code for copying conditions. There is ABSOLUTELY
NO WARRANTY; not even for MERCHANTABILITY or FITNESS FOR A PARTICULAR
PURPOSE. For details see the documentation. Scientific users of this 
library should cite U. Ekstrom, L. Visscher, R. Bast, A. J. Thorvald-
sen and K. Ruud; J.Chem.Theor.Comp. 2010, DOI: 10.1021/ct100117s
XCFun Version 0.99 
Your calculation utilizes the basis: 6-31G(d)
   H-He, Li-Ne : W. J. Hehre, R. Ditchfield and J.A. Pople, J. Chem. Phys. 56, 2257 (1972).
                 Note: He and Ne are unpublished basis sets taken from the Gaussian program.
                 Note: Li and B from J. D. Dill and J. A. Pople, J. Chem. Phys. 62, 2921 (1975).
   Na - Ar     : M. M. Francl, W. J. Pietro, W. J. Hehre, J. S. Binkley, M. S. Gordon, 
                 D. J. DeFrees and J. A. Pople, J. Chem. Phys. 77, 3654 (1982).
   K - Zn      : V. A. Rassolov, J. A. Pople, M. A. Ratner, and T. L. Windus, J. Chem. Phys. 109, 1223 (1998).

================================================================================
                                        WARNINGS
                       Please study these warnings very carefully!
================================================================================

Warning: TCutStore was < 0. Adjusted to Thresh (uncritical)

INFO   : the flag for use of LIBINT has been found!

================================================================================
                                       INPUT FILE
================================================================================
NAME = initial16.inp
|  1> ! WB97X-D3 6-31G(d) VerySlowConv
|  2> ! KDIIS NOSOSCF
|  3> %base "Scan_16"
|  4> 
|  5> %scf
|  6> maxiter 999
|  7> end
|  8> 
|  9> * xyz 0 1
| 10> C         -1.053024506231    1.613610000000   -0.000000000000
| 11> O          0.793984506231    1.613610000000    0.000000000000
| 12> **                         ****END OF INPUT****
================================================================================

                       ****************************
                       * Single Point Calculation *
                       ****************************

---------------------------------
CARTESIAN COORDINATES (ANGSTROEM)
---------------------------------
  C     -1.053025    1.613610   -0.000000
  O      0.793985    1.613610    0.000000

----------------------------
CARTESIAN COORDINATES (A.U.)
----------------------------
  NO LB      ZA    FRAG     MASS         X           Y           Z
   0 C     6.0000    0    12.011   -1.989928    3.049281   -0.000000
   1 O     8.0000    0    15.999    1.500413    3.049281    0.000000

--------------------------------
INTERNAL COORDINATES (ANGSTROEM)
--------------------------------
 C      0   0   0     0.000000000000     0.00000000     0.00000000
 O      1   0   0     1.847009012462     0.00000000     0.00000000

---------------------------
INTERNAL COORDINATES (A.U.)
---------------------------
 C      0   0   0     0.000000000000     0.00000000     0.00000000
 O      1   0   0     3.490341200438     0.00000000     0.00000000

---------------------
BASIS SET INFORMATION
---------------------
There are 2 groups of distinct atoms

 Group   1 Type C   : 10s4p1d contracted to 3s2p1d pattern {631/31/1}
 Group   2 Type O   : 10s4p1d contracted to 3s2p1d pattern {631/31/1}

Atom   0C    basis set group =>   1
Atom   1O    basis set group =>   2
------------------------------------------------------------------------------
                           ORCA GTO INTEGRAL CALCULATION
------------------------------------------------------------------------------

                         BASIS SET STATISTICS AND STARTUP INFO

 # of primitive gaussian shells          ...   30
 # of primitive gaussian functions       ...   54
 # of contracted shells                  ...   12
 # of contracted basis functions         ...   28
 Highest angular momentum                ...    2
 Maximum contraction depth               ...    6
 Integral package used                   ... LIBINT
 Integral threshhold            Thresh   ...  1.000e-10
 Primitive cut-off              TCut     ...  1.000e-11


------------------------------ INTEGRAL EVALUATION ----------------------------


 * One electron integrals 
 Pre-screening matrix                    ... done
 Shell pair data                         ... done (   0.000 sec)

-------------------------------------------------------------------------------
                                 ORCA SCF
-------------------------------------------------------------------------------

------------
SCF SETTINGS
------------
Hamiltonian:
 Density Functional     Method          .... DFT(GTOs)
 Exchange Functional    Exchange        .... WB97X-D3
 Correlation Functional Correlation     .... WB97X-D3
 Gradients option       PostSCFGGA      .... off
 Hybrid DFT is turned on
   Fraction HF Exchange ScalHFX         ....  0.195728
   Scaling of DF-GGA-X  ScalDFX         ....  0.000000
   Scaling of DF-GGA-C  ScalDFC         ....  1.000000
   Scaling of DF-LDA-C  ScalLDAC        ....  1.000000
   Perturbative correction              ....  0.000000
 Long-range corrected/Screened/Range-Separated Hybrid DFT is turned on
   Amount of maximum screened exact exchange              ....  0.804272
   Range separation parameter mu (erf(mu*r12)/r12)        ....  0.250000


General Settings:
 Integral files         IntName         .... Scan_16
 Hartree-Fock type      HFTyp           .... RHF
 Total Charge           Charge          ....    0
 Multiplicity           Mult            ....    1
 Number of Electrons    NEL             ....   14
 Basis Dimension        Dim             ....   28
 Nuclear Repulsion      ENuc            ....     13.7522371721 Eh

Convergence Acceleration:
 DIIS                   CNVDIIS         .... on
   Start iteration      DIISMaxIt       ....     0
   Startup error        DIISStart       ....  0.200000
   # of expansion vecs  DIISMaxEq       ....     5
   Bias factor          DIISBfac        ....   1.050
   Max. coefficient     DIISMaxC        ....  10.000
 Newton-Raphson         CNVNR           .... off
 SOSCF                  CNVSOSCF        .... off
 Level Shifting         CNVShift        .... off
 Zerner damping         CNVZerner       .... off
 Static damping         CNVDamp         .... off
 Fernandez-Rico         CNVRico         .... off

SCF Procedure:
 Maximum # iterations   MaxIter         ....   999
 SCF integral mode      SCFMode         .... Direct
   Integral package                     .... LIBINT
 Reset frequeny         DirectResetFreq ....    20
 Integral Threshold     Thresh          ....  1.000e-10 Eh
 Primitive CutOff       TCut            ....  1.000e-11 Eh

Convergence Tolerance:
 Convergence Check Mode ConvCheckMode   .... All-Criteria
 Convergence forced     ConvForced      .... 0
 Energy Change          TolE            ....  1.000e-06 Eh
 Max Density Change     TolMaxP         ....  1.000e-05
 RMS Density Change     TolRMSP         ....  1.000e-06
 DIIS Error             TolErr          ....  1.000e-06


Diagonalization of the overlap matrix:
Smallest eigenvalue                        ... 6.890e-02
Time for diagonalization                   ...    0.001 sec
Threshold for overlap eigenvalues          ... 1.000e-08
Number of eigenvalues below threshold      ... 0
Time for construction of square roots      ...    0.008 sec
Total time needed                          ...    0.009 sec

-------------------
DFT GRID GENERATION
-------------------

General Integration Accuracy     IntAcc      ...  4.340
Radial Grid Type                 RadialGrid  ... Gauss-Chebyshev
Angular Grid (max. acc.)         AngularGrid ... Lebedev-110
Angular grid pruning method      GridPruning ... 3 (G Style)
Weight generation scheme         WeightScheme... Becke
Basis function cutoff            BFCut       ...    1.0000e-10
Integration weight cutoff        WCut        ...    1.0000e-14
Grids for H and He will be reduced by one unit

# of grid points (after initial pruning)     ...   3372 (   0.0 sec)
# of grid points (after weights+screening)   ...   3351 (   0.0 sec)
nearest neighbour list constructed           ...    0.0 sec
Grid point re-assignment to atoms done       ...    0.0 sec
Grid point division into batches done        ...    0.0 sec
Reduced shell lists constructed in    0.0 sec

Total number of grid points                  ...     3351
Total number of batches                      ...       54
Average number of points per batch           ...       62
Average number of grid points per atom       ...     1676
Average number of shells per batch           ...     9.95 (82.88%)
Average number of basis functions per batch  ...    24.27 (86.69%)
Average number of large shells per batch     ...     9.20 (92.50%)
Average number of large basis fcns per batch ...    22.51 (92.73%)
Maximum spatial batch extension              ...  17.59, 25.60, 31.36 au
Average spatial batch extension              ...   5.88,  6.88,  6.79 au

Time for grid setup =    0.029 sec

------------------------------
INITIAL GUESS: MODEL POTENTIAL
------------------------------
Loading Hartree-Fock densities                     ... done
Calculating cut-offs                               ... done
Setting up the integral package                    ... done
Initializing the effective Hamiltonian             ... done
Starting the Coulomb interaction                   ... done (   0.0 sec)
Reading the grid                                   ... done
Mapping shells                                     ... done
Starting the XC term evaluation                    ... done (   0.0 sec)
  promolecular density results
     # of electrons  =     13.999980294
     EX              =    -12.979494606
     EC              =     -0.417100589
     EX+EC           =    -13.396595195
Transforming the Hamiltonian                       ... done (   0.0 sec)
Diagonalizing the Hamiltonian                      ... done (   0.0 sec)
Back transforming the eigenvectors                 ... done (   0.0 sec)
Now organizing SCF variables                       ... done
                      ------------------
                      INITIAL GUESS DONE (   0.1 sec)
                      ------------------
--------------
SCF ITERATIONS
--------------
ITER       Energy         Delta-E        Max-DP      RMS-DP      [F,P]   Gradient Norm
               ***  Starting incremental Fock matrix formation  ***
                             ****Resetting KDIIS****
                             ****Turning on KDIIS(Cayley)****
  0   -112.4746886740   0.000000000000 0.05947240  0.00520577  0.3268706   0.239323738
  1   -112.6049263472  -0.130237673274 0.06747066  0.00712156  0.2889663   0.195919364
  2   -112.7737934607  -0.168867113449 0.11716513  0.01536262  0.2166058   0.139845987
  3   -112.9490991092  -0.175305648494 0.03309064  0.00334039  0.0208493   0.018390805
  4   -112.9478545311   0.001244578099 0.00253965  0.00028384  0.0326722   0.019418737
  5   -112.9473273385   0.000527192550 0.03083942  0.00325266  0.0345546   0.020532808
  6   -112.9517247398  -0.004397401254 0.00572389  0.00080319  0.0094315   0.006334450
  7   -112.9519578459  -0.000233106097 0.00745422  0.00098089  0.0091047   0.005789225
  8   -112.9522887699  -0.000330924005 0.00185444  0.00019608  0.0006699   0.000470568
  9   -112.9523009550  -0.000012185082 0.00304783  0.00029383  0.0004016   0.000259963
 10   -112.9523069179  -0.000005962941 0.00028024  0.00002823  0.0000667   0.000080149
                          ***Energy convergence achieved***
 11   -112.9523070284  -0.000000110457 0.00002255  0.00000277  0.0000166   0.000017646

            ***Energy convergence in two consecutive cycles with***
                    ***'reasonable' density convergence***
                       *** signaling convergence ***

                    *** KDIIS BlockDiag ( 0.000 sec) ***

               *****************************************************
               *                     SUCCESS                       *
               *           SCF CONVERGED AFTER  12 CYCLES          *
               *****************************************************

Setting up the final grid:

General Integration Accuracy     IntAcc      ...  4.670
Radial Grid Type                 RadialGrid  ... Gauss-Chebyshev
Angular Grid (max. acc.)         AngularGrid ... Lebedev-302
Angular grid pruning method      GridPruning ... 3 (G Style)
Weight generation scheme         WeightScheme... Becke
Basis function cutoff            BFCut       ...    1.0000e-10
Integration weight cutoff        WCut        ...    1.0000e-14
Grids for H and He will be reduced by one unit

# of grid points (after initial pruning)     ...  12424 (   0.0 sec)
# of grid points (after weights+screening)   ...  12400 (   0.0 sec)
nearest neighbour list constructed           ...    0.0 sec
Grid point re-assignment to atoms done       ...    0.0 sec
Grid point division into batches done        ...    0.0 sec
Reduced shell lists constructed in    0.1 sec

Total number of grid points                  ...    12400
Total number of batches                      ...      195
Average number of points per batch           ...       63
Average number of grid points per atom       ...     6200
Average number of shells per batch           ...     9.00 (75.00%)
Average number of basis functions per batch  ...    21.98 (78.50%)
Average number of large shells per batch     ...     8.17 (90.76%)
Average number of large basis fcns per batch ...    20.13 (91.57%)
Maximum spatial batch extension              ...  18.86, 20.64, 19.94 au
Average spatial batch extension              ...   3.94,  4.40,  4.32 au

Final grid set up in    0.1 sec
Final integration                            ... done (   0.1 sec)
Change in XC energy                          ...    -0.000784099
Integrated number of electrons               ...    14.000002844
Previous integrated no of electrons          ...    13.999901513

----------------
TOTAL SCF ENERGY
----------------

Total Energy       :         -112.95309113 Eh           -3073.60987 eV

Components:
Nuclear Repulsion  :           13.75223717 Eh             374.21740 eV
Electronic Energy  :         -126.70532830 Eh           -3447.82727 eV
One Electron Energy:         -181.22523476 Eh           -4931.38934 eV
Two Electron Energy:           54.51990645 Eh            1483.56208 eV

Virial components:
Potential Energy   :         -224.48400038 Eh           -6108.52020 eV
Kinetic Energy     :          111.53090925 Eh            3034.91033 eV
Virial Ratio       :            2.01275146


DFT components:
N(Alpha)           :        7.000001421861 electrons
N(Beta)            :        7.000001421861 electrons
N(Total)           :       14.000002843721 electrons
E(XC)              :       -9.464159337083 Eh       

---------------
SCF CONVERGENCE
---------------

  Last Energy change         ...   -3.0429e-09  Tolerance :   1.0000e-06
  Last MAX-Density change    ...    1.8247e-05  Tolerance :   1.0000e-05
  Last RMS-Density change    ...    1.6887e-06  Tolerance :   1.0000e-06
  Last DIIS Error            ...    5.9515e-06  Tolerance :   1.0000e-06

             **** THE GBW FILE WAS UPDATED (Scan_16.gbw) ****
             **** DENSITY FILE WAS UPDATED (Scan_16.scfp.tmp) ****
             **** ENERGY FILE WAS UPDATED (Scan_16.en.tmp) ****
----------------
ORBITAL ENERGIES
----------------

  NO   OCC          E(Eh)            E(eV) 
   0   2.0000     -19.333184      -526.0827 
   1   2.0000     -10.553208      -287.1674 
   2   2.0000      -1.021048       -27.7841 
   3   2.0000      -0.711303       -19.3555 
   4   2.0000      -0.444718       -12.1014 
   5   2.0000      -0.408507       -11.1160 
   6   2.0000      -0.408507       -11.1160 
   7   0.0000      -0.089312        -2.4303 
   8   0.0000      -0.089312        -2.4303 
   9   0.0000       0.034406         0.9362 
  10   0.0000       0.591267        16.0892 
  11   0.0000       0.598481        16.2855 
  12   0.0000       0.598481        16.2855 
  13   0.0000       0.688834        18.7441 
  14   0.0000       1.011873        27.5345 
  15   0.0000       1.011873        27.5345 
  16   0.0000       1.061168        28.8759 
  17   0.0000       1.326253        36.0892 
  18   0.0000       1.629073        44.3293 
  19   0.0000       1.629073        44.3293 
  20   0.0000       1.686545        45.8932 
  21   0.0000       1.687409        45.9167 
  22   0.0000       1.687476        45.9186 
  23   0.0000       1.912930        52.0535 
  24   0.0000       1.913733        52.0753 
  25   0.0000       2.045432        55.6590 
  26   0.0000       2.045432        55.6590 
  27   0.0000       2.546483        69.2933 

                    ********************************
                    * MULLIKEN POPULATION ANALYSIS *
                    ********************************

-----------------------
MULLIKEN ATOMIC CHARGES
-----------------------
   0 C :    0.341626
   1 O :   -0.341626
Sum of atomic charges:    0.0000000

--------------------------------
MULLIKEN REDUCED ORBITAL CHARGES
--------------------------------
  0 C s       :     3.934825  s :     3.934825
      pz      :     0.437823  p :     1.714938
      px      :     0.839292
      py      :     0.437823
      dz2     :     0.001206  d :     0.008611
      dxz     :     0.001893
      dyz     :     0.000000
      dx2y2   :     0.003618
      dxy     :     0.001893
  1 O s       :     3.984620  s :     3.984620
      pz      :     1.558910  p :     4.349624
      px      :     1.231803
      py      :     1.558910
      dz2     :     0.001159  d :     0.007382
      dxz     :     0.001373
      dyz     :     0.000000
      dx2y2   :     0.003476
      dxy     :     0.001373


                     *******************************
                     * LOEWDIN POPULATION ANALYSIS *
                     *******************************

----------------------
LOEWDIN ATOMIC CHARGES
----------------------
   0 C :    0.286683
   1 O :   -0.286683

-------------------------------
LOEWDIN REDUCED ORBITAL CHARGES
-------------------------------
  0 C s       :     3.895544  s :     3.895544
      pz      :     0.443440  p :     1.804146
      px      :     0.917266
      py      :     0.443440
      dz2     :     0.002212  d :     0.013627
      dxz     :     0.002390
      dyz     :     0.000000
      dx2y2   :     0.006635
      dxy     :     0.002390
  1 O s       :     3.907894  s :     3.907894
      pz      :     1.552712  p :     4.368170
      px      :     1.262746
      py      :     1.552712
      dz2     :     0.001926  d :     0.010619
      dxz     :     0.001457
      dyz     :     0.000000
      dx2y2   :     0.005778
      dxy     :     0.001457


                      *****************************
                      * MAYER POPULATION ANALYSIS *
                      *****************************

  NA   - Mulliken gross atomic population
  ZA   - Total nuclear charge
  QA   - Mulliken gross atomic charge
  VA   - Mayer's total valence
  BVA  - Mayer's bonded valence
  FA   - Mayer's free valence

  ATOM       NA         ZA         QA         VA         BVA        FA
  0 C      5.6584     6.0000     0.3416     2.3002     2.3002     0.0000
  1 O      8.3416     8.0000    -0.3416     2.3002     2.3002    -0.0000

  Mayer bond orders larger than 0.1
B(  0-C ,  1-O ) :   2.3002 

-------
TIMINGS
-------

Total SCF time: 0 days 0 hours 0 min 3 sec 

Total time                  ....       3.945 sec
Sum of individual times     ....       3.770 sec  ( 95.6%)

Fock matrix formation       ....       3.507 sec  ( 88.9%)
  XC integration            ....       0.672 sec  ( 19.2% of F)
    Basis function eval.    ....       0.144 sec  ( 21.4% of XC)
    Density eval.           ....       0.029 sec  (  4.3% of XC)
    XC-Functional eval.     ....       0.159 sec  ( 23.7% of XC)
    XC-Potential eval.      ....       0.021 sec  (  3.2% of XC)
Diagonalization             ....       0.017 sec  (  0.4%)
Density matrix formation    ....       0.000 sec  (  0.0%)
Population analysis         ....       0.009 sec  (  0.2%)
Initial guess               ....       0.105 sec  (  2.7%)
Orbital Transformation      ....       0.000 sec  (  0.0%)
Orbital Orthonormalization  ....       0.000 sec  (  0.0%)
DIIS solution               ....       0.000 sec  (  0.0%)
Grid generation             ....       0.132 sec  (  3.4%)


-------------------------------------------------------------------------------
                          DFT DISPERSION CORRECTION                            
                                                                               
                              DFTD3 V3.1  Rev 1                                
                              USING zero damping                               
-------------------------------------------------------------------------------
The omegaB97X-D3 functional is recognized. Fit by Chai et al.
Active option DFTDOPT                   ...         3   

molecular C6(AA) [au] = 109.580774 


            DFT-D V3
 parameters
 s6 scaling factor         :     1.0000 
 rs6 scaling factor        :     1.2810 
 s8 scaling factor         :     1.0000 
 rs8 scaling factor        :     1.0940 
 Damping factor alpha6     :    14.0000 
 Damping factor alpha8     :    16.0000 
 ad hoc parameters k1-k3   :    16.0000     1.3333    -4.0000 

 Edisp/kcal,au: -0.003835409364  -0.000006112113 
 E6   /kcal   :  -0.000436049 
 E8   /kcal   :  -0.003399360 
 % E8         :  88.630962089 

-------------------------   ----------------
Dispersion correction           -0.000006112
-------------------------   ----------------


-------------------------   --------------------
FINAL SINGLE POINT ENERGY      -112.953097242518
-------------------------   --------------------


                            ***************************************
                            *     ORCA property calculations      *
                            ***************************************

                                    ---------------------
                                    Active property flags
                                    ---------------------
   (+) Dipole Moment


------------------------------------------------------------------------------
                       ORCA ELECTRIC PROPERTIES CALCULATION
------------------------------------------------------------------------------

Dipole Moment Calculation                       ... on
Quadrupole Moment Calculation                   ... off
Polarizability Calculation                      ... off
GBWName                                         ... Scan_16.gbw
Electron density file                           ... Scan_16.scfp.tmp

-------------
DIPOLE MOMENT
-------------
                                X             Y             Z
Electronic contribution:     -0.88718       0.00000      -0.00000
Nuclear contribution   :      0.01171      -0.00000       0.00000
                        -----------------------------------------
Total Dipole Moment    :     -0.87546       0.00000      -0.00000
                        -----------------------------------------
Magnitude (a.u.)       :      0.87546
Magnitude (Debye)      :      2.22525


Timings for individual modules:

Sum of individual times         ...        4.276 sec (=   0.071 min)
GTO integral calculation        ...        0.306 sec (=   0.005 min)   7.2 %
SCF iterations                  ...        3.970 sec (=   0.066 min)  92.8 %
                             ****ORCA TERMINATED NORMALLY****
TOTAL RUN TIME: 0 days 0 hours 0 minutes 4 seconds 624 msec
