
                                 *****************
                                 * O   R   C   A *
                                 *****************

           --- An Ab Initio, DFT and Semiempirical electronic structure package ---

                  #######################################################
                  #                        -***-                        #
                  #  Department of molecular theory and spectroscopy    #
                  #              Directorship: Frank Neese              #
                  # Max Planck Institute for Chemical Energy Conversion #
                  #                  D-45470 Muelheim/Ruhr              #
                  #                       Germany                       #
                  #                                                     #
                  #                  All rights reserved                #
                  #                        -***-                        #
                  #######################################################


                         Program Version 4.0.0.2 - RELEASE -


 With contributions from (in alphabetic order):
   Daniel Aravena         : Magnetic Properties
   Michael Atanasov       : Ab Initio Ligand Field Theory
   Ute Becker             : Parallelization
   Martin Brehm           : Molecular dynamics
   Dmytro Bykov           : SCF Hessian
   Vijay G. Chilkuri      : MRCI spin determinant printing
   Dipayan Datta          : RHF DLPNO-CCSD density
   Achintya Kumar Dutta   : EOM-CC, STEOM-CC
   Dmitry Ganyushin       : Spin-Orbit,Spin-Spin,Magnetic field MRCI
   Yang Guo               : DLPNO-NEVPT2, CIM, IAO-localization
   Andreas Hansen         : Spin unrestricted coupled pair/coupled cluster methods
   Lee Huntington         : MR-EOM, pCC
   Robert Izsak           : Overlap fitted RIJCOSX, COSX-SCS-MP3, EOM
   Christian Kollmar      : KDIIS, OOCD, Brueckner-CCSD(T), CCSD density
   Simone Kossmann        : Meta GGA functionals, TD-DFT gradient, OOMP2, MP2 Hessian
   Martin Krupicka        : AUTO-CI
   Dagmar Lenk            : GEPOL surface
   Dimitrios Liakos       : Extrapolation schemes; parallel MDCI
   Dimitrios Manganas     : ROCIS; embedding schemes
   Dimitrios Pantazis     : SARC Basis sets
   Taras Petrenko         : DFT Hessian,TD-DFT gradient, ASA, ECA, R-Raman, ABS, FL, XAS/XES, NRVS
   Peter Pinski           : DLPNO-MP2
   Christoph Reimann      : Effective Core Potentials
   Marius Retegan         : Local ZFS, SOC
   Christoph Riplinger    : Optimizer, TS searches, QM/MM, DLPNO-CCSD(T), (RO)-DLPNO pert. Triples
   Tobias Risthaus        : Range-separated hybrids, TD-DFT gradient, RPA, STAB
   Michael Roemelt        : Restricted open shell CIS
   Masaaki Saitow         : Open-shell DLPNO
   Barbara Sandhoefer     : DKH picture change effects
   Kantharuban Sivalingam : CASSCF convergence, NEVPT2, FIC-MRCI
   Georgi Stoychev        : AutoAux
   Boris Wezisla          : Elementary symmetry handling
   Frank Wennmohs         : Technical directorship


 We gratefully acknowledge several colleagues who have allowed us to
 interface, adapt or use parts of their codes:
   Stefan Grimme, W. Hujo, H. Kruse,             : VdW corrections, initial TS optimization,
                  C. Bannwarth                     DFT functionals, gCP, sTDA/sTD-DF
   Ed Valeev                                     : LibInt (2-el integral package), F12 methods
   Garnet Chan, S. Sharma, J. Yang, R. Olivares  : DMRG
   Ulf Ekstrom                                   : XCFun DFT Library
   Mihaly Kallay                                 : mrcc  (arbitrary order and MRCC methods)
   Jiri Pittner, Ondrej Demel                    : Mk-CCSD
   Frank Weinhold                                : gennbo (NPA and NBO analysis)
   Christopher J. Cramer and Donald G. Truhlar   : smd solvation model


 Your calculation uses the libint2 library for the computation of 2-el integrals
 For citations please refer to: http://libint.valeyev.net

 This ORCA versions uses:
   CBLAS   interface :  Fast vector & matrix operations
   LAPACKE interface :  Fast linear algebra routines
   SCALAPACK package :  Parallel linear algebra routines


Your calculation utilizes the atom-pairwise dispersion correction
with the zero-damping scheme (D30)
Cite in your paper:
S.Grimme, J.Antony, S.Ehrlich and H.Krieg, J.Chem.Phys., 132, (2010), 154104 
   

XCFun DFT library Copyright 2009-2010 Ulf Ekstrom and contributors.
See http://admol.org/xcfun for more information. This is free soft-
ware; see the source code for copying conditions. There is ABSOLUTELY
NO WARRANTY; not even for MERCHANTABILITY or FITNESS FOR A PARTICULAR
PURPOSE. For details see the documentation. Scientific users of this 
library should cite U. Ekstrom, L. Visscher, R. Bast, A. J. Thorvald-
sen and K. Ruud; J.Chem.Theor.Comp. 2010, DOI: 10.1021/ct100117s
XCFun Version 0.99 
Your calculation utilizes the basis: 6-31G(d)
   H-He, Li-Ne : W. J. Hehre, R. Ditchfield and J.A. Pople, J. Chem. Phys. 56, 2257 (1972).
                 Note: He and Ne are unpublished basis sets taken from the Gaussian program.
                 Note: Li and B from J. D. Dill and J. A. Pople, J. Chem. Phys. 62, 2921 (1975).
   Na - Ar     : M. M. Francl, W. J. Pietro, W. J. Hehre, J. S. Binkley, M. S. Gordon, 
                 D. J. DeFrees and J. A. Pople, J. Chem. Phys. 77, 3654 (1982).
   K - Zn      : V. A. Rassolov, J. A. Pople, M. A. Ratner, and T. L. Windus, J. Chem. Phys. 109, 1223 (1998).

================================================================================
                                        WARNINGS
                       Please study these warnings very carefully!
================================================================================

Warning: TCutStore was < 0. Adjusted to Thresh (uncritical)

INFO   : the flag for use of LIBINT has been found!

================================================================================
                                       INPUT FILE
================================================================================
NAME = initial17.inp
|  1> ! WB97X-D3 6-31G(d) VerySlowConv
|  2> ! KDIIS NOSOSCF
|  3> %base "Scan_17"
|  4> 
|  5> %scf
|  6> maxiter 999
|  7> end
|  8> 
|  9> * xyz 0 1
| 10> C         -1.124896706371    1.613610000000   -0.000000000000
| 11> O          0.865856706371    1.613610000000    0.000000000000
| 12> **                         ****END OF INPUT****
================================================================================

                       ****************************
                       * Single Point Calculation *
                       ****************************

---------------------------------
CARTESIAN COORDINATES (ANGSTROEM)
---------------------------------
  C     -1.124897    1.613610   -0.000000
  O      0.865857    1.613610    0.000000

----------------------------
CARTESIAN COORDINATES (A.U.)
----------------------------
  NO LB      ZA    FRAG     MASS         X           Y           Z
   0 C     6.0000    0    12.011   -2.125747    3.049281   -0.000000
   1 O     8.0000    0    15.999    1.636232    3.049281    0.000000

--------------------------------
INTERNAL COORDINATES (ANGSTROEM)
--------------------------------
 C      0   0   0     0.000000000000     0.00000000     0.00000000
 O      1   0   0     1.990753412742     0.00000000     0.00000000

---------------------------
INTERNAL COORDINATES (A.U.)
---------------------------
 C      0   0   0     0.000000000000     0.00000000     0.00000000
 O      1   0   0     3.761978750251     0.00000000     0.00000000

---------------------
BASIS SET INFORMATION
---------------------
There are 2 groups of distinct atoms

 Group   1 Type C   : 10s4p1d contracted to 3s2p1d pattern {631/31/1}
 Group   2 Type O   : 10s4p1d contracted to 3s2p1d pattern {631/31/1}

Atom   0C    basis set group =>   1
Atom   1O    basis set group =>   2
------------------------------------------------------------------------------
                           ORCA GTO INTEGRAL CALCULATION
------------------------------------------------------------------------------

                         BASIS SET STATISTICS AND STARTUP INFO

 # of primitive gaussian shells          ...   30
 # of primitive gaussian functions       ...   54
 # of contracted shells                  ...   12
 # of contracted basis functions         ...   28
 Highest angular momentum                ...    2
 Maximum contraction depth               ...    6
 Integral package used                   ... LIBINT
 Integral threshhold            Thresh   ...  1.000e-10
 Primitive cut-off              TCut     ...  1.000e-11


------------------------------ INTEGRAL EVALUATION ----------------------------


 * One electron integrals 
 Pre-screening matrix                    ... done
 Shell pair data                         ... done (   0.000 sec)

-------------------------------------------------------------------------------
                                 ORCA SCF
-------------------------------------------------------------------------------

------------
SCF SETTINGS
------------
Hamiltonian:
 Density Functional     Method          .... DFT(GTOs)
 Exchange Functional    Exchange        .... WB97X-D3
 Correlation Functional Correlation     .... WB97X-D3
 Gradients option       PostSCFGGA      .... off
 Hybrid DFT is turned on
   Fraction HF Exchange ScalHFX         ....  0.195728
   Scaling of DF-GGA-X  ScalDFX         ....  0.000000
   Scaling of DF-GGA-C  ScalDFC         ....  1.000000
   Scaling of DF-LDA-C  ScalLDAC        ....  1.000000
   Perturbative correction              ....  0.000000
 Long-range corrected/Screened/Range-Separated Hybrid DFT is turned on
   Amount of maximum screened exact exchange              ....  0.804272
   Range separation parameter mu (erf(mu*r12)/r12)        ....  0.250000


General Settings:
 Integral files         IntName         .... Scan_17
 Hartree-Fock type      HFTyp           .... RHF
 Total Charge           Charge          ....    0
 Multiplicity           Mult            ....    1
 Number of Electrons    NEL             ....   14
 Basis Dimension        Dim             ....   28
 Nuclear Repulsion      ENuc            ....     12.7592427248 Eh

Convergence Acceleration:
 DIIS                   CNVDIIS         .... on
   Start iteration      DIISMaxIt       ....     0
   Startup error        DIISStart       ....  0.200000
   # of expansion vecs  DIISMaxEq       ....     5
   Bias factor          DIISBfac        ....   1.050
   Max. coefficient     DIISMaxC        ....  10.000
 Newton-Raphson         CNVNR           .... off
 SOSCF                  CNVSOSCF        .... off
 Level Shifting         CNVShift        .... off
 Zerner damping         CNVZerner       .... off
 Static damping         CNVDamp         .... off
 Fernandez-Rico         CNVRico         .... off

SCF Procedure:
 Maximum # iterations   MaxIter         ....   999
 SCF integral mode      SCFMode         .... Direct
   Integral package                     .... LIBINT
 Reset frequeny         DirectResetFreq ....    20
 Integral Threshold     Thresh          ....  1.000e-10 Eh
 Primitive CutOff       TCut            ....  1.000e-11 Eh

Convergence Tolerance:
 Convergence Check Mode ConvCheckMode   .... All-Criteria
 Convergence forced     ConvForced      .... 0
 Energy Change          TolE            ....  1.000e-06 Eh
 Max Density Change     TolMaxP         ....  1.000e-05
 RMS Density Change     TolRMSP         ....  1.000e-06
 DIIS Error             TolErr          ....  1.000e-06


Diagonalization of the overlap matrix:
Smallest eigenvalue                        ... 8.542e-02
Time for diagonalization                   ...    0.001 sec
Threshold for overlap eigenvalues          ... 1.000e-08
Number of eigenvalues below threshold      ... 0
Time for construction of square roots      ...    0.007 sec
Total time needed                          ...    0.007 sec

-------------------
DFT GRID GENERATION
-------------------

General Integration Accuracy     IntAcc      ...  4.340
Radial Grid Type                 RadialGrid  ... Gauss-Chebyshev
Angular Grid (max. acc.)         AngularGrid ... Lebedev-110
Angular grid pruning method      GridPruning ... 3 (G Style)
Weight generation scheme         WeightScheme... Becke
Basis function cutoff            BFCut       ...    1.0000e-10
Integration weight cutoff        WCut        ...    1.0000e-14
Grids for H and He will be reduced by one unit

# of grid points (after initial pruning)     ...   3372 (   0.0 sec)
# of grid points (after weights+screening)   ...   3352 (   0.0 sec)
nearest neighbour list constructed           ...    0.0 sec
Grid point re-assignment to atoms done       ...    0.0 sec
Grid point division into batches done        ...    0.0 sec
Reduced shell lists constructed in    0.0 sec

Total number of grid points                  ...     3352
Total number of batches                      ...       53
Average number of points per batch           ...       63
Average number of grid points per atom       ...     1676
Average number of shells per batch           ...     9.81 (81.79%)
Average number of basis functions per batch  ...    24.07 (85.98%)
Average number of large shells per batch     ...     9.02 (91.89%)
Average number of large basis fcns per batch ...    22.06 (91.62%)
Maximum spatial batch extension              ...  17.50, 25.60, 31.36 au
Average spatial batch extension              ...   5.97,  7.36,  7.34 au

Time for grid setup =    0.022 sec

------------------------------
INITIAL GUESS: MODEL POTENTIAL
------------------------------
Loading Hartree-Fock densities                     ... done
Calculating cut-offs                               ... done
Setting up the integral package                    ... done
Initializing the effective Hamiltonian             ... done
Starting the Coulomb interaction                   ... done (   0.0 sec)
Reading the grid                                   ... done
Mapping shells                                     ... done
Starting the XC term evaluation                    ... done (   0.0 sec)
  promolecular density results
     # of electrons  =     13.999876055
     EX              =    -12.967336477
     EC              =     -0.413589226
     EX+EC           =    -13.380925704
Transforming the Hamiltonian                       ... done (   0.0 sec)
Diagonalizing the Hamiltonian                      ... done (   0.0 sec)
Back transforming the eigenvectors                 ... done (   0.0 sec)
Now organizing SCF variables                       ... done
                      ------------------
                      INITIAL GUESS DONE (   0.1 sec)
                      ------------------
--------------
SCF ITERATIONS
--------------
ITER       Energy         Delta-E        Max-DP      RMS-DP      [F,P]   Gradient Norm
               ***  Starting incremental Fock matrix formation  ***
                             ****Resetting KDIIS****
                             ****Turning on KDIIS(Cayley)****
  0   -112.2576698527   0.000000000000 0.07105681  0.00641201  0.3734413   0.262290861
  1   -112.4107393579  -0.153069505193 0.07040954  0.00777094  0.3370116   0.215709748
  2   -112.6057097541  -0.194970396192 0.11557005  0.01315046  0.2730882   0.162864832
  3   -112.8391244822  -0.233414728153 0.19779578  0.02815419  0.1107513   0.061057316
  4   -112.4662404576   0.372884024665 0.20057363  0.02440543  0.3435990   0.276061779
  5   -112.8645184494  -0.398277991876 0.03321454  0.00455157  0.0656962   0.045686367
  6   -112.8786853995  -0.014166950025 0.01928007  0.00212868  0.0401038   0.029604911
  7   -112.8835850813  -0.004899681819 0.04573061  0.00571611  0.0317861   0.025630092
  8   -112.8928600797  -0.009274998420 0.02206732  0.00193272  0.0164711   0.008319747
  9   -112.8939445010  -0.001084421314 0.00825920  0.00076275  0.0034953   0.001644274
 10   -112.8940288380  -0.000084336963 0.00351661  0.00028558  0.0011113   0.000924901
 11   -112.8940487049  -0.000019866907 0.00463375  0.00039660  0.0006463   0.000490881
 12   -112.8940591910  -0.000010486101 0.00016740  0.00002379  0.0000921   0.000117071
                          ***Energy convergence achieved***
 13   -112.8940593268  -0.000000135847 0.00007396  0.00000869  0.0000332   0.000033913

            ***Energy convergence in two consecutive cycles with***
                    ***'reasonable' density convergence***
                       *** signaling convergence ***

                    *** KDIIS BlockDiag ( 0.000 sec) ***

               *****************************************************
               *                     SUCCESS                       *
               *           SCF CONVERGED AFTER  14 CYCLES          *
               *****************************************************

Setting up the final grid:

General Integration Accuracy     IntAcc      ...  4.670
Radial Grid Type                 RadialGrid  ... Gauss-Chebyshev
Angular Grid (max. acc.)         AngularGrid ... Lebedev-302
Angular grid pruning method      GridPruning ... 3 (G Style)
Weight generation scheme         WeightScheme... Becke
Basis function cutoff            BFCut       ...    1.0000e-10
Integration weight cutoff        WCut        ...    1.0000e-14
Grids for H and He will be reduced by one unit

# of grid points (after initial pruning)     ...  12424 (   0.0 sec)
# of grid points (after weights+screening)   ...  12401 (   0.0 sec)
nearest neighbour list constructed           ...    0.0 sec
Grid point re-assignment to atoms done       ...    0.0 sec
Grid point division into batches done        ...    0.0 sec
Reduced shell lists constructed in    0.1 sec

Total number of grid points                  ...    12401
Total number of batches                      ...      195
Average number of points per batch           ...       63
Average number of grid points per atom       ...     6200
Average number of shells per batch           ...     8.94 (74.53%)
Average number of basis functions per batch  ...    21.96 (78.44%)
Average number of large shells per batch     ...     8.00 (89.45%)
Average number of large basis fcns per batch ...    19.73 (89.85%)
Maximum spatial batch extension              ...  18.86, 20.64, 19.94 au
Average spatial batch extension              ...   3.92,  4.43,  4.36 au

Final grid set up in    0.1 sec
Final integration                            ... done (   0.1 sec)
Change in XC energy                          ...    -0.000766976
Integrated number of electrons               ...    13.999993975
Previous integrated no of electrons          ...    13.999677676

----------------
TOTAL SCF ENERGY
----------------

Total Energy       :         -112.89482632 Eh           -3072.02440 eV

Components:
Nuclear Repulsion  :           12.75924272 Eh             347.19665 eV
Electronic Energy  :         -125.65406904 Eh           -3419.22105 eV
One Electron Energy:         -179.25000567 Eh           -4877.64063 eV
Two Electron Energy:           53.59593663 Eh            1458.41958 eV

Virial components:
Potential Energy   :         -224.42846462 Eh           -6107.00900 eV
Kinetic Energy     :          111.53363831 Eh            3034.98459 eV
Virial Ratio       :            2.01220428


DFT components:
N(Alpha)           :        6.999996987506 electrons
N(Beta)            :        6.999996987506 electrons
N(Total)           :       13.999993975013 electrons
E(XC)              :       -9.448039359555 Eh       

---------------
SCF CONVERGENCE
---------------

  Last Energy change         ...   -1.2896e-08  Tolerance :   1.0000e-06
  Last MAX-Density change    ...    9.2490e-05  Tolerance :   1.0000e-05
  Last RMS-Density change    ...    9.7103e-06  Tolerance :   1.0000e-06
  Last DIIS Error            ...    3.4570e-05  Tolerance :   1.0000e-06

             **** THE GBW FILE WAS UPDATED (Scan_17.gbw) ****
             **** DENSITY FILE WAS UPDATED (Scan_17.scfp.tmp) ****
             **** ENERGY FILE WAS UPDATED (Scan_17.en.tmp) ****
----------------
ORBITAL ENERGIES
----------------

  NO   OCC          E(Eh)            E(eV) 
   0   2.0000     -19.324780      -525.8540 
   1   2.0000     -10.564329      -287.4700 
   2   2.0000      -1.001155       -27.2428 
   3   2.0000      -0.719267       -19.5722 
   4   2.0000      -0.428034       -11.6474 
   5   2.0000      -0.391998       -10.6668 
   6   2.0000      -0.391998       -10.6668 
   7   0.0000      -0.103595        -2.8190 
   8   0.0000      -0.103595        -2.8190 
   9   0.0000      -0.008033        -0.2186 
  10   0.0000       0.590156        16.0590 
  11   0.0000       0.590156        16.0590 
  12   0.0000       0.592362        16.1190 
  13   0.0000       0.704717        19.1763 
  14   0.0000       1.016464        27.6594 
  15   0.0000       1.016464        27.6594 
  16   0.0000       1.063102        28.9285 
  17   0.0000       1.270775        34.5795 
  18   0.0000       1.665450        45.3192 
  19   0.0000       1.665450        45.3192 
  20   0.0000       1.681459        45.7548 
  21   0.0000       1.682117        45.7727 
  22   0.0000       1.684884        45.8480 
  23   0.0000       1.922229        52.3065 
  24   0.0000       1.922655        52.3181 
  25   0.0000       1.982998        53.9601 
  26   0.0000       1.982998        53.9601 
  27   0.0000       2.392811        65.1117 

                    ********************************
                    * MULLIKEN POPULATION ANALYSIS *
                    ********************************

-----------------------
MULLIKEN ATOMIC CHARGES
-----------------------
   0 C :    0.326180
   1 O :   -0.326180
Sum of atomic charges:   -0.0000000

--------------------------------
MULLIKEN REDUCED ORBITAL CHARGES
--------------------------------
  0 C s       :     3.955449  s :     3.955449
      pz      :     0.413373  p :     1.713487
      px      :     0.886741
      py      :     0.413373
      dz2     :     0.000687  d :     0.004883
      dxz     :     0.001068
      dyz     :     0.000000
      dx2y2   :     0.002060
      dxy     :     0.001068
  1 O s       :     3.988332  s :     3.988332
      pz      :     1.584789  p :     4.333115
      px      :     1.163537
      py      :     1.584789
      dz2     :     0.000799  d :     0.004734
      dxz     :     0.000770
      dyz     :     0.000000
      dx2y2   :     0.002396
      dxy     :     0.000770


                     *******************************
                     * LOEWDIN POPULATION ANALYSIS *
                     *******************************

----------------------
LOEWDIN ATOMIC CHARGES
----------------------
   0 C :    0.292776
   1 O :   -0.292776

-------------------------------
LOEWDIN REDUCED ORBITAL CHARGES
-------------------------------
  0 C s       :     3.929236  s :     3.929236
      pz      :     0.417122  p :     1.770724
      px      :     0.936480
      py      :     0.417122
      dz2     :     0.001171  d :     0.007264
      dxz     :     0.001290
      dyz     :     0.000000
      dx2y2   :     0.003513
      dxy     :     0.001290
  1 O s       :     3.938141  s :     3.938141
      pz      :     1.580770  p :     4.347951
      px      :     1.186411
      py      :     1.580770
      dz2     :     0.001262  d :     0.006684
      dxz     :     0.000817
      dyz     :     0.000000
      dx2y2   :     0.003787
      dxy     :     0.000817


                      *****************************
                      * MAYER POPULATION ANALYSIS *
                      *****************************

  NA   - Mulliken gross atomic population
  ZA   - Total nuclear charge
  QA   - Mulliken gross atomic charge
  VA   - Mayer's total valence
  BVA  - Mayer's bonded valence
  FA   - Mayer's free valence

  ATOM       NA         ZA         QA         VA         BVA        FA
  0 C      5.6738     6.0000     0.3262     2.2772     2.2772     0.0000
  1 O      8.3262     8.0000    -0.3262     2.2772     2.2772    -0.0000

  Mayer bond orders larger than 0.1
B(  0-C ,  1-O ) :   2.2772 

-------
TIMINGS
-------

Total SCF time: 0 days 0 hours 0 min 4 sec 

Total time                  ....       4.571 sec
Sum of individual times     ....       4.362 sec  ( 95.4%)

Fock matrix formation       ....       4.115 sec  ( 90.0%)
  XC integration            ....       0.792 sec  ( 19.2% of F)
    Basis function eval.    ....       0.161 sec  ( 20.3% of XC)
    Density eval.           ....       0.032 sec  (  4.1% of XC)
    XC-Functional eval.     ....       0.182 sec  ( 23.0% of XC)
    XC-Potential eval.      ....       0.024 sec  (  3.0% of XC)
Diagonalization             ....       0.007 sec  (  0.2%)
Density matrix formation    ....       0.000 sec  (  0.0%)
Population analysis         ....       0.010 sec  (  0.2%)
Initial guess               ....       0.107 sec  (  2.4%)
Orbital Transformation      ....       0.000 sec  (  0.0%)
Orbital Orthonormalization  ....       0.000 sec  (  0.0%)
DIIS solution               ....       0.000 sec  (  0.0%)
Grid generation             ....       0.123 sec  (  2.7%)


-------------------------------------------------------------------------------
                          DFT DISPERSION CORRECTION                            
                                                                               
                              DFTD3 V3.1  Rev 1                                
                              USING zero damping                               
-------------------------------------------------------------------------------
The omegaB97X-D3 functional is recognized. Fit by Chai et al.
Active option DFTDOPT                   ...         3   

molecular C6(AA) [au] = 115.907325 


            DFT-D V3
 parameters
 s6 scaling factor         :     1.0000 
 rs6 scaling factor        :     1.2810 
 s8 scaling factor         :     1.0000 
 rs8 scaling factor        :     1.0940 
 Damping factor alpha6     :    14.0000 
 Damping factor alpha8     :    16.0000 
 ad hoc parameters k1-k3   :    16.0000     1.3333    -4.0000 

 Edisp/kcal,au: -0.007420304345  -0.000011825006 
 E6   /kcal   :  -0.000843894 
 E8   /kcal   :  -0.006576410 
 % E8         :  88.627228113 

-------------------------   ----------------
Dispersion correction           -0.000011825
-------------------------   ----------------


-------------------------   --------------------
FINAL SINGLE POINT ENERGY      -112.894838140834
-------------------------   --------------------


                            ***************************************
                            *     ORCA property calculations      *
                            ***************************************

                                    ---------------------
                                    Active property flags
                                    ---------------------
   (+) Dipole Moment


------------------------------------------------------------------------------
                       ORCA ELECTRIC PROPERTIES CALCULATION
------------------------------------------------------------------------------

Dipole Moment Calculation                       ... on
Quadrupole Moment Calculation                   ... off
Polarizability Calculation                      ... off
GBWName                                         ... Scan_17.gbw
Electron density file                           ... Scan_17.scfp.tmp

-------------
DIPOLE MOMENT
-------------
                                X             Y             Z
Electronic contribution:     -1.01809       0.00000       0.00000
Nuclear contribution   :      0.01262      -0.00000       0.00000
                        -----------------------------------------
Total Dipole Moment    :     -1.00546       0.00000       0.00000
                        -----------------------------------------
Magnitude (a.u.)       :      1.00546
Magnitude (Debye)      :      2.55569


Timings for individual modules:

Sum of individual times         ...        4.907 sec (=   0.082 min)
GTO integral calculation        ...        0.313 sec (=   0.005 min)   6.4 %
SCF iterations                  ...        4.594 sec (=   0.077 min)  93.6 %
                             ****ORCA TERMINATED NORMALLY****
TOTAL RUN TIME: 0 days 0 hours 0 minutes 5 seconds 264 msec
