
                                 *****************
                                 * O   R   C   A *
                                 *****************

           --- An Ab Initio, DFT and Semiempirical electronic structure package ---

                  #######################################################
                  #                        -***-                        #
                  #  Department of molecular theory and spectroscopy    #
                  #              Directorship: Frank Neese              #
                  # Max Planck Institute for Chemical Energy Conversion #
                  #                  D-45470 Muelheim/Ruhr              #
                  #                       Germany                       #
                  #                                                     #
                  #                  All rights reserved                #
                  #                        -***-                        #
                  #######################################################


                         Program Version 4.0.0.2 - RELEASE -


 With contributions from (in alphabetic order):
   Daniel Aravena         : Magnetic Properties
   Michael Atanasov       : Ab Initio Ligand Field Theory
   Ute Becker             : Parallelization
   Martin Brehm           : Molecular dynamics
   Dmytro Bykov           : SCF Hessian
   Vijay G. Chilkuri      : MRCI spin determinant printing
   Dipayan Datta          : RHF DLPNO-CCSD density
   Achintya Kumar Dutta   : EOM-CC, STEOM-CC
   Dmitry Ganyushin       : Spin-Orbit,Spin-Spin,Magnetic field MRCI
   Yang Guo               : DLPNO-NEVPT2, CIM, IAO-localization
   Andreas Hansen         : Spin unrestricted coupled pair/coupled cluster methods
   Lee Huntington         : MR-EOM, pCC
   Robert Izsak           : Overlap fitted RIJCOSX, COSX-SCS-MP3, EOM
   Christian Kollmar      : KDIIS, OOCD, Brueckner-CCSD(T), CCSD density
   Simone Kossmann        : Meta GGA functionals, TD-DFT gradient, OOMP2, MP2 Hessian
   Martin Krupicka        : AUTO-CI
   Dagmar Lenk            : GEPOL surface
   Dimitrios Liakos       : Extrapolation schemes; parallel MDCI
   Dimitrios Manganas     : ROCIS; embedding schemes
   Dimitrios Pantazis     : SARC Basis sets
   Taras Petrenko         : DFT Hessian,TD-DFT gradient, ASA, ECA, R-Raman, ABS, FL, XAS/XES, NRVS
   Peter Pinski           : DLPNO-MP2
   Christoph Reimann      : Effective Core Potentials
   Marius Retegan         : Local ZFS, SOC
   Christoph Riplinger    : Optimizer, TS searches, QM/MM, DLPNO-CCSD(T), (RO)-DLPNO pert. Triples
   Tobias Risthaus        : Range-separated hybrids, TD-DFT gradient, RPA, STAB
   Michael Roemelt        : Restricted open shell CIS
   Masaaki Saitow         : Open-shell DLPNO
   Barbara Sandhoefer     : DKH picture change effects
   Kantharuban Sivalingam : CASSCF convergence, NEVPT2, FIC-MRCI
   Georgi Stoychev        : AutoAux
   Boris Wezisla          : Elementary symmetry handling
   Frank Wennmohs         : Technical directorship


 We gratefully acknowledge several colleagues who have allowed us to
 interface, adapt or use parts of their codes:
   Stefan Grimme, W. Hujo, H. Kruse,             : VdW corrections, initial TS optimization,
                  C. Bannwarth                     DFT functionals, gCP, sTDA/sTD-DF
   Ed Valeev                                     : LibInt (2-el integral package), F12 methods
   Garnet Chan, S. Sharma, J. Yang, R. Olivares  : DMRG
   Ulf Ekstrom                                   : XCFun DFT Library
   Mihaly Kallay                                 : mrcc  (arbitrary order and MRCC methods)
   Jiri Pittner, Ondrej Demel                    : Mk-CCSD
   Frank Weinhold                                : gennbo (NPA and NBO analysis)
   Christopher J. Cramer and Donald G. Truhlar   : smd solvation model


 Your calculation uses the libint2 library for the computation of 2-el integrals
 For citations please refer to: http://libint.valeyev.net

 This ORCA versions uses:
   CBLAS   interface :  Fast vector & matrix operations
   LAPACKE interface :  Fast linear algebra routines
   SCALAPACK package :  Parallel linear algebra routines


Your calculation utilizes the atom-pairwise dispersion correction
with the zero-damping scheme (D30)
Cite in your paper:
S.Grimme, J.Antony, S.Ehrlich and H.Krieg, J.Chem.Phys., 132, (2010), 154104 
   

XCFun DFT library Copyright 2009-2010 Ulf Ekstrom and contributors.
See http://admol.org/xcfun for more information. This is free soft-
ware; see the source code for copying conditions. There is ABSOLUTELY
NO WARRANTY; not even for MERCHANTABILITY or FITNESS FOR A PARTICULAR
PURPOSE. For details see the documentation. Scientific users of this 
library should cite U. Ekstrom, L. Visscher, R. Bast, A. J. Thorvald-
sen and K. Ruud; J.Chem.Theor.Comp. 2010, DOI: 10.1021/ct100117s
XCFun Version 0.99 
Your calculation utilizes the basis: 6-31G(d)
   H-He, Li-Ne : W. J. Hehre, R. Ditchfield and J.A. Pople, J. Chem. Phys. 56, 2257 (1972).
                 Note: He and Ne are unpublished basis sets taken from the Gaussian program.
                 Note: Li and B from J. D. Dill and J. A. Pople, J. Chem. Phys. 62, 2921 (1975).
   Na - Ar     : M. M. Francl, W. J. Pietro, W. J. Hehre, J. S. Binkley, M. S. Gordon, 
                 D. J. DeFrees and J. A. Pople, J. Chem. Phys. 77, 3654 (1982).
   K - Zn      : V. A. Rassolov, J. A. Pople, M. A. Ratner, and T. L. Windus, J. Chem. Phys. 109, 1223 (1998).

================================================================================
                                        WARNINGS
                       Please study these warnings very carefully!
================================================================================

Warning: TCutStore was < 0. Adjusted to Thresh (uncritical)

INFO   : the flag for use of LIBINT has been found!

================================================================================
                                       INPUT FILE
================================================================================
NAME = initial18.inp
|  1> ! WB97X-D3 6-31G(d) VerySlowConv
|  2> ! KDIIS NOSOSCF
|  3> %base "Scan_18"
|  4> 
|  5> %scf
|  6> maxiter 999
|  7> end
|  8> 
|  9> * xyz 0 1
| 10> C         -1.192077378254    1.613610000000   -0.000000000000
| 11> O          0.933037378254    1.613610000000    0.000000000000
| 12> **                         ****END OF INPUT****
================================================================================

                       ****************************
                       * Single Point Calculation *
                       ****************************

---------------------------------
CARTESIAN COORDINATES (ANGSTROEM)
---------------------------------
  C     -1.192077    1.613610   -0.000000
  O      0.933037    1.613610    0.000000

----------------------------
CARTESIAN COORDINATES (A.U.)
----------------------------
  NO LB      ZA    FRAG     MASS         X           Y           Z
   0 C     6.0000    0    12.011   -2.252700    3.049281   -0.000000
   1 O     8.0000    0    15.999    1.763185    3.049281    0.000000

--------------------------------
INTERNAL COORDINATES (ANGSTROEM)
--------------------------------
 C      0   0   0     0.000000000000     0.00000000     0.00000000
 O      1   0   0     2.125114756508     0.00000000     0.00000000

---------------------------
INTERNAL COORDINATES (A.U.)
---------------------------
 C      0   0   0     0.000000000000     0.00000000     0.00000000
 O      1   0   0     4.015884892955     0.00000000     0.00000000

---------------------
BASIS SET INFORMATION
---------------------
There are 2 groups of distinct atoms

 Group   1 Type C   : 10s4p1d contracted to 3s2p1d pattern {631/31/1}
 Group   2 Type O   : 10s4p1d contracted to 3s2p1d pattern {631/31/1}

Atom   0C    basis set group =>   1
Atom   1O    basis set group =>   2
------------------------------------------------------------------------------
                           ORCA GTO INTEGRAL CALCULATION
------------------------------------------------------------------------------

                         BASIS SET STATISTICS AND STARTUP INFO

 # of primitive gaussian shells          ...   30
 # of primitive gaussian functions       ...   54
 # of contracted shells                  ...   12
 # of contracted basis functions         ...   28
 Highest angular momentum                ...    2
 Maximum contraction depth               ...    6
 Integral package used                   ... LIBINT
 Integral threshhold            Thresh   ...  1.000e-10
 Primitive cut-off              TCut     ...  1.000e-11


------------------------------ INTEGRAL EVALUATION ----------------------------


 * One electron integrals 
 Pre-screening matrix                    ... done
 Shell pair data                         ... done (   0.000 sec)

-------------------------------------------------------------------------------
                                 ORCA SCF
-------------------------------------------------------------------------------

------------
SCF SETTINGS
------------
Hamiltonian:
 Density Functional     Method          .... DFT(GTOs)
 Exchange Functional    Exchange        .... WB97X-D3
 Correlation Functional Correlation     .... WB97X-D3
 Gradients option       PostSCFGGA      .... off
 Hybrid DFT is turned on
   Fraction HF Exchange ScalHFX         ....  0.195728
   Scaling of DF-GGA-X  ScalDFX         ....  0.000000
   Scaling of DF-GGA-C  ScalDFC         ....  1.000000
   Scaling of DF-LDA-C  ScalLDAC        ....  1.000000
   Perturbative correction              ....  0.000000
 Long-range corrected/Screened/Range-Separated Hybrid DFT is turned on
   Amount of maximum screened exact exchange              ....  0.804272
   Range separation parameter mu (erf(mu*r12)/r12)        ....  0.250000


General Settings:
 Integral files         IntName         .... Scan_18
 Hartree-Fock type      HFTyp           .... RHF
 Total Charge           Charge          ....    0
 Multiplicity           Mult            ....    1
 Number of Electrons    NEL             ....   14
 Basis Dimension        Dim             ....   28
 Nuclear Repulsion      ENuc            ....     11.9525338199 Eh

Convergence Acceleration:
 DIIS                   CNVDIIS         .... on
   Start iteration      DIISMaxIt       ....     0
   Startup error        DIISStart       ....  0.200000
   # of expansion vecs  DIISMaxEq       ....     5
   Bias factor          DIISBfac        ....   1.050
   Max. coefficient     DIISMaxC        ....  10.000
 Newton-Raphson         CNVNR           .... off
 SOSCF                  CNVSOSCF        .... off
 Level Shifting         CNVShift        .... off
 Zerner damping         CNVZerner       .... off
 Static damping         CNVDamp         .... off
 Fernandez-Rico         CNVRico         .... off

SCF Procedure:
 Maximum # iterations   MaxIter         ....   999
 SCF integral mode      SCFMode         .... Direct
   Integral package                     .... LIBINT
 Reset frequeny         DirectResetFreq ....    20
 Integral Threshold     Thresh          ....  1.000e-10 Eh
 Primitive CutOff       TCut            ....  1.000e-11 Eh

Convergence Tolerance:
 Convergence Check Mode ConvCheckMode   .... All-Criteria
 Convergence forced     ConvForced      .... 0
 Energy Change          TolE            ....  1.000e-06 Eh
 Max Density Change     TolMaxP         ....  1.000e-05
 RMS Density Change     TolRMSP         ....  1.000e-06
 DIIS Error             TolErr          ....  1.000e-06


Diagonalization of the overlap matrix:
Smallest eigenvalue                        ... 1.015e-01
Time for diagonalization                   ...    0.001 sec
Threshold for overlap eigenvalues          ... 1.000e-08
Number of eigenvalues below threshold      ... 0
Time for construction of square roots      ...    0.007 sec
Total time needed                          ...    0.007 sec

-------------------
DFT GRID GENERATION
-------------------

General Integration Accuracy     IntAcc      ...  4.340
Radial Grid Type                 RadialGrid  ... Gauss-Chebyshev
Angular Grid (max. acc.)         AngularGrid ... Lebedev-110
Angular grid pruning method      GridPruning ... 3 (G Style)
Weight generation scheme         WeightScheme... Becke
Basis function cutoff            BFCut       ...    1.0000e-10
Integration weight cutoff        WCut        ...    1.0000e-14
Grids for H and He will be reduced by one unit

# of grid points (after initial pruning)     ...   3372 (   0.0 sec)
# of grid points (after weights+screening)   ...   3353 (   0.0 sec)
nearest neighbour list constructed           ...    0.0 sec
Grid point re-assignment to atoms done       ...    0.0 sec
Grid point division into batches done        ...    0.0 sec
Reduced shell lists constructed in    0.0 sec

Total number of grid points                  ...     3353
Total number of batches                      ...       54
Average number of points per batch           ...       62
Average number of grid points per atom       ...     1676
Average number of shells per batch           ...     9.75 (81.21%)
Average number of basis functions per batch  ...    24.04 (85.84%)
Average number of large shells per batch     ...     8.84 (90.67%)
Average number of large basis fcns per batch ...    21.75 (90.47%)
Maximum spatial batch extension              ...  17.68, 25.60, 31.36 au
Average spatial batch extension              ...   5.90,  7.30,  7.17 au

Time for grid setup =    0.022 sec

------------------------------
INITIAL GUESS: MODEL POTENTIAL
------------------------------
Loading Hartree-Fock densities                     ... done
Calculating cut-offs                               ... done
Setting up the integral package                    ... done
Initializing the effective Hamiltonian             ... done
Starting the Coulomb interaction                   ... done (   0.0 sec)
Reading the grid                                   ... done
Mapping shells                                     ... done
Starting the XC term evaluation                    ... done (   0.0 sec)
  promolecular density results
     # of electrons  =     13.999835710
     EX              =    -12.959645842
     EC              =     -0.410943565
     EX+EC           =    -13.370589406
Transforming the Hamiltonian                       ... done (   0.0 sec)
Diagonalizing the Hamiltonian                      ... done (   0.0 sec)
Back transforming the eigenvectors                 ... done (   0.0 sec)
Now organizing SCF variables                       ... done
                      ------------------
                      INITIAL GUESS DONE (   0.1 sec)
                      ------------------
--------------
SCF ITERATIONS
--------------
ITER       Energy         Delta-E        Max-DP      RMS-DP      [F,P]   Gradient Norm
               ***  Starting incremental Fock matrix formation  ***
                             ****Resetting KDIIS****
                             ****Turning on KDIIS(Cayley)****
  0   -112.0686619218   0.000000000000 0.06866303  0.00672658  0.3916031   0.276715005
  1   -112.2315037823  -0.162841860517 0.10673131  0.01163677  0.3602554   0.231095635
  2   -112.4684415275  -0.236937745229 0.12591620  0.01306817  0.2957899   0.167595567
  3   -112.7192542283  -0.250812700827 0.19657022  0.02522229  0.1538894   0.084337084
  4   -112.5307871724   0.188467055942 0.20798941  0.02224947  0.2745213   0.240220244
  5   -112.7661967423  -0.235409569944 0.05672563  0.00645591  0.1037235   0.068112793
  6   -112.8059883805  -0.039791638187 0.00130758  0.00019180  0.0557995   0.046591943
  7   -112.8066061628  -0.000617782259 0.08782059  0.01149031  0.0549795   0.046342914
  8   -112.8425289769  -0.035922814087 0.02943239  0.00333235  0.0147420   0.016573153
  9   -112.8460916526  -0.003562675750 0.01133155  0.00128109  0.0043837   0.005329792
 10   -112.8465084158  -0.000416763187 0.01323524  0.00103109  0.0088778   0.004016622
 11   -112.8467988938  -0.000290477995 0.02019239  0.00180616  0.0020759   0.001740355
 12   -112.8470292509  -0.000230357135 0.00998369  0.00076430  0.0015575   0.001252287
 13   -112.8470988149  -0.000069564018 0.00609745  0.00057382  0.0009408   0.000645913
 14   -112.8471297166  -0.000030901616 0.00538767  0.00040423  0.0005553   0.000501419
 15   -112.8471421018  -0.000012385190 0.00128385  0.00010598  0.0001740   0.000162727
                          ***Energy convergence achieved***
 16   -112.8471427700  -0.000000668231 0.00011781  0.00001252  0.0000660   0.000061586

            ***Energy convergence in two consecutive cycles with***
                    ***'reasonable' density convergence***
                       *** signaling convergence ***

                    *** KDIIS BlockDiag ( 0.000 sec) ***

               *****************************************************
               *                     SUCCESS                       *
               *           SCF CONVERGED AFTER  17 CYCLES          *
               *****************************************************

Setting up the final grid:

General Integration Accuracy     IntAcc      ...  4.670
Radial Grid Type                 RadialGrid  ... Gauss-Chebyshev
Angular Grid (max. acc.)         AngularGrid ... Lebedev-302
Angular grid pruning method      GridPruning ... 3 (G Style)
Weight generation scheme         WeightScheme... Becke
Basis function cutoff            BFCut       ...    1.0000e-10
Integration weight cutoff        WCut        ...    1.0000e-14
Grids for H and He will be reduced by one unit

# of grid points (after initial pruning)     ...  12424 (   0.0 sec)
# of grid points (after weights+screening)   ...  12402 (   0.0 sec)
nearest neighbour list constructed           ...    0.0 sec
Grid point re-assignment to atoms done       ...    0.0 sec
Grid point division into batches done        ...    0.0 sec
Reduced shell lists constructed in    0.1 sec

Total number of grid points                  ...    12402
Total number of batches                      ...      195
Average number of points per batch           ...       63
Average number of grid points per atom       ...     6201
Average number of shells per batch           ...     8.83 (73.60%)
Average number of basis functions per batch  ...    21.75 (77.68%)
Average number of large shells per batch     ...     7.81 (88.45%)
Average number of large basis fcns per batch ...    19.31 (88.79%)
Maximum spatial batch extension              ...  18.35, 20.64, 19.94 au
Average spatial batch extension              ...   3.90,  4.52,  4.46 au

Final grid set up in    0.1 sec
Final integration                            ... done (   0.1 sec)
Change in XC energy                          ...    -0.000651595
Integrated number of electrons               ...    13.999995881
Previous integrated no of electrons          ...    13.999600212

----------------
TOTAL SCF ENERGY
----------------

Total Energy       :         -112.84779439 Eh           -3070.74460 eV

Components:
Nuclear Repulsion  :           11.95253382 Eh             325.24498 eV
Electronic Energy  :         -124.80032821 Eh           -3395.98958 eV
One Electron Energy:         -177.64899130 Eh           -4834.07481 eV
Two Electron Energy:           52.84866310 Eh            1438.08523 eV

Virial components:
Potential Energy   :         -224.40498117 Eh           -6106.36998 eV
Kinetic Energy     :          111.55718678 Eh            3035.62538 eV
Virial Ratio       :            2.01156902


DFT components:
N(Alpha)           :        6.999997940556 electrons
N(Beta)            :        6.999997940556 electrons
N(Total)           :       13.999995881112 electrons
E(XC)              :       -9.440585596600 Eh       

---------------
SCF CONVERGENCE
---------------

  Last Energy change         ...   -2.2898e-08  Tolerance :   1.0000e-06
  Last MAX-Density change    ...    3.8504e-05  Tolerance :   1.0000e-05
  Last RMS-Density change    ...    3.8723e-06  Tolerance :   1.0000e-06
  Last DIIS Error            ...    1.7205e-05  Tolerance :   1.0000e-06

             **** THE GBW FILE WAS UPDATED (Scan_18.gbw) ****
             **** DENSITY FILE WAS UPDATED (Scan_18.scfp.tmp) ****
             **** ENERGY FILE WAS UPDATED (Scan_18.en.tmp) ****
----------------
ORBITAL ENERGIES
----------------

  NO   OCC          E(Eh)            E(eV) 
   0   2.0000     -19.316692      -525.6339 
   1   2.0000     -10.570473      -287.6372 
   2   2.0000      -0.986830       -26.8530 
   3   2.0000      -0.724946       -19.7268 
   4   2.0000      -0.412542       -11.2258 
   5   2.0000      -0.379455       -10.3255 
   6   2.0000      -0.379455       -10.3255 
   7   0.0000      -0.113290        -3.0828 
   8   0.0000      -0.113290        -3.0828 
   9   0.0000      -0.037710        -1.0261 
  10   0.0000       0.584010        15.8917 
  11   0.0000       0.584010        15.8917 
  12   0.0000       0.592591        16.1252 
  13   0.0000       0.707284        19.2462 
  14   0.0000       1.021803        27.8047 
  15   0.0000       1.021803        27.8047 
  16   0.0000       1.057545        28.7773 
  17   0.0000       1.251889        34.0656 
  18   0.0000       1.675538        45.5937 
  19   0.0000       1.676731        45.6262 
  20   0.0000       1.682561        45.7848 
  21   0.0000       1.682561        45.7848 
  22   0.0000       1.704985        46.3950 
  23   0.0000       1.931807        52.5671 
  24   0.0000       1.932015        52.5728 
  25   0.0000       1.952155        53.1208 
  26   0.0000       1.952155        53.1208 
  27   0.0000       2.255382        61.3721 

                    ********************************
                    * MULLIKEN POPULATION ANALYSIS *
                    ********************************

-----------------------
MULLIKEN ATOMIC CHARGES
-----------------------
   0 C :    0.313010
   1 O :   -0.313010
Sum of atomic charges:   -0.0000000

--------------------------------
MULLIKEN REDUCED ORBITAL CHARGES
--------------------------------
  0 C s       :     3.968898  s :     3.968898
      pz      :     0.371506  p :     1.715176
      px      :     0.972163
      py      :     0.371506
      dz2     :     0.000409  d :     0.002916
      dxz     :     0.000640
      dyz     :     0.000000
      dx2y2   :     0.001228
      dxy     :     0.000640
  1 O s       :     3.991104  s :     3.991104
      pz      :     1.627423  p :     4.318859
      px      :     1.064013
      py      :     1.627423
      dz2     :     0.000546  d :     0.003048
      dxz     :     0.000431
      dyz     :     0.000000
      dx2y2   :     0.001639
      dxy     :     0.000431


                     *******************************
                     * LOEWDIN POPULATION ANALYSIS *
                     *******************************

----------------------
LOEWDIN ATOMIC CHARGES
----------------------
   0 C :    0.295150
   1 O :   -0.295150

-------------------------------
LOEWDIN REDUCED ORBITAL CHARGES
-------------------------------
  0 C s       :     3.950879  s :     3.950879
      pz      :     0.374064  p :     1.749931
      px      :     1.001803
      py      :     0.374064
      dz2     :     0.000640  d :     0.004039
      dxz     :     0.000741
      dyz     :     0.000000
      dx2y2   :     0.001919
      dxy     :     0.000741
  1 O s       :     3.958650  s :     3.958650
      pz      :     1.624739  p :     4.332188
      px      :     1.082710
      py      :     1.624739
      dz2     :     0.000850  d :     0.004312
      dxz     :     0.000456
      dyz     :     0.000000
      dx2y2   :     0.002550
      dxy     :     0.000456


                      *****************************
                      * MAYER POPULATION ANALYSIS *
                      *****************************

  NA   - Mulliken gross atomic population
  ZA   - Total nuclear charge
  QA   - Mulliken gross atomic charge
  VA   - Mayer's total valence
  BVA  - Mayer's bonded valence
  FA   - Mayer's free valence

  ATOM       NA         ZA         QA         VA         BVA        FA
  0 C      5.6870     6.0000     0.3130     2.2014     2.2014     0.0000
  1 O      8.3130     8.0000    -0.3130     2.2014     2.2014    -0.0000

  Mayer bond orders larger than 0.1
B(  0-C ,  1-O ) :   2.2014 

-------
TIMINGS
-------

Total SCF time: 0 days 0 hours 0 min 5 sec 

Total time                  ....       5.367 sec
Sum of individual times     ....       5.122 sec  ( 95.4%)

Fock matrix formation       ....       4.878 sec  ( 90.9%)
  XC integration            ....       0.916 sec  ( 18.8% of F)
    Basis function eval.    ....       0.183 sec  ( 19.9% of XC)
    Density eval.           ....       0.038 sec  (  4.2% of XC)
    XC-Functional eval.     ....       0.212 sec  ( 23.1% of XC)
    XC-Potential eval.      ....       0.027 sec  (  3.0% of XC)
Diagonalization             ....       0.008 sec  (  0.1%)
Density matrix formation    ....       0.000 sec  (  0.0%)
Population analysis         ....       0.010 sec  (  0.2%)
Initial guess               ....       0.107 sec  (  2.0%)
Orbital Transformation      ....       0.000 sec  (  0.0%)
Orbital Orthonormalization  ....       0.000 sec  (  0.0%)
DIIS solution               ....       0.000 sec  (  0.0%)
Grid generation             ....       0.119 sec  (  2.2%)


-------------------------------------------------------------------------------
                          DFT DISPERSION CORRECTION                            
                                                                               
                              DFTD3 V3.1  Rev 1                                
                              USING zero damping                               
-------------------------------------------------------------------------------
The omegaB97X-D3 functional is recognized. Fit by Chai et al.
Active option DFTDOPT                   ...         3   

molecular C6(AA) [au] = 117.043884 


            DFT-D V3
 parameters
 s6 scaling factor         :     1.0000 
 rs6 scaling factor        :     1.2810 
 s8 scaling factor         :     1.0000 
 rs8 scaling factor        :     1.0940 
 Damping factor alpha6     :    14.0000 
 Damping factor alpha8     :    16.0000 
 ad hoc parameters k1-k3   :    16.0000     1.3333    -4.0000 

 Edisp/kcal,au: -0.012630583154  -0.000020128113 
 E6   /kcal   :  -0.001437732 
 E8   /kcal   :  -0.011192851 
 % E8         :  88.617056352 

-------------------------   ----------------
Dispersion correction           -0.000020128
-------------------------   ----------------


-------------------------   --------------------
FINAL SINGLE POINT ENERGY      -112.847814516405
-------------------------   --------------------


                            ***************************************
                            *     ORCA property calculations      *
                            ***************************************

                                    ---------------------
                                    Active property flags
                                    ---------------------
   (+) Dipole Moment


------------------------------------------------------------------------------
                       ORCA ELECTRIC PROPERTIES CALCULATION
------------------------------------------------------------------------------

Dipole Moment Calculation                       ... on
Quadrupole Moment Calculation                   ... off
Polarizability Calculation                      ... off
GBWName                                         ... Scan_18.gbw
Electron density file                           ... Scan_18.scfp.tmp

-------------
DIPOLE MOMENT
-------------
                                X             Y             Z
Electronic contribution:     -1.12689      -0.00000      -0.00000
Nuclear contribution   :      0.01348      -0.00000       0.00000
                        -----------------------------------------
Total Dipole Moment    :     -1.11341      -0.00000      -0.00000
                        -----------------------------------------
Magnitude (a.u.)       :      1.11341
Magnitude (Debye)      :      2.83006


Timings for individual modules:

Sum of individual times         ...        5.703 sec (=   0.095 min)
GTO integral calculation        ...        0.314 sec (=   0.005 min)   5.5 %
SCF iterations                  ...        5.389 sec (=   0.090 min)  94.5 %
                             ****ORCA TERMINATED NORMALLY****
TOTAL RUN TIME: 0 days 0 hours 0 minutes 6 seconds 69 msec
