
                                 *****************
                                 * O   R   C   A *
                                 *****************

           --- An Ab Initio, DFT and Semiempirical electronic structure package ---

                  #######################################################
                  #                        -***-                        #
                  #  Department of molecular theory and spectroscopy    #
                  #              Directorship: Frank Neese              #
                  # Max Planck Institute for Chemical Energy Conversion #
                  #                  D-45470 Muelheim/Ruhr              #
                  #                       Germany                       #
                  #                                                     #
                  #                  All rights reserved                #
                  #                        -***-                        #
                  #######################################################


                         Program Version 4.0.0.2 - RELEASE -


 With contributions from (in alphabetic order):
   Daniel Aravena         : Magnetic Properties
   Michael Atanasov       : Ab Initio Ligand Field Theory
   Ute Becker             : Parallelization
   Martin Brehm           : Molecular dynamics
   Dmytro Bykov           : SCF Hessian
   Vijay G. Chilkuri      : MRCI spin determinant printing
   Dipayan Datta          : RHF DLPNO-CCSD density
   Achintya Kumar Dutta   : EOM-CC, STEOM-CC
   Dmitry Ganyushin       : Spin-Orbit,Spin-Spin,Magnetic field MRCI
   Yang Guo               : DLPNO-NEVPT2, CIM, IAO-localization
   Andreas Hansen         : Spin unrestricted coupled pair/coupled cluster methods
   Lee Huntington         : MR-EOM, pCC
   Robert Izsak           : Overlap fitted RIJCOSX, COSX-SCS-MP3, EOM
   Christian Kollmar      : KDIIS, OOCD, Brueckner-CCSD(T), CCSD density
   Simone Kossmann        : Meta GGA functionals, TD-DFT gradient, OOMP2, MP2 Hessian
   Martin Krupicka        : AUTO-CI
   Dagmar Lenk            : GEPOL surface
   Dimitrios Liakos       : Extrapolation schemes; parallel MDCI
   Dimitrios Manganas     : ROCIS; embedding schemes
   Dimitrios Pantazis     : SARC Basis sets
   Taras Petrenko         : DFT Hessian,TD-DFT gradient, ASA, ECA, R-Raman, ABS, FL, XAS/XES, NRVS
   Peter Pinski           : DLPNO-MP2
   Christoph Reimann      : Effective Core Potentials
   Marius Retegan         : Local ZFS, SOC
   Christoph Riplinger    : Optimizer, TS searches, QM/MM, DLPNO-CCSD(T), (RO)-DLPNO pert. Triples
   Tobias Risthaus        : Range-separated hybrids, TD-DFT gradient, RPA, STAB
   Michael Roemelt        : Restricted open shell CIS
   Masaaki Saitow         : Open-shell DLPNO
   Barbara Sandhoefer     : DKH picture change effects
   Kantharuban Sivalingam : CASSCF convergence, NEVPT2, FIC-MRCI
   Georgi Stoychev        : AutoAux
   Boris Wezisla          : Elementary symmetry handling
   Frank Wennmohs         : Technical directorship


 We gratefully acknowledge several colleagues who have allowed us to
 interface, adapt or use parts of their codes:
   Stefan Grimme, W. Hujo, H. Kruse,             : VdW corrections, initial TS optimization,
                  C. Bannwarth                     DFT functionals, gCP, sTDA/sTD-DF
   Ed Valeev                                     : LibInt (2-el integral package), F12 methods
   Garnet Chan, S. Sharma, J. Yang, R. Olivares  : DMRG
   Ulf Ekstrom                                   : XCFun DFT Library
   Mihaly Kallay                                 : mrcc  (arbitrary order and MRCC methods)
   Jiri Pittner, Ondrej Demel                    : Mk-CCSD
   Frank Weinhold                                : gennbo (NPA and NBO analysis)
   Christopher J. Cramer and Donald G. Truhlar   : smd solvation model


 Your calculation uses the libint2 library for the computation of 2-el integrals
 For citations please refer to: http://libint.valeyev.net

 This ORCA versions uses:
   CBLAS   interface :  Fast vector & matrix operations
   LAPACKE interface :  Fast linear algebra routines
   SCALAPACK package :  Parallel linear algebra routines


Your calculation utilizes the atom-pairwise dispersion correction
with the zero-damping scheme (D30)
Cite in your paper:
S.Grimme, J.Antony, S.Ehrlich and H.Krieg, J.Chem.Phys., 132, (2010), 154104 
   

XCFun DFT library Copyright 2009-2010 Ulf Ekstrom and contributors.
See http://admol.org/xcfun for more information. This is free soft-
ware; see the source code for copying conditions. There is ABSOLUTELY
NO WARRANTY; not even for MERCHANTABILITY or FITNESS FOR A PARTICULAR
PURPOSE. For details see the documentation. Scientific users of this 
library should cite U. Ekstrom, L. Visscher, R. Bast, A. J. Thorvald-
sen and K. Ruud; J.Chem.Theor.Comp. 2010, DOI: 10.1021/ct100117s
XCFun Version 0.99 
Your calculation utilizes the basis: 6-31G(d)
   H-He, Li-Ne : W. J. Hehre, R. Ditchfield and J.A. Pople, J. Chem. Phys. 56, 2257 (1972).
                 Note: He and Ne are unpublished basis sets taken from the Gaussian program.
                 Note: Li and B from J. D. Dill and J. A. Pople, J. Chem. Phys. 62, 2921 (1975).
   Na - Ar     : M. M. Francl, W. J. Pietro, W. J. Hehre, J. S. Binkley, M. S. Gordon, 
                 D. J. DeFrees and J. A. Pople, J. Chem. Phys. 77, 3654 (1982).
   K - Zn      : V. A. Rassolov, J. A. Pople, M. A. Ratner, and T. L. Windus, J. Chem. Phys. 109, 1223 (1998).

================================================================================
                                        WARNINGS
                       Please study these warnings very carefully!
================================================================================

Warning: TCutStore was < 0. Adjusted to Thresh (uncritical)

INFO   : the flag for use of LIBINT has been found!

================================================================================
                                       INPUT FILE
================================================================================
NAME = initial19.inp
|  1> ! WB97X-D3 6-31G(d) VerySlowConv
|  2> ! KDIIS NOSOSCF
|  3> %base "Scan_19"
|  4> 
|  5> %scf
|  6> maxiter 999
|  7> end
|  8> 
|  9> * xyz 0 1
| 10> C         -1.256710277904    1.613610000000    0.000000000000
| 11> O          0.997670277904    1.613610000000    0.000000000000
| 12> **                         ****END OF INPUT****
================================================================================

                       ****************************
                       * Single Point Calculation *
                       ****************************

---------------------------------
CARTESIAN COORDINATES (ANGSTROEM)
---------------------------------
  C     -1.256710    1.613610    0.000000
  O      0.997670    1.613610    0.000000

----------------------------
CARTESIAN COORDINATES (A.U.)
----------------------------
  NO LB      ZA    FRAG     MASS         X           Y           Z
   0 C     6.0000    0    12.011   -2.374838    3.049281    0.000000
   1 O     8.0000    0    15.999    1.885324    3.049281    0.000000

--------------------------------
INTERNAL COORDINATES (ANGSTROEM)
--------------------------------
 C      0   0   0     0.000000000000     0.00000000     0.00000000
 O      1   0   0     2.254380555808     0.00000000     0.00000000

---------------------------
INTERNAL COORDINATES (A.U.)
---------------------------
 C      0   0   0     0.000000000000     0.00000000     0.00000000
 O      1   0   0     4.260161852114     0.00000000     0.00000000

---------------------
BASIS SET INFORMATION
---------------------
There are 2 groups of distinct atoms

 Group   1 Type C   : 10s4p1d contracted to 3s2p1d pattern {631/31/1}
 Group   2 Type O   : 10s4p1d contracted to 3s2p1d pattern {631/31/1}

Atom   0C    basis set group =>   1
Atom   1O    basis set group =>   2
------------------------------------------------------------------------------
                           ORCA GTO INTEGRAL CALCULATION
------------------------------------------------------------------------------

                         BASIS SET STATISTICS AND STARTUP INFO

 # of primitive gaussian shells          ...   30
 # of primitive gaussian functions       ...   54
 # of contracted shells                  ...   12
 # of contracted basis functions         ...   28
 Highest angular momentum                ...    2
 Maximum contraction depth               ...    6
 Integral package used                   ... LIBINT
 Integral threshhold            Thresh   ...  1.000e-10
 Primitive cut-off              TCut     ...  1.000e-11


------------------------------ INTEGRAL EVALUATION ----------------------------


 * One electron integrals 
 Pre-screening matrix                    ... done
 Shell pair data                         ... done (   0.000 sec)

-------------------------------------------------------------------------------
                                 ORCA SCF
-------------------------------------------------------------------------------

------------
SCF SETTINGS
------------
Hamiltonian:
 Density Functional     Method          .... DFT(GTOs)
 Exchange Functional    Exchange        .... WB97X-D3
 Correlation Functional Correlation     .... WB97X-D3
 Gradients option       PostSCFGGA      .... off
 Hybrid DFT is turned on
   Fraction HF Exchange ScalHFX         ....  0.195728
   Scaling of DF-GGA-X  ScalDFX         ....  0.000000
   Scaling of DF-GGA-C  ScalDFC         ....  1.000000
   Scaling of DF-LDA-C  ScalLDAC        ....  1.000000
   Perturbative correction              ....  0.000000
 Long-range corrected/Screened/Range-Separated Hybrid DFT is turned on
   Amount of maximum screened exact exchange              ....  0.804272
   Range separation parameter mu (erf(mu*r12)/r12)        ....  0.250000


General Settings:
 Integral files         IntName         .... Scan_19
 Hartree-Fock type      HFTyp           .... RHF
 Total Charge           Charge          ....    0
 Multiplicity           Mult            ....    1
 Number of Electrons    NEL             ....   14
 Basis Dimension        Dim             ....   28
 Nuclear Repulsion      ENuc            ....     11.2671775548 Eh

Convergence Acceleration:
 DIIS                   CNVDIIS         .... on
   Start iteration      DIISMaxIt       ....     0
   Startup error        DIISStart       ....  0.200000
   # of expansion vecs  DIISMaxEq       ....     5
   Bias factor          DIISBfac        ....   1.050
   Max. coefficient     DIISMaxC        ....  10.000
 Newton-Raphson         CNVNR           .... off
 SOSCF                  CNVSOSCF        .... off
 Level Shifting         CNVShift        .... off
 Zerner damping         CNVZerner       .... off
 Static damping         CNVDamp         .... off
 Fernandez-Rico         CNVRico         .... off

SCF Procedure:
 Maximum # iterations   MaxIter         ....   999
 SCF integral mode      SCFMode         .... Direct
   Integral package                     .... LIBINT
 Reset frequeny         DirectResetFreq ....    20
 Integral Threshold     Thresh          ....  1.000e-10 Eh
 Primitive CutOff       TCut            ....  1.000e-11 Eh

Convergence Tolerance:
 Convergence Check Mode ConvCheckMode   .... All-Criteria
 Convergence forced     ConvForced      .... 0
 Energy Change          TolE            ....  1.000e-06 Eh
 Max Density Change     TolMaxP         ....  1.000e-05
 RMS Density Change     TolRMSP         ....  1.000e-06
 DIIS Error             TolErr          ....  1.000e-06


Diagonalization of the overlap matrix:
Smallest eigenvalue                        ... 1.170e-01
Time for diagonalization                   ...    0.001 sec
Threshold for overlap eigenvalues          ... 1.000e-08
Number of eigenvalues below threshold      ... 0
Time for construction of square roots      ...    0.008 sec
Total time needed                          ...    0.008 sec

-------------------
DFT GRID GENERATION
-------------------

General Integration Accuracy     IntAcc      ...  4.340
Radial Grid Type                 RadialGrid  ... Gauss-Chebyshev
Angular Grid (max. acc.)         AngularGrid ... Lebedev-110
Angular grid pruning method      GridPruning ... 3 (G Style)
Weight generation scheme         WeightScheme... Becke
Basis function cutoff            BFCut       ...    1.0000e-10
Integration weight cutoff        WCut        ...    1.0000e-14
Grids for H and He will be reduced by one unit

# of grid points (after initial pruning)     ...   3372 (   0.0 sec)
# of grid points (after weights+screening)   ...   3353 (   0.0 sec)
nearest neighbour list constructed           ...    0.0 sec
Grid point re-assignment to atoms done       ...    0.0 sec
Grid point division into batches done        ...    0.0 sec
Reduced shell lists constructed in    0.0 sec

Total number of grid points                  ...     3353
Total number of batches                      ...       54
Average number of points per batch           ...       62
Average number of grid points per atom       ...     1676
Average number of shells per batch           ...     9.71 (80.91%)
Average number of basis functions per batch  ...    23.78 (84.94%)
Average number of large shells per batch     ...     8.80 (90.64%)
Average number of large basis fcns per batch ...    21.64 (90.98%)
Maximum spatial batch extension              ...  17.79, 25.60, 31.36 au
Average spatial batch extension              ...   6.01,  7.40,  7.31 au

Time for grid setup =    0.022 sec

------------------------------
INITIAL GUESS: MODEL POTENTIAL
------------------------------
Loading Hartree-Fock densities                     ... done
Calculating cut-offs                               ... done
Setting up the integral package                    ... done
Initializing the effective Hamiltonian             ... done
Starting the Coulomb interaction                   ... done (   0.0 sec)
Reading the grid                                   ... done
Mapping shells                                     ... done
Starting the XC term evaluation                    ... done (   0.0 sec)
  promolecular density results
     # of electrons  =     13.999934799
     EX              =    -12.954602704
     EC              =     -0.408916147
     EX+EC           =    -13.363518851
Transforming the Hamiltonian                       ... done (   0.0 sec)
Diagonalizing the Hamiltonian                      ... done (   0.0 sec)
Back transforming the eigenvectors                 ... done (   0.0 sec)
Now organizing SCF variables                       ... done
                      ------------------
                      INITIAL GUESS DONE (   0.1 sec)
                      ------------------
--------------
SCF ITERATIONS
--------------
ITER       Energy         Delta-E        Max-DP      RMS-DP      [F,P]   Gradient Norm
               ***  Starting incremental Fock matrix formation  ***
                             ****Resetting KDIIS****
                             ****Turning on KDIIS(Cayley)****
  0   -111.9066964199   0.000000000000 0.07277898  0.00771476  0.3880700   0.285236599
  1   -112.0847055650  -0.178009145119 0.11514515  0.01145849  0.3592216   0.236459483
  2   -112.3336660006  -0.248960435612 0.11372424  0.01372748  0.3116289   0.179100300
  3   -112.6227241477  -0.289058147072 0.19511296  0.02346000  0.1842525   0.099463618
  4   -112.5908848225   0.031839325167 0.20455655  0.01974991  0.1941289   0.201409052
  5   -112.7139665424  -0.123081719945 0.07894728  0.00937579  0.1222007   0.074315643
  6   -112.7701346007  -0.056168058247 0.03860618  0.00394730  0.0429245   0.043679412
  7   -112.7657747402   0.004359860489 0.09749311  0.01055153  0.0666810   0.048344195
  8   -112.7128484564   0.052926283781 0.08875241  0.00953335  0.1560598   0.089667941
  9   -112.7922912002  -0.079442743758 0.02749623  0.00349176  0.0533073   0.028424963
 10   -112.7963900288  -0.004098828638 0.00819537  0.00072209  0.0390408   0.018847634
 11   -112.7966633619  -0.000273333126 0.04827738  0.00370450  0.0337362   0.016161655
 12   -112.7870311131   0.009632248829 0.04778637  0.00402200  0.0576047   0.029751879
 13   -112.7927503009  -0.005719187753 0.31979796  0.02392274  0.0531977   0.027180341
 14   -112.8043682981  -0.011617997222 0.05112814  0.00323808  0.0369186   0.024542114
 15   -112.8077742572  -0.003405959159 0.02986191  0.00260025  0.0193808   0.013189113
 16   -112.8075749659   0.000199291364 0.01561725  0.00095586  0.0206663   0.013007282
 17   -112.8085296342  -0.000954668363 0.01892978  0.00111797  0.0115614   0.007060089
 18   -112.8089802450  -0.000450610764 0.01499994  0.00129459  0.0008282   0.000562964
 19   -112.8090553891  -0.000075144147 0.01077130  0.00093526  0.0004787   0.000325997
               *** Restarting incremental Fock matrix formation ***
                             ****Resetting KDIIS****
 20   -112.8090595910  -0.000004201860 0.00013201  0.00001473  0.0003998   0.000282597
                          ***Energy convergence achieved***
 21   -112.8090602136  -0.000000622572 0.00013656  0.00001356  0.0002654   0.000169883
 22   -112.8090605377  -0.000000324160 0.00080775  0.00007481  0.0002608   0.000162952
 23   -112.8090621503  -0.000001612560 0.00328721  0.00029451  0.0001676   0.000115052
 24   -112.8090652582  -0.000003107882 0.00052025  0.00003973  0.0000478   0.000030040
                          ***Energy convergence achieved***
 25   -112.8090653565  -0.000000098282 0.00026027  0.00002461  0.0000274   0.000016063
 26   -112.8090653990  -0.000000042561 0.00016324  0.00001678  0.0000108   0.000011909

            ***Energy convergence in two consecutive cycles with***
                    ***'reasonable' density convergence***
                       *** signaling convergence ***

                    *** KDIIS BlockDiag ( 0.000 sec) ***

               *****************************************************
               *                     SUCCESS                       *
               *           SCF CONVERGED AFTER  27 CYCLES          *
               *****************************************************

Setting up the final grid:

General Integration Accuracy     IntAcc      ...  4.670
Radial Grid Type                 RadialGrid  ... Gauss-Chebyshev
Angular Grid (max. acc.)         AngularGrid ... Lebedev-302
Angular grid pruning method      GridPruning ... 3 (G Style)
Weight generation scheme         WeightScheme... Becke
Basis function cutoff            BFCut       ...    1.0000e-10
Integration weight cutoff        WCut        ...    1.0000e-14
Grids for H and He will be reduced by one unit

# of grid points (after initial pruning)     ...  12424 (   0.0 sec)
# of grid points (after weights+screening)   ...  12403 (   0.0 sec)
nearest neighbour list constructed           ...    0.0 sec
Grid point re-assignment to atoms done       ...    0.0 sec
Grid point division into batches done        ...    0.0 sec
Reduced shell lists constructed in    0.1 sec

Total number of grid points                  ...    12403
Total number of batches                      ...      195
Average number of points per batch           ...       63
Average number of grid points per atom       ...     6202
Average number of shells per batch           ...     8.82 (73.51%)
Average number of basis functions per batch  ...    21.70 (77.50%)
Average number of large shells per batch     ...     7.68 (87.04%)
Average number of large basis fcns per batch ...    18.98 (87.49%)
Maximum spatial batch extension              ...  18.35, 20.64, 19.94 au
Average spatial batch extension              ...   3.92,  4.53,  4.47 au

Final grid set up in    0.1 sec
Final integration                            ... done (   0.1 sec)
Change in XC energy                          ...    -0.000470293
Integrated number of electrons               ...    13.999995906
Previous integrated no of electrons          ...    13.999709016

----------------
TOTAL SCF ENERGY
----------------

Total Energy       :         -112.80953570 Eh           -3069.70353 eV

Components:
Nuclear Repulsion  :           11.26717755 Eh             306.59549 eV
Electronic Energy  :         -124.07671326 Eh           -3376.29902 eV
One Electron Energy:         -176.30422644 Eh           -4797.48190 eV
Two Electron Energy:           52.22751318 Eh            1421.18289 eV

Virial components:
Potential Energy   :         -224.41812222 Eh           -6106.72757 eV
Kinetic Energy     :          111.60858652 Eh            3037.02404 eV
Virial Ratio       :            2.01076037


DFT components:
N(Alpha)           :        6.999997952963 electrons
N(Beta)            :        6.999997952963 electrons
N(Total)           :       13.999995905927 electrons
E(XC)              :       -9.444122149591 Eh       

---------------
SCF CONVERGENCE
---------------

  Last Energy change         ...   -1.1123e-08  Tolerance :   1.0000e-06
  Last MAX-Density change    ...    1.3902e-05  Tolerance :   1.0000e-05
  Last RMS-Density change    ...    1.1587e-06  Tolerance :   1.0000e-06
  Last DIIS Error            ...    4.1413e-06  Tolerance :   1.0000e-06

             **** THE GBW FILE WAS UPDATED (Scan_19.gbw) ****
             **** DENSITY FILE WAS UPDATED (Scan_19.scfp.tmp) ****
             **** ENERGY FILE WAS UPDATED (Scan_19.en.tmp) ****
----------------
ORBITAL ENERGIES
----------------

  NO   OCC          E(Eh)            E(eV) 
   0   2.0000     -19.306715      -525.3624 
   1   2.0000     -10.571823      -287.6739 
   2   2.0000      -0.974407       -26.5149 
   3   2.0000      -0.727952       -19.8086 
   4   2.0000      -0.397971       -10.8293 
   5   2.0000      -0.369200       -10.0464 
   6   2.0000      -0.369200       -10.0464 
   7   0.0000      -0.118245        -3.2176 
   8   0.0000      -0.118245        -3.2176 
   9   0.0000      -0.057484        -1.5642 
  10   0.0000       0.580672        15.8009 
  11   0.0000       0.580672        15.8009 
  12   0.0000       0.593446        16.1485 
  13   0.0000       0.696846        18.9621 
  14   0.0000       1.028204        27.9789 
  15   0.0000       1.028204        27.9789 
  16   0.0000       1.055204        28.7136 
  17   0.0000       1.253165        34.1004 
  18   0.0000       1.670920        45.4680 
  19   0.0000       1.672291        45.5054 
  20   0.0000       1.687687        45.9243 
  21   0.0000       1.687687        45.9243 
  22   0.0000       1.728652        47.0390 
  23   0.0000       1.940869        52.8137 
  24   0.0000       1.940869        52.8137 
  25   0.0000       1.942689        52.8632 
  26   0.0000       1.943572        52.8873 
  27   0.0000       2.143085        58.3163 

                    ********************************
                    * MULLIKEN POPULATION ANALYSIS *
                    ********************************

-----------------------
MULLIKEN ATOMIC CHARGES
-----------------------
   0 C :    0.302452
   1 O :   -0.302452
Sum of atomic charges:   -0.0000000

--------------------------------
MULLIKEN REDUCED ORBITAL CHARGES
--------------------------------
  0 C s       :     3.977570  s :     3.977570
      pz      :     0.291720  p :     1.718202
      px      :     1.134762
      py      :     0.291720
      dz2     :     0.000247  d :     0.001775
      dxz     :     0.000394
      dyz     :     0.000000
      dx2y2   :     0.000740
      dxy     :     0.000394
  1 O s       :     3.993744  s :     3.993744
      pz      :     1.707664  p :     4.306709
      px      :     0.891382
      py      :     1.707664
      dz2     :     0.000389  d :     0.002000
      dxz     :     0.000222
      dyz     :     0.000000
      dx2y2   :     0.001166
      dxy     :     0.000222


                     *******************************
                     * LOEWDIN POPULATION ANALYSIS *
                     *******************************

----------------------
LOEWDIN ATOMIC CHARGES
----------------------
   0 C :    0.297051
   1 O :   -0.297051

-------------------------------
LOEWDIN REDUCED ORBITAL CHARGES
-------------------------------
  0 C s       :     3.964817  s :     3.964817
      pz      :     0.293467  p :     1.735855
      px      :     1.148921
      py      :     0.293467
      dz2     :     0.000349  d :     0.002276
      dxz     :     0.000440
      dyz     :     0.000000
      dx2y2   :     0.001047
      dxy     :     0.000440
  1 O s       :     3.973415  s :     3.973415
      pz      :     1.705860  p :     4.320730
      px      :     0.909010
      py      :     1.705860
      dz2     :     0.000610  d :     0.002906
      dxz     :     0.000233
      dyz     :     0.000000
      dx2y2   :     0.001831
      dxy     :     0.000233


                      *****************************
                      * MAYER POPULATION ANALYSIS *
                      *****************************

  NA   - Mulliken gross atomic population
  ZA   - Total nuclear charge
  QA   - Mulliken gross atomic charge
  VA   - Mayer's total valence
  BVA  - Mayer's bonded valence
  FA   - Mayer's free valence

  ATOM       NA         ZA         QA         VA         BVA        FA
  0 C      5.6975     6.0000     0.3025     1.9819     1.9819    -0.0000
  1 O      8.3025     8.0000    -0.3025     1.9819     1.9819     0.0000

  Mayer bond orders larger than 0.1
B(  0-C ,  1-O ) :   1.9819 

-------
TIMINGS
-------

Total SCF time: 0 days 0 hours 0 min 9 sec 

Total time                  ....       9.903 sec
Sum of individual times     ....       9.580 sec  ( 96.7%)

Fock matrix formation       ....       9.293 sec  ( 93.8%)
  XC integration            ....       1.333 sec  ( 14.3% of F)
    Basis function eval.    ....       0.266 sec  ( 20.0% of XC)
    Density eval.           ....       0.057 sec  (  4.3% of XC)
    XC-Functional eval.     ....       0.311 sec  ( 23.4% of XC)
    XC-Potential eval.      ....       0.039 sec  (  2.9% of XC)
Diagonalization             ....       0.024 sec  (  0.2%)
Density matrix formation    ....       0.000 sec  (  0.0%)
Population analysis         ....       0.012 sec  (  0.1%)
Initial guess               ....       0.128 sec  (  1.3%)
Orbital Transformation      ....       0.000 sec  (  0.0%)
Orbital Orthonormalization  ....       0.000 sec  (  0.0%)
DIIS solution               ....       0.000 sec  (  0.0%)
Grid generation             ....       0.122 sec  (  1.2%)


-------------------------------------------------------------------------------
                          DFT DISPERSION CORRECTION                            
                                                                               
                              DFTD3 V3.1  Rev 1                                
                              USING zero damping                               
-------------------------------------------------------------------------------
The omegaB97X-D3 functional is recognized. Fit by Chai et al.
Active option DFTDOPT                   ...         3   

molecular C6(AA) [au] = 117.302405 


            DFT-D V3
 parameters
 s6 scaling factor         :     1.0000 
 rs6 scaling factor        :     1.2810 
 s8 scaling factor         :     1.0000 
 rs8 scaling factor        :     1.0940 
 Damping factor alpha6     :    14.0000 
 Damping factor alpha8     :    16.0000 
 ad hoc parameters k1-k3   :    16.0000     1.3333    -4.0000 

 Edisp/kcal,au: -0.020251029238  -0.000032272066 
 E6   /kcal   :  -0.002310278 
 E8   /kcal   :  -0.017940751 
 % E8         :  88.591800155 

-------------------------   ----------------
Dispersion correction           -0.000032272
-------------------------   ----------------


-------------------------   --------------------
FINAL SINGLE POINT ENERGY      -112.809567975241
-------------------------   --------------------


                            ***************************************
                            *     ORCA property calculations      *
                            ***************************************

                                    ---------------------
                                    Active property flags
                                    ---------------------
   (+) Dipole Moment


------------------------------------------------------------------------------
                       ORCA ELECTRIC PROPERTIES CALCULATION
------------------------------------------------------------------------------

Dipole Moment Calculation                       ... on
Quadrupole Moment Calculation                   ... off
Polarizability Calculation                      ... off
GBWName                                         ... Scan_19.gbw
Electron density file                           ... Scan_19.scfp.tmp

-------------
DIPOLE MOMENT
-------------
                                X             Y             Z
Electronic contribution:     -1.21989      -0.00000       0.00000
Nuclear contribution   :      0.01430      -0.00000       0.00000
                        -----------------------------------------
Total Dipole Moment    :     -1.20559      -0.00000       0.00000
                        -----------------------------------------
Magnitude (a.u.)       :      1.20559
Magnitude (Debye)      :      3.06438


Timings for individual modules:

Sum of individual times         ...       10.354 sec (=   0.173 min)
GTO integral calculation        ...        0.419 sec (=   0.007 min)   4.1 %
SCF iterations                  ...        9.934 sec (=   0.166 min)  95.9 %
                             ****ORCA TERMINATED NORMALLY****
TOTAL RUN TIME: 0 days 0 hours 0 minutes 10 seconds 751 msec
