
                                 *****************
                                 * O   R   C   A *
                                 *****************

           --- An Ab Initio, DFT and Semiempirical electronic structure package ---

                  #######################################################
                  #                        -***-                        #
                  #  Department of molecular theory and spectroscopy    #
                  #              Directorship: Frank Neese              #
                  # Max Planck Institute for Chemical Energy Conversion #
                  #                  D-45470 Muelheim/Ruhr              #
                  #                       Germany                       #
                  #                                                     #
                  #                  All rights reserved                #
                  #                        -***-                        #
                  #######################################################


                         Program Version 4.0.0.2 - RELEASE -


 With contributions from (in alphabetic order):
   Daniel Aravena         : Magnetic Properties
   Michael Atanasov       : Ab Initio Ligand Field Theory
   Ute Becker             : Parallelization
   Martin Brehm           : Molecular dynamics
   Dmytro Bykov           : SCF Hessian
   Vijay G. Chilkuri      : MRCI spin determinant printing
   Dipayan Datta          : RHF DLPNO-CCSD density
   Achintya Kumar Dutta   : EOM-CC, STEOM-CC
   Dmitry Ganyushin       : Spin-Orbit,Spin-Spin,Magnetic field MRCI
   Yang Guo               : DLPNO-NEVPT2, CIM, IAO-localization
   Andreas Hansen         : Spin unrestricted coupled pair/coupled cluster methods
   Lee Huntington         : MR-EOM, pCC
   Robert Izsak           : Overlap fitted RIJCOSX, COSX-SCS-MP3, EOM
   Christian Kollmar      : KDIIS, OOCD, Brueckner-CCSD(T), CCSD density
   Simone Kossmann        : Meta GGA functionals, TD-DFT gradient, OOMP2, MP2 Hessian
   Martin Krupicka        : AUTO-CI
   Dagmar Lenk            : GEPOL surface
   Dimitrios Liakos       : Extrapolation schemes; parallel MDCI
   Dimitrios Manganas     : ROCIS; embedding schemes
   Dimitrios Pantazis     : SARC Basis sets
   Taras Petrenko         : DFT Hessian,TD-DFT gradient, ASA, ECA, R-Raman, ABS, FL, XAS/XES, NRVS
   Peter Pinski           : DLPNO-MP2
   Christoph Reimann      : Effective Core Potentials
   Marius Retegan         : Local ZFS, SOC
   Christoph Riplinger    : Optimizer, TS searches, QM/MM, DLPNO-CCSD(T), (RO)-DLPNO pert. Triples
   Tobias Risthaus        : Range-separated hybrids, TD-DFT gradient, RPA, STAB
   Michael Roemelt        : Restricted open shell CIS
   Masaaki Saitow         : Open-shell DLPNO
   Barbara Sandhoefer     : DKH picture change effects
   Kantharuban Sivalingam : CASSCF convergence, NEVPT2, FIC-MRCI
   Georgi Stoychev        : AutoAux
   Boris Wezisla          : Elementary symmetry handling
   Frank Wennmohs         : Technical directorship


 We gratefully acknowledge several colleagues who have allowed us to
 interface, adapt or use parts of their codes:
   Stefan Grimme, W. Hujo, H. Kruse,             : VdW corrections, initial TS optimization,
                  C. Bannwarth                     DFT functionals, gCP, sTDA/sTD-DF
   Ed Valeev                                     : LibInt (2-el integral package), F12 methods
   Garnet Chan, S. Sharma, J. Yang, R. Olivares  : DMRG
   Ulf Ekstrom                                   : XCFun DFT Library
   Mihaly Kallay                                 : mrcc  (arbitrary order and MRCC methods)
   Jiri Pittner, Ondrej Demel                    : Mk-CCSD
   Frank Weinhold                                : gennbo (NPA and NBO analysis)
   Christopher J. Cramer and Donald G. Truhlar   : smd solvation model


 Your calculation uses the libint2 library for the computation of 2-el integrals
 For citations please refer to: http://libint.valeyev.net

 This ORCA versions uses:
   CBLAS   interface :  Fast vector & matrix operations
   LAPACKE interface :  Fast linear algebra routines
   SCALAPACK package :  Parallel linear algebra routines


Your calculation utilizes the atom-pairwise dispersion correction
with the zero-damping scheme (D30)
Cite in your paper:
S.Grimme, J.Antony, S.Ehrlich and H.Krieg, J.Chem.Phys., 132, (2010), 154104 
   

XCFun DFT library Copyright 2009-2010 Ulf Ekstrom and contributors.
See http://admol.org/xcfun for more information. This is free soft-
ware; see the source code for copying conditions. There is ABSOLUTELY
NO WARRANTY; not even for MERCHANTABILITY or FITNESS FOR A PARTICULAR
PURPOSE. For details see the documentation. Scientific users of this 
library should cite U. Ekstrom, L. Visscher, R. Bast, A. J. Thorvald-
sen and K. Ruud; J.Chem.Theor.Comp. 2010, DOI: 10.1021/ct100117s
XCFun Version 0.99 
Your calculation utilizes the basis: 6-31G(d)
   H-He, Li-Ne : W. J. Hehre, R. Ditchfield and J.A. Pople, J. Chem. Phys. 56, 2257 (1972).
                 Note: He and Ne are unpublished basis sets taken from the Gaussian program.
                 Note: Li and B from J. D. Dill and J. A. Pople, J. Chem. Phys. 62, 2921 (1975).
   Na - Ar     : M. M. Francl, W. J. Pietro, W. J. Hehre, J. S. Binkley, M. S. Gordon, 
                 D. J. DeFrees and J. A. Pople, J. Chem. Phys. 77, 3654 (1982).
   K - Zn      : V. A. Rassolov, J. A. Pople, M. A. Ratner, and T. L. Windus, J. Chem. Phys. 109, 1223 (1998).

================================================================================
                                        WARNINGS
                       Please study these warnings very carefully!
================================================================================

Warning: TCutStore was < 0. Adjusted to Thresh (uncritical)

INFO   : the flag for use of LIBINT has been found!

================================================================================
                                       INPUT FILE
================================================================================
NAME = initial21.inp
|  1> ! WB97X-D3 6-31G(d) VerySlowConv
|  2> ! KDIIS NOSOSCF
|  3> %base "Scan_21"
|  4> 
|  5> %scf
|  6> maxiter 999
|  7> end
|  8> 
|  9> * xyz 0 1
| 10> C         -1.379645453202    1.613610000000    0.000000000000
| 11> O          1.120605453202    1.613610000000    0.000000000000
| 12> **                         ****END OF INPUT****
================================================================================

                       ****************************
                       * Single Point Calculation *
                       ****************************

---------------------------------
CARTESIAN COORDINATES (ANGSTROEM)
---------------------------------
  C     -1.379645    1.613610    0.000000
  O      1.120605    1.613610    0.000000

----------------------------
CARTESIAN COORDINATES (A.U.)
----------------------------
  NO LB      ZA    FRAG     MASS         X           Y           Z
   0 C     6.0000    0    12.011   -2.607152    3.049281    0.000000
   1 O     8.0000    0    15.999    2.117637    3.049281    0.000000

--------------------------------
INTERNAL COORDINATES (ANGSTROEM)
--------------------------------
 C      0   0   0     0.000000000000     0.00000000     0.00000000
 O      1   0   0     2.500250906404     0.00000000     0.00000000

---------------------------
INTERNAL COORDINATES (A.U.)
---------------------------
 C      0   0   0     0.000000000000     0.00000000     0.00000000
 O      1   0   0     4.724789479192     0.00000000     0.00000000

---------------------
BASIS SET INFORMATION
---------------------
There are 2 groups of distinct atoms

 Group   1 Type C   : 10s4p1d contracted to 3s2p1d pattern {631/31/1}
 Group   2 Type O   : 10s4p1d contracted to 3s2p1d pattern {631/31/1}

Atom   0C    basis set group =>   1
Atom   1O    basis set group =>   2
------------------------------------------------------------------------------
                           ORCA GTO INTEGRAL CALCULATION
------------------------------------------------------------------------------

                         BASIS SET STATISTICS AND STARTUP INFO

 # of primitive gaussian shells          ...   30
 # of primitive gaussian functions       ...   54
 # of contracted shells                  ...   12
 # of contracted basis functions         ...   28
 Highest angular momentum                ...    2
 Maximum contraction depth               ...    6
 Integral package used                   ... LIBINT
 Integral threshhold            Thresh   ...  1.000e-10
 Primitive cut-off              TCut     ...  1.000e-11


------------------------------ INTEGRAL EVALUATION ----------------------------


 * One electron integrals 
 Pre-screening matrix                    ... done
 Shell pair data                         ... done (   0.000 sec)

-------------------------------------------------------------------------------
                                 ORCA SCF
-------------------------------------------------------------------------------

------------
SCF SETTINGS
------------
Hamiltonian:
 Density Functional     Method          .... DFT(GTOs)
 Exchange Functional    Exchange        .... WB97X-D3
 Correlation Functional Correlation     .... WB97X-D3
 Gradients option       PostSCFGGA      .... off
 Hybrid DFT is turned on
   Fraction HF Exchange ScalHFX         ....  0.195728
   Scaling of DF-GGA-X  ScalDFX         ....  0.000000
   Scaling of DF-GGA-C  ScalDFC         ....  1.000000
   Scaling of DF-LDA-C  ScalLDAC        ....  1.000000
   Perturbative correction              ....  0.000000
 Long-range corrected/Screened/Range-Separated Hybrid DFT is turned on
   Amount of maximum screened exact exchange              ....  0.804272
   Range separation parameter mu (erf(mu*r12)/r12)        ....  0.250000


General Settings:
 Integral files         IntName         .... Scan_21
 Hartree-Fock type      HFTyp           .... RHF
 Total Charge           Charge          ....    0
 Multiplicity           Mult            ....    1
 Number of Electrons    NEL             ....   14
 Basis Dimension        Dim             ....   28
 Nuclear Repulsion      ENuc            ....     10.1591827978 Eh

Convergence Acceleration:
 DIIS                   CNVDIIS         .... on
   Start iteration      DIISMaxIt       ....     0
   Startup error        DIISStart       ....  0.200000
   # of expansion vecs  DIISMaxEq       ....     5
   Bias factor          DIISBfac        ....   1.050
   Max. coefficient     DIISMaxC        ....  10.000
 Newton-Raphson         CNVNR           .... off
 SOSCF                  CNVSOSCF        .... off
 Level Shifting         CNVShift        .... off
 Zerner damping         CNVZerner       .... off
 Static damping         CNVDamp         .... off
 Fernandez-Rico         CNVRico         .... off

SCF Procedure:
 Maximum # iterations   MaxIter         ....   999
 SCF integral mode      SCFMode         .... Direct
   Integral package                     .... LIBINT
 Reset frequeny         DirectResetFreq ....    20
 Integral Threshold     Thresh          ....  1.000e-10 Eh
 Primitive CutOff       TCut            ....  1.000e-11 Eh

Convergence Tolerance:
 Convergence Check Mode ConvCheckMode   .... All-Criteria
 Convergence forced     ConvForced      .... 0
 Energy Change          TolE            ....  1.000e-06 Eh
 Max Density Change     TolMaxP         ....  1.000e-05
 RMS Density Change     TolRMSP         ....  1.000e-06
 DIIS Error             TolErr          ....  1.000e-06


Diagonalization of the overlap matrix:
Smallest eigenvalue                        ... 1.447e-01
Time for diagonalization                   ...    0.001 sec
Threshold for overlap eigenvalues          ... 1.000e-08
Number of eigenvalues below threshold      ... 0
Time for construction of square roots      ...    0.008 sec
Total time needed                          ...    0.008 sec

-------------------
DFT GRID GENERATION
-------------------

General Integration Accuracy     IntAcc      ...  4.340
Radial Grid Type                 RadialGrid  ... Gauss-Chebyshev
Angular Grid (max. acc.)         AngularGrid ... Lebedev-110
Angular grid pruning method      GridPruning ... 3 (G Style)
Weight generation scheme         WeightScheme... Becke
Basis function cutoff            BFCut       ...    1.0000e-10
Integration weight cutoff        WCut        ...    1.0000e-14
Grids for H and He will be reduced by one unit

# of grid points (after initial pruning)     ...   3372 (   0.0 sec)
# of grid points (after weights+screening)   ...   3355 (   0.0 sec)
nearest neighbour list constructed           ...    0.0 sec
Grid point re-assignment to atoms done       ...    0.0 sec
Grid point division into batches done        ...    0.0 sec
Reduced shell lists constructed in    0.0 sec

Total number of grid points                  ...     3355
Total number of batches                      ...       54
Average number of points per batch           ...       62
Average number of grid points per atom       ...     1678
Average number of shells per batch           ...     9.56 (79.70%)
Average number of basis functions per batch  ...    23.35 (83.38%)
Average number of large shells per batch     ...     8.55 (89.35%)
Average number of large basis fcns per batch ...    20.69 (88.63%)
Maximum spatial batch extension              ...  17.79, 25.60, 31.36 au
Average spatial batch extension              ...   5.99,  7.34,  7.36 au

Time for grid setup =    0.022 sec

------------------------------
INITIAL GUESS: MODEL POTENTIAL
------------------------------
Loading Hartree-Fock densities                     ... done
Calculating cut-offs                               ... done
Setting up the integral package                    ... done
Initializing the effective Hamiltonian             ... done
Starting the Coulomb interaction                   ... done (   0.0 sec)
Reading the grid                                   ... done
Mapping shells                                     ... done
Starting the XC term evaluation                    ... done (   0.0 sec)
  promolecular density results
     # of electrons  =     14.000297431
     EX              =    -12.948910086
     EC              =     -0.406195738
     EX+EC           =    -13.355105824
Transforming the Hamiltonian                       ... done (   0.0 sec)
Diagonalizing the Hamiltonian                      ... done (   0.0 sec)
Back transforming the eigenvectors                 ... done (   0.0 sec)
Now organizing SCF variables                       ... done
                      ------------------
                      INITIAL GUESS DONE (   0.1 sec)
                      ------------------
--------------
SCF ITERATIONS
--------------
ITER       Energy         Delta-E        Max-DP      RMS-DP      [F,P]   Gradient Norm
               ***  Starting incremental Fock matrix formation  ***
                             ****Resetting KDIIS****
                             ****Turning on KDIIS(Cayley)****
  0   -111.6604872095   0.000000000000 0.07611556  0.00774799  0.3427337   0.291559677
  1   -111.8478803358  -0.187393126281 0.12645881  0.01301803  0.3230954   0.239791383
  2   -112.1039395610  -0.256059225187 0.22908490  0.01869643  0.2927543   0.176273841
  3   -112.4161308548  -0.312191293747 0.18726362  0.02316251  0.2060308   0.113494798
  4   -112.5774871344  -0.161356279686 0.18430845  0.01874554  0.1598151   0.161712694
  5   -112.5536708809   0.023816253500 0.06903488  0.00848303  0.1732306   0.101956432
  6   -112.6543928083  -0.100721927360 0.12438038  0.01149071  0.1200848   0.075623961
  7   -112.5307397698   0.123653038494 0.31541645  0.03844338  0.1765879   0.102396979
  8   -112.6221531106  -0.091413340792 0.12514817  0.01653758  0.1672517   0.118190737
  9   -112.7312274647  -0.109074354137 0.02520219  0.00359209  0.0418982   0.026493885
 10   -112.7354435037  -0.004216038909 0.01067099  0.00117133  0.0110082   0.010386069
 11   -112.7365797008  -0.001136197176 0.04161363  0.00493028  0.0107281   0.008001812
 12   -112.7322949862   0.004284714591 0.08494107  0.00965579  0.0520339   0.028282061
 13   -112.7311197407   0.001175245510 0.22311641  0.01807056  0.0147814   0.010643287
 14   -112.7451119068  -0.013992166058 0.16223118  0.01279933  0.0131267   0.011314861
 15   -112.7498321627  -0.004720255919 0.30043932  0.02299384  0.0330083   0.025324910
 16   -112.7369672702   0.012864892456 0.06802533  0.00523287  0.0278041   0.016143113
 17   -112.7415500699  -0.004582799639 0.05456435  0.00440571  0.0217014   0.011566680
 18   -112.7451013213  -0.003551251428 0.05319925  0.00498145  0.0180342   0.009262987
 19   -112.7419659162   0.003135405114 0.37733790  0.03750800  0.0054918   0.004847404
               *** Restarting incremental Fock matrix formation ***
                             ****Resetting KDIIS****
 20   -112.6106706872   0.131295228994 0.03163507  0.00283564  0.1381151   0.117229838
 21   -112.6537030808  -0.043032393543 0.05962233  0.00542797  0.1003249   0.082405736
 22   -112.7000538946  -0.046350813891 0.03086928  0.00207821  0.0253153   0.022124775
 23   -112.7033795349  -0.003325640217 0.11996383  0.00784144  0.0261750   0.021391381
 24   -112.7067832180  -0.003403683094 0.02644963  0.00243733  0.0499323   0.038504699
 25   -112.7157043752  -0.008921157278 0.14740942  0.01309234  0.0355199   0.027608825
 26   -112.7289290615  -0.013224686278 0.04303643  0.00420126  0.0326946   0.018265863
 27   -112.7329575892  -0.004028527704 0.02688315  0.00201714  0.0172072   0.015211535
 28   -112.7330201673  -0.000062578088 0.06756342  0.00508372  0.0143682   0.006027068
 29   -112.7368537933  -0.003833625952 0.11193015  0.00896198  0.0081140   0.006995321
 30   -112.7427186495  -0.005864856216 0.20062168  0.01625125  0.0136786   0.011884612
 31   -112.7519169883  -0.009198338866 0.31333392  0.02386553  0.0237573   0.019160256
 32   -112.7344080722   0.017508916126 0.00554709  0.00070844  0.0409312   0.025241398
 33   -112.7347858832  -0.000377810948 0.04453434  0.00425089  0.0371975   0.022405332
 34   -112.7390549354  -0.004269052211 0.05730340  0.00515523  0.0259396   0.013968123
 35   -112.7407708950  -0.001715959675 0.17794807  0.01777839  0.0222546   0.011675065
 36   -112.7409736530  -0.000202757918 0.44724852  0.04123658  0.0308394   0.021803403
 37   -112.7170737161   0.023899936909 0.47920051  0.03924982  0.0367128   0.028569127
 38   -112.7463151266  -0.029241410554 0.15470096  0.01202083  0.0324113   0.026514618
 39   -112.7501798718  -0.003864745205 0.01815191  0.00157847  0.0138559   0.010554183
               *** Restarting incremental Fock matrix formation ***
                             ****Resetting KDIIS****
 40   -112.7511821938  -0.001002321959 0.00495688  0.00055485  0.0139013   0.011142001
 41   -112.7520121747  -0.000829980882 0.00521844  0.00045512  0.0083754   0.005788689
 42   -112.7523812245  -0.000369049797 0.03927178  0.00325558  0.0078561   0.005428993
 43   -112.7547204520  -0.002339227519 0.21081084  0.01837586  0.0057951   0.004042883
 44   -112.7576520312  -0.002931579182 0.16879010  0.01404466  0.0245858   0.014756372
 45   -112.7573879803   0.000264050834 0.08128714  0.00689001  0.0096697   0.005096048
 46   -112.7602406020  -0.002852621659 0.02461616  0.00226784  0.0024206   0.001875118
 47   -112.7605451523  -0.000304550281 0.03868396  0.00313885  0.0042632   0.002653684
 48   -112.7600244464   0.000520705868 0.04180685  0.00371891  0.0064005   0.003354223
 49   -112.7606856086  -0.000661162200 0.00480980  0.00048106  0.0007264   0.000544265
 50   -112.7606944819  -0.000008873260 0.00267281  0.00023182  0.0007791   0.000430787
                          ***Energy convergence achieved***
 51   -112.7606952215  -0.000000739671 0.00408972  0.00041475  0.0001947   0.000159037
 52   -112.7606943383   0.000000883261 0.00371795  0.00035041  0.0003790   0.000214422
 53   -112.7606962945  -0.000001956287 0.00116343  0.00010875  0.0002054   0.000114179
                          ***Energy convergence achieved***
 54   -112.7606968531  -0.000000558541 0.00001834  0.00000166  0.0000042   0.000002200
                           ***RMSP convergence achieved***
                           ***MAXP convergence achieved***
                    *** KDIIS BlockDiag ( 0.000 sec) ***

               *****************************************************
               *                     SUCCESS                       *
               *           SCF CONVERGED AFTER  55 CYCLES          *
               *****************************************************

Setting up the final grid:

General Integration Accuracy     IntAcc      ...  4.670
Radial Grid Type                 RadialGrid  ... Gauss-Chebyshev
Angular Grid (max. acc.)         AngularGrid ... Lebedev-302
Angular grid pruning method      GridPruning ... 3 (G Style)
Weight generation scheme         WeightScheme... Becke
Basis function cutoff            BFCut       ...    1.0000e-10
Integration weight cutoff        WCut        ...    1.0000e-14
Grids for H and He will be reduced by one unit

# of grid points (after initial pruning)     ...  12424 (   0.0 sec)
# of grid points (after weights+screening)   ...  12404 (   0.0 sec)
nearest neighbour list constructed           ...    0.0 sec
Grid point re-assignment to atoms done       ...    0.0 sec
Grid point division into batches done        ...    0.0 sec
Reduced shell lists constructed in    0.1 sec

Total number of grid points                  ...    12404
Total number of batches                      ...      195
Average number of points per batch           ...       63
Average number of grid points per atom       ...     6202
Average number of shells per batch           ...     8.65 (72.11%)
Average number of basis functions per batch  ...    21.38 (76.35%)
Average number of large shells per batch     ...     7.28 (84.08%)
Average number of large basis fcns per batch ...    17.71 (82.86%)
Maximum spatial batch extension              ...  18.35, 20.64, 19.94 au
Average spatial batch extension              ...   3.98,  4.43,  4.41 au

Final grid set up in    0.1 sec
Final integration                            ... done (   0.1 sec)
Change in XC energy                          ...    -0.000031579
Integrated number of electrons               ...    14.000015891
Previous integrated no of electrons          ...    13.999986770

----------------
TOTAL SCF ENERGY
----------------

Total Energy       :         -112.76072843 Eh           -3068.37541 eV

Components:
Nuclear Repulsion  :           10.15918280 Eh             276.44542 eV
Electronic Energy  :         -122.91991123 Eh           -3344.82083 eV
One Electron Energy:         -174.16893304 Eh           -4739.37761 eV
Two Electron Energy:           51.24902181 Eh            1394.55678 eV

Virial components:
Potential Energy   :         -224.56535735 Eh           -6110.73404 eV
Kinetic Energy     :          111.80462892 Eh            3042.35862 eV
Virial Ratio       :            2.00855152


DFT components:
N(Alpha)           :        7.000007945327 electrons
N(Beta)            :        7.000007945327 electrons
N(Total)           :       14.000015890655 electrons
E(XC)              :       -9.487687508757 Eh       

---------------
SCF CONVERGENCE
---------------

  Last Energy change         ...   -3.2995e-10  Tolerance :   1.0000e-06
  Last MAX-Density change    ...    1.0068e-06  Tolerance :   1.0000e-05
  Last RMS-Density change    ...    1.1709e-07  Tolerance :   1.0000e-06
  Last DIIS Error            ...    2.6118e-07  Tolerance :   1.0000e-06

             **** THE GBW FILE WAS UPDATED (Scan_21.gbw) ****
             **** DENSITY FILE WAS UPDATED (Scan_21.scfp.tmp) ****
             **** ENERGY FILE WAS UPDATED (Scan_21.en.tmp) ****
----------------
ORBITAL ENERGIES
----------------

  NO   OCC          E(Eh)            E(eV) 
   0   2.0000     -19.287029      -524.8267 
   1   2.0000     -10.552673      -287.1528 
   2   2.0000      -0.955723       -26.0065 
   3   2.0000      -0.720203       -19.5977 
   4   2.0000      -0.376718       -10.2510 
   5   2.0000      -0.358997        -9.7688 
   6   2.0000      -0.358997        -9.7688 
   7   0.0000      -0.109258        -2.9731 
   8   0.0000      -0.109258        -2.9731 
   9   0.0000      -0.068576        -1.8660 
  10   0.0000       0.586980        15.9725 
  11   0.0000       0.586980        15.9725 
  12   0.0000       0.602028        16.3820 
  13   0.0000       0.664359        18.0781 
  14   0.0000       1.038029        28.2462 
  15   0.0000       1.038029        28.2462 
  16   0.0000       1.063473        28.9386 
  17   0.0000       1.263511        34.3819 
  18   0.0000       1.675241        45.5856 
  19   0.0000       1.676427        45.6179 
  20   0.0000       1.696004        46.1506 
  21   0.0000       1.696004        46.1506 
  22   0.0000       1.753454        47.7139 
  23   0.0000       1.935992        52.6810 
  24   0.0000       1.935992        52.6810 
  25   0.0000       1.962457        53.4012 
  26   0.0000       1.963957        53.4420 
  27   0.0000       2.008688        54.6592 

                    ********************************
                    * MULLIKEN POPULATION ANALYSIS *
                    ********************************

-----------------------
MULLIKEN ATOMIC CHARGES
-----------------------
   0 C :    0.275905
   1 O :   -0.275905
Sum of atomic charges:   -0.0000000

--------------------------------
MULLIKEN REDUCED ORBITAL CHARGES
--------------------------------
  0 C s       :     3.988656  s :     3.988656
      pz      :     0.073834  p :     1.734855
      px      :     1.587188
      py      :     0.073834
      dz2     :     0.000082  d :     0.000584
      dxz     :     0.000127
      dyz     :     0.000000
      dx2y2   :     0.000247
      dxy     :     0.000127
  1 O s       :     3.997867  s :     3.997867
      pz      :     1.926008  p :     4.277126
      px      :     0.425109
      py      :     1.926008
      dz2     :     0.000213  d :     0.000912
      dxz     :     0.000031
      dyz     :     0.000000
      dx2y2   :     0.000638
      dxy     :     0.000031


                     *******************************
                     * LOEWDIN POPULATION ANALYSIS *
                     *******************************

----------------------
LOEWDIN ATOMIC CHARGES
----------------------
   0 C :    0.283284
   1 O :   -0.283284

-------------------------------
LOEWDIN REDUCED ORBITAL CHARGES
-------------------------------
  0 C s       :     3.982075  s :     3.982075
      pz      :     0.074504  p :     1.733963
      px      :     1.584954
      py      :     0.074504
      dz2     :     0.000101  d :     0.000678
      dxz     :     0.000137
      dyz     :     0.000000
      dx2y2   :     0.000303
      dxy     :     0.000137
  1 O s       :     3.990410  s :     3.990410
      pz      :     1.925328  p :     4.291404
      px      :     0.440748
      py      :     1.925328
      dz2     :     0.000352  d :     0.001471
      dxz     :     0.000031
      dyz     :     0.000000
      dx2y2   :     0.001057
      dxy     :     0.000031


                      *****************************
                      * MAYER POPULATION ANALYSIS *
                      *****************************

  NA   - Mulliken gross atomic population
  ZA   - Total nuclear charge
  QA   - Mulliken gross atomic charge
  VA   - Mayer's total valence
  BVA  - Mayer's bonded valence
  FA   - Mayer's free valence

  ATOM       NA         ZA         QA         VA         BVA        FA
  0 C      5.7241     6.0000     0.2759     0.9539     0.9539     0.0000
  1 O      8.2759     8.0000    -0.2759     0.9539     0.9539    -0.0000

  Mayer bond orders larger than 0.1
B(  0-C ,  1-O ) :   0.9539 

-------
TIMINGS
-------

Total SCF time: 0 days 0 hours 0 min 19 sec 

Total time                  ....      19.399 sec
Sum of individual times     ....      18.855 sec  ( 97.2%)

Fock matrix formation       ....      18.566 sec  ( 95.7%)
  XC integration            ....       2.427 sec  ( 13.1% of F)
    Basis function eval.    ....       0.499 sec  ( 20.6% of XC)
    Density eval.           ....       0.114 sec  (  4.7% of XC)
    XC-Functional eval.     ....       0.599 sec  ( 24.7% of XC)
    XC-Potential eval.      ....       0.072 sec  (  3.0% of XC)
Diagonalization             ....       0.029 sec  (  0.2%)
Density matrix formation    ....       0.001 sec  (  0.0%)
Population analysis         ....       0.010 sec  (  0.1%)
Initial guess               ....       0.127 sec  (  0.7%)
Orbital Transformation      ....       0.000 sec  (  0.0%)
Orbital Orthonormalization  ....       0.000 sec  (  0.0%)
DIIS solution               ....       0.000 sec  (  0.0%)
Grid generation             ....       0.122 sec  (  0.6%)


-------------------------------------------------------------------------------
                          DFT DISPERSION CORRECTION                            
                                                                               
                              DFTD3 V3.1  Rev 1                                
                              USING zero damping                               
-------------------------------------------------------------------------------
The omegaB97X-D3 functional is recognized. Fit by Chai et al.
Active option DFTDOPT                   ...         3   

molecular C6(AA) [au] = 117.423390 


            DFT-D V3
 parameters
 s6 scaling factor         :     1.0000 
 rs6 scaling factor        :     1.2810 
 s8 scaling factor         :     1.0000 
 rs8 scaling factor        :     1.0940 
 Damping factor alpha6     :    14.0000 
 Damping factor alpha8     :    16.0000 
 ad hoc parameters k1-k3   :    16.0000     1.3333    -4.0000 

 Edisp/kcal,au: -0.045563841287  -0.000072610595 
 E6   /kcal   :  -0.005279842 
 E8   /kcal   :  -0.040283999 
 % E8         :  88.412210526 

-------------------------   ----------------
Dispersion correction           -0.000072611
-------------------------   ----------------


-------------------------   --------------------
FINAL SINGLE POINT ENERGY      -112.760801043033
-------------------------   --------------------


                            ***************************************
                            *     ORCA property calculations      *
                            ***************************************

                                    ---------------------
                                    Active property flags
                                    ---------------------
   (+) Dipole Moment


------------------------------------------------------------------------------
                       ORCA ELECTRIC PROPERTIES CALCULATION
------------------------------------------------------------------------------

Dipole Moment Calculation                       ... on
Quadrupole Moment Calculation                   ... off
Polarizability Calculation                      ... off
GBWName                                         ... Scan_21.gbw
Electron density file                           ... Scan_21.scfp.tmp

-------------
DIPOLE MOMENT
-------------
                                X             Y             Z
Electronic contribution:     -1.30363       0.00000      -0.00000
Nuclear contribution   :      0.01586      -0.00000       0.00000
                        -----------------------------------------
Total Dipole Moment    :     -1.28777       0.00000      -0.00000
                        -----------------------------------------
Magnitude (a.u.)       :      1.28777
Magnitude (Debye)      :      3.27325


Timings for individual modules:

Sum of individual times         ...       19.866 sec (=   0.331 min)
GTO integral calculation        ...        0.438 sec (=   0.007 min)   2.2 %
SCF iterations                  ...       19.428 sec (=   0.324 min)  97.8 %
                             ****ORCA TERMINATED NORMALLY****
TOTAL RUN TIME: 0 days 0 hours 0 minutes 20 seconds 261 msec
