
                                 *****************
                                 * O   R   C   A *
                                 *****************

           --- An Ab Initio, DFT and Semiempirical electronic structure package ---

                  #######################################################
                  #                        -***-                        #
                  #  Department of molecular theory and spectroscopy    #
                  #              Directorship: Frank Neese              #
                  # Max Planck Institute for Chemical Energy Conversion #
                  #                  D-45470 Muelheim/Ruhr              #
                  #                       Germany                       #
                  #                                                     #
                  #                  All rights reserved                #
                  #                        -***-                        #
                  #######################################################


                         Program Version 4.0.0.2 - RELEASE -


 With contributions from (in alphabetic order):
   Daniel Aravena         : Magnetic Properties
   Michael Atanasov       : Ab Initio Ligand Field Theory
   Ute Becker             : Parallelization
   Martin Brehm           : Molecular dynamics
   Dmytro Bykov           : SCF Hessian
   Vijay G. Chilkuri      : MRCI spin determinant printing
   Dipayan Datta          : RHF DLPNO-CCSD density
   Achintya Kumar Dutta   : EOM-CC, STEOM-CC
   Dmitry Ganyushin       : Spin-Orbit,Spin-Spin,Magnetic field MRCI
   Yang Guo               : DLPNO-NEVPT2, CIM, IAO-localization
   Andreas Hansen         : Spin unrestricted coupled pair/coupled cluster methods
   Lee Huntington         : MR-EOM, pCC
   Robert Izsak           : Overlap fitted RIJCOSX, COSX-SCS-MP3, EOM
   Christian Kollmar      : KDIIS, OOCD, Brueckner-CCSD(T), CCSD density
   Simone Kossmann        : Meta GGA functionals, TD-DFT gradient, OOMP2, MP2 Hessian
   Martin Krupicka        : AUTO-CI
   Dagmar Lenk            : GEPOL surface
   Dimitrios Liakos       : Extrapolation schemes; parallel MDCI
   Dimitrios Manganas     : ROCIS; embedding schemes
   Dimitrios Pantazis     : SARC Basis sets
   Taras Petrenko         : DFT Hessian,TD-DFT gradient, ASA, ECA, R-Raman, ABS, FL, XAS/XES, NRVS
   Peter Pinski           : DLPNO-MP2
   Christoph Reimann      : Effective Core Potentials
   Marius Retegan         : Local ZFS, SOC
   Christoph Riplinger    : Optimizer, TS searches, QM/MM, DLPNO-CCSD(T), (RO)-DLPNO pert. Triples
   Tobias Risthaus        : Range-separated hybrids, TD-DFT gradient, RPA, STAB
   Michael Roemelt        : Restricted open shell CIS
   Masaaki Saitow         : Open-shell DLPNO
   Barbara Sandhoefer     : DKH picture change effects
   Kantharuban Sivalingam : CASSCF convergence, NEVPT2, FIC-MRCI
   Georgi Stoychev        : AutoAux
   Boris Wezisla          : Elementary symmetry handling
   Frank Wennmohs         : Technical directorship


 We gratefully acknowledge several colleagues who have allowed us to
 interface, adapt or use parts of their codes:
   Stefan Grimme, W. Hujo, H. Kruse,             : VdW corrections, initial TS optimization,
                  C. Bannwarth                     DFT functionals, gCP, sTDA/sTD-DF
   Ed Valeev                                     : LibInt (2-el integral package), F12 methods
   Garnet Chan, S. Sharma, J. Yang, R. Olivares  : DMRG
   Ulf Ekstrom                                   : XCFun DFT Library
   Mihaly Kallay                                 : mrcc  (arbitrary order and MRCC methods)
   Jiri Pittner, Ondrej Demel                    : Mk-CCSD
   Frank Weinhold                                : gennbo (NPA and NBO analysis)
   Christopher J. Cramer and Donald G. Truhlar   : smd solvation model


 Your calculation uses the libint2 library for the computation of 2-el integrals
 For citations please refer to: http://libint.valeyev.net

 This ORCA versions uses:
   CBLAS   interface :  Fast vector & matrix operations
   LAPACKE interface :  Fast linear algebra routines
   SCALAPACK package :  Parallel linear algebra routines


Your calculation utilizes the atom-pairwise dispersion correction
with the zero-damping scheme (D30)
Cite in your paper:
S.Grimme, J.Antony, S.Ehrlich and H.Krieg, J.Chem.Phys., 132, (2010), 154104 
   

XCFun DFT library Copyright 2009-2010 Ulf Ekstrom and contributors.
See http://admol.org/xcfun for more information. This is free soft-
ware; see the source code for copying conditions. There is ABSOLUTELY
NO WARRANTY; not even for MERCHANTABILITY or FITNESS FOR A PARTICULAR
PURPOSE. For details see the documentation. Scientific users of this 
library should cite U. Ekstrom, L. Visscher, R. Bast, A. J. Thorvald-
sen and K. Ruud; J.Chem.Theor.Comp. 2010, DOI: 10.1021/ct100117s
XCFun Version 0.99 
Your calculation utilizes the basis: 6-31G(d)
   H-He, Li-Ne : W. J. Hehre, R. Ditchfield and J.A. Pople, J. Chem. Phys. 56, 2257 (1972).
                 Note: He and Ne are unpublished basis sets taken from the Gaussian program.
                 Note: Li and B from J. D. Dill and J. A. Pople, J. Chem. Phys. 62, 2921 (1975).
   Na - Ar     : M. M. Francl, W. J. Pietro, W. J. Hehre, J. S. Binkley, M. S. Gordon, 
                 D. J. DeFrees and J. A. Pople, J. Chem. Phys. 77, 3654 (1982).
   K - Zn      : V. A. Rassolov, J. A. Pople, M. A. Ratner, and T. L. Windus, J. Chem. Phys. 109, 1223 (1998).

================================================================================
                                        WARNINGS
                       Please study these warnings very carefully!
================================================================================

Warning: TCutStore was < 0. Adjusted to Thresh (uncritical)

INFO   : the flag for use of LIBINT has been found!

================================================================================
                                       INPUT FILE
================================================================================
NAME = initial23.inp
|  1> ! WB97X-D3 6-31G(d) VerySlowConv
|  2> ! KDIIS NOSOSCF
|  3> %base "Scan_23"
|  4> 
|  5> %scf
|  6> maxiter 999
|  7> end
|  8> 
|  9> * xyz 0 1
| 10> C         -1.494403672136    1.613610000000    0.000000000000
| 11> O          1.235363672136    1.613610000000    0.000000000000
| 12> **                         ****END OF INPUT****
================================================================================

                       ****************************
                       * Single Point Calculation *
                       ****************************

---------------------------------
CARTESIAN COORDINATES (ANGSTROEM)
---------------------------------
  C     -1.494404    1.613610    0.000000
  O      1.235364    1.613610    0.000000

----------------------------
CARTESIAN COORDINATES (A.U.)
----------------------------
  NO LB      ZA    FRAG     MASS         X           Y           Z
   0 C     6.0000    0    12.011   -2.824014    3.049281    0.000000
   1 O     8.0000    0    15.999    2.334499    3.049281    0.000000

--------------------------------
INTERNAL COORDINATES (ANGSTROEM)
--------------------------------
 C      0   0   0     0.000000000000     0.00000000     0.00000000
 O      1   0   0     2.729767344272     0.00000000     0.00000000

---------------------------
INTERNAL COORDINATES (A.U.)
---------------------------
 C      0   0   0     0.000000000000     0.00000000     0.00000000
 O      1   0   0     5.158512689996     0.00000000     0.00000000

---------------------
BASIS SET INFORMATION
---------------------
There are 2 groups of distinct atoms

 Group   1 Type C   : 10s4p1d contracted to 3s2p1d pattern {631/31/1}
 Group   2 Type O   : 10s4p1d contracted to 3s2p1d pattern {631/31/1}

Atom   0C    basis set group =>   1
Atom   1O    basis set group =>   2
------------------------------------------------------------------------------
                           ORCA GTO INTEGRAL CALCULATION
------------------------------------------------------------------------------

                         BASIS SET STATISTICS AND STARTUP INFO

 # of primitive gaussian shells          ...   30
 # of primitive gaussian functions       ...   54
 # of contracted shells                  ...   12
 # of contracted basis functions         ...   28
 Highest angular momentum                ...    2
 Maximum contraction depth               ...    6
 Integral package used                   ... LIBINT
 Integral threshhold            Thresh   ...  1.000e-10
 Primitive cut-off              TCut     ...  1.000e-11


------------------------------ INTEGRAL EVALUATION ----------------------------


 * One electron integrals 
 Pre-screening matrix                    ... done
 Shell pair data                         ... done (   0.000 sec)

-------------------------------------------------------------------------------
                                 ORCA SCF
-------------------------------------------------------------------------------

------------
SCF SETTINGS
------------
Hamiltonian:
 Density Functional     Method          .... DFT(GTOs)
 Exchange Functional    Exchange        .... WB97X-D3
 Correlation Functional Correlation     .... WB97X-D3
 Gradients option       PostSCFGGA      .... off
 Hybrid DFT is turned on
   Fraction HF Exchange ScalHFX         ....  0.195728
   Scaling of DF-GGA-X  ScalDFX         ....  0.000000
   Scaling of DF-GGA-C  ScalDFC         ....  1.000000
   Scaling of DF-LDA-C  ScalLDAC        ....  1.000000
   Perturbative correction              ....  0.000000
 Long-range corrected/Screened/Range-Separated Hybrid DFT is turned on
   Amount of maximum screened exact exchange              ....  0.804272
   Range separation parameter mu (erf(mu*r12)/r12)        ....  0.250000


General Settings:
 Integral files         IntName         .... Scan_23
 Hartree-Fock type      HFTyp           .... RHF
 Total Charge           Charge          ....    0
 Multiplicity           Mult            ....    1
 Number of Electrons    NEL             ....   14
 Basis Dimension        Dim             ....   28
 Nuclear Repulsion      ENuc            ....      9.3050076417 Eh

Convergence Acceleration:
 DIIS                   CNVDIIS         .... on
   Start iteration      DIISMaxIt       ....     0
   Startup error        DIISStart       ....  0.200000
   # of expansion vecs  DIISMaxEq       ....     5
   Bias factor          DIISBfac        ....   1.050
   Max. coefficient     DIISMaxC        ....  10.000
 Newton-Raphson         CNVNR           .... off
 SOSCF                  CNVSOSCF        .... off
 Level Shifting         CNVShift        .... off
 Zerner damping         CNVZerner       .... off
 Static damping         CNVDamp         .... off
 Fernandez-Rico         CNVRico         .... off

SCF Procedure:
 Maximum # iterations   MaxIter         ....   999
 SCF integral mode      SCFMode         .... Direct
   Integral package                     .... LIBINT
 Reset frequeny         DirectResetFreq ....    20
 Integral Threshold     Thresh          ....  1.000e-10 Eh
 Primitive CutOff       TCut            ....  1.000e-11 Eh

Convergence Tolerance:
 Convergence Check Mode ConvCheckMode   .... All-Criteria
 Convergence forced     ConvForced      .... 0
 Energy Change          TolE            ....  1.000e-06 Eh
 Max Density Change     TolMaxP         ....  1.000e-05
 RMS Density Change     TolRMSP         ....  1.000e-06
 DIIS Error             TolErr          ....  1.000e-06


Diagonalization of the overlap matrix:
Smallest eigenvalue                        ... 1.646e-01
Time for diagonalization                   ...    0.001 sec
Threshold for overlap eigenvalues          ... 1.000e-08
Number of eigenvalues below threshold      ... 0
Time for construction of square roots      ...    0.009 sec
Total time needed                          ...    0.010 sec

-------------------
DFT GRID GENERATION
-------------------

General Integration Accuracy     IntAcc      ...  4.340
Radial Grid Type                 RadialGrid  ... Gauss-Chebyshev
Angular Grid (max. acc.)         AngularGrid ... Lebedev-110
Angular grid pruning method      GridPruning ... 3 (G Style)
Weight generation scheme         WeightScheme... Becke
Basis function cutoff            BFCut       ...    1.0000e-10
Integration weight cutoff        WCut        ...    1.0000e-14
Grids for H and He will be reduced by one unit

# of grid points (after initial pruning)     ...   3372 (   0.0 sec)
# of grid points (after weights+screening)   ...   3356 (   0.0 sec)
nearest neighbour list constructed           ...    0.0 sec
Grid point re-assignment to atoms done       ...    0.0 sec
Grid point division into batches done        ...    0.0 sec
Reduced shell lists constructed in    0.0 sec

Total number of grid points                  ...     3356
Total number of batches                      ...       54
Average number of points per batch           ...       62
Average number of grid points per atom       ...     1678
Average number of shells per batch           ...     9.51 (79.24%)
Average number of basis functions per batch  ...    23.22 (82.92%)
Average number of large shells per batch     ...     8.22 (86.42%)
Average number of large basis fcns per batch ...    19.85 (85.51%)
Maximum spatial batch extension              ...  18.14, 25.60, 31.36 au
Average spatial batch extension              ...   6.05,  7.34,  7.41 au

Time for grid setup =    0.023 sec

------------------------------
INITIAL GUESS: MODEL POTENTIAL
------------------------------
Loading Hartree-Fock densities                     ... done
Calculating cut-offs                               ... done
Setting up the integral package                    ... done
Initializing the effective Hamiltonian             ... done
Starting the Coulomb interaction                   ... done (   0.0 sec)
Reading the grid                                   ... done
Mapping shells                                     ... done
Starting the XC term evaluation                    ... done (   0.0 sec)
  promolecular density results
     # of electrons  =     14.000239489
     EX              =    -12.946041986
     EC              =     -0.404634614
     EX+EC           =    -13.350676600
Transforming the Hamiltonian                       ... done (   0.0 sec)
Diagonalizing the Hamiltonian                      ... done (   0.0 sec)
Back transforming the eigenvectors                 ... done (   0.0 sec)
Now organizing SCF variables                       ... done
                      ------------------
                      INITIAL GUESS DONE (   0.1 sec)
                      ------------------
--------------
SCF ITERATIONS
--------------
ITER       Energy         Delta-E        Max-DP      RMS-DP      [F,P]   Gradient Norm
               ***  Starting incremental Fock matrix formation  ***
                             ****Resetting KDIIS****
                             ****Turning on KDIIS(Cayley)****
  0   -111.4969183321   0.000000000000 0.08542170  0.00813568  0.3186610   0.291676886
  1   -111.6846826421  -0.187764309991 0.14530185  0.01427839  0.2710995   0.239623888
  2   -111.9610334973  -0.276350855235 0.24631793  0.01906431  0.2456305   0.160627884
  3   -112.2425524558  -0.281518958484 0.21179831  0.02453564  0.1999193   0.122991416
  4   -112.5304893302  -0.287936874445 0.21999768  0.01850555  0.1347203   0.128639648
  5   -112.5602114862  -0.029722155913 0.19414509  0.02031661  0.1485364   0.097035247
  6   -112.2660488140   0.294162672125 0.07218601  0.00541057  0.1859375   0.112770876
  7   -112.2326281340   0.033420680044 0.18930773  0.01845905  0.1738110   0.108299332
  8   -112.4590704316  -0.226442297571 0.24621220  0.02287438  0.1859505   0.126808623
  9   -112.2075787292   0.251491702339 0.18159290  0.02465633  0.1199653   0.092559209
 10   -112.4885897321  -0.281011002879 0.27347232  0.02612649  0.1830873   0.142342513
 11   -112.6777117853  -0.189122053166 0.18719167  0.01844361  0.0366204   0.033640521
 12   -112.5688313073   0.108880477974 0.18691950  0.01696215  0.1992823   0.143404724
 13   -112.6810350771  -0.112203769849 0.04711117  0.00506379  0.0545922   0.032040136
 14   -112.6766410742   0.004394002942 0.08080687  0.00706943  0.0624578   0.046123766
 15   -112.6905805459  -0.013939471710 0.00498536  0.00051317  0.0275797   0.023506474
 16   -112.6895014394   0.001079106533 0.05172506  0.00641820  0.0295798   0.024742140
 17   -112.7003307474  -0.010829308068 0.07026381  0.00560195  0.0126614   0.006233869
 18   -112.6949219879   0.005408759571 0.20647432  0.01851041  0.0167337   0.007581932
 19   -112.6798752774   0.015046710485 0.19887751  0.01647402  0.0297954   0.028319303
               *** Restarting incremental Fock matrix formation ***
                             ****Resetting KDIIS****
 20   -112.6918013715  -0.011926094078 0.00902320  0.00091365  0.0186800   0.017450922
 21   -112.6935422675  -0.001740896001 0.00594613  0.00052052  0.0070801   0.005968075
 22   -112.6939880928  -0.000445825310 0.02478228  0.00203335  0.0066505   0.005608933
 23   -112.6924724781   0.001515614669 0.22750804  0.01934666  0.0061695   0.005347656
 24   -112.6779788219   0.014493656241 0.51040088  0.04047156  0.0295609   0.026722149
 25   -112.7095156096  -0.031536787776 0.01018508  0.00107691  0.0320917   0.030381002
 26   -112.7129728768  -0.003457267133 0.11427998  0.00946163  0.0244552   0.023423119
 27   -112.7196256378  -0.006652760996 0.10020285  0.00750414  0.0359111   0.030296708
 28   -112.7185016905   0.001123947252 0.16983644  0.01739531  0.0161363   0.013515809
 29   -112.7345832481  -0.016081557533 0.05773976  0.00474900  0.0163962   0.009500572
 30   -112.7303677942   0.004215453809 0.03032585  0.00286125  0.0304713   0.015923375
 31   -112.7319415598  -0.001573765523 0.11866233  0.01154303  0.0266252   0.014912894
 32   -112.7253374228   0.006604136940 0.10314078  0.00905292  0.0185546   0.016922306
 33   -112.7368331672  -0.011495744350 0.04253405  0.00435893  0.0038224   0.003139602
 34   -112.7375037815  -0.000670614345 0.01776888  0.00162291  0.0096280   0.005236244
 35   -112.7379231844  -0.000419402883 0.01180967  0.00099665  0.0029692   0.001969885
 36   -112.7380252706  -0.000102086199 0.00551768  0.00043654  0.0012124   0.000641971
 37   -112.7380149334   0.000010337171 0.00265126  0.00025783  0.0019308   0.001082148
 38   -112.7380349194  -0.000019985949 0.00016619  0.00002009  0.0001149   0.000102469
                          ***Energy convergence achieved***
 39   -112.7380350335  -0.000000114070 0.00011850  0.00001372  0.0000458   0.000035524
               *** Restarting incremental Fock matrix formation ***
                             ****Resetting KDIIS****
                           ***RMSP convergence achieved***
                           ***MAXP convergence achieved***
                    *** KDIIS BlockDiag ( 0.000 sec) ***

               *****************************************************
               *                     SUCCESS                       *
               *           SCF CONVERGED AFTER  40 CYCLES          *
               *****************************************************

Setting up the final grid:

General Integration Accuracy     IntAcc      ...  4.670
Radial Grid Type                 RadialGrid  ... Gauss-Chebyshev
Angular Grid (max. acc.)         AngularGrid ... Lebedev-302
Angular grid pruning method      GridPruning ... 3 (G Style)
Weight generation scheme         WeightScheme... Becke
Basis function cutoff            BFCut       ...    1.0000e-10
Integration weight cutoff        WCut        ...    1.0000e-14
Grids for H and He will be reduced by one unit

# of grid points (after initial pruning)     ...  12424 (   0.0 sec)
# of grid points (after weights+screening)   ...  12406 (   0.0 sec)
nearest neighbour list constructed           ...    0.0 sec
Grid point re-assignment to atoms done       ...    0.0 sec
Grid point division into batches done        ...    0.0 sec
Reduced shell lists constructed in    0.1 sec

Total number of grid points                  ...    12406
Total number of batches                      ...      195
Average number of points per batch           ...       63
Average number of grid points per atom       ...     6203
Average number of shells per batch           ...     8.42 (70.20%)
Average number of basis functions per batch  ...    20.73 (74.03%)
Average number of large shells per batch     ...     6.98 (82.86%)
Average number of large basis fcns per batch ...    16.76 (80.83%)
Maximum spatial batch extension              ...  17.10, 20.64, 19.94 au
Average spatial batch extension              ...   3.99,  4.38,  4.36 au

Final grid set up in    0.1 sec
Final integration                            ... done (   0.1 sec)
Change in XC energy                          ...    -0.000126234
Integrated number of electrons               ...    13.999993483
Previous integrated no of electrons          ...    13.999601134

----------------
TOTAL SCF ENERGY
----------------

Total Energy       :         -112.73816131 Eh           -3067.76133 eV

Components:
Nuclear Repulsion  :            9.30500764 Eh             253.20213 eV
Electronic Energy  :         -122.04316895 Eh           -3320.96346 eV
One Electron Energy:         -172.44949447 Eh           -4692.58931 eV
Two Electron Energy:           50.40632552 Eh            1371.62585 eV

Virial components:
Potential Energy   :         -224.64275413 Eh           -6112.84011 eV
Kinetic Energy     :          111.90459282 Eh            3045.07878 eV
Virial Ratio       :            2.00744892


DFT components:
N(Alpha)           :        6.999996741306 electrons
N(Beta)            :        6.999996741306 electrons
N(Total)           :       13.999993482612 electrons
E(XC)              :       -9.505264190540 Eh       

---------------
SCF CONVERGENCE
---------------

  Last Energy change         ...   -4.1166e-08  Tolerance :   1.0000e-06
  Last MAX-Density change    ...    4.9629e-06  Tolerance :   1.0000e-05
  Last RMS-Density change    ...    5.3800e-07  Tolerance :   1.0000e-06
  Last DIIS Error            ...    2.0605e-05  Tolerance :   1.0000e-06

             **** THE GBW FILE WAS UPDATED (Scan_23.gbw) ****
             **** DENSITY FILE WAS UPDATED (Scan_23.scfp.tmp) ****
             **** ENERGY FILE WAS UPDATED (Scan_23.en.tmp) ****
----------------
ORBITAL ENERGIES
----------------

  NO   OCC          E(Eh)            E(eV) 
   0   2.0000     -19.291657      -524.9527 
   1   2.0000     -10.531858      -286.5864 
   2   2.0000      -0.959123       -26.0991 
   3   2.0000      -0.708871       -19.2894 
   4   2.0000      -0.365673        -9.9505 
   5   2.0000      -0.365673        -9.9505 
   6   2.0000      -0.363017        -9.8782 
   7   0.0000      -0.098245        -2.6734 
   8   0.0000      -0.098245        -2.6734 
   9   0.0000      -0.080440        -2.1889 
  10   0.0000       0.595563        16.2061 
  11   0.0000       0.595563        16.2061 
  12   0.0000       0.605529        16.4773 
  13   0.0000       0.641985        17.4693 
  14   0.0000       1.031211        28.0607 
  15   0.0000       1.031211        28.0607 
  16   0.0000       1.064003        28.9530 
  17   0.0000       1.241804        33.7912 
  18   0.0000       1.686375        45.8886 
  19   0.0000       1.687346        45.9150 
  20   0.0000       1.706217        46.4285 
  21   0.0000       1.706217        46.4285 
  22   0.0000       1.745316        47.4925 
  23   0.0000       1.925285        52.3897 
  24   0.0000       1.925285        52.3897 
  25   0.0000       1.950954        53.0882 
  26   0.0000       1.959354        53.3167 
  27   0.0000       1.960254        53.3412 

                    ********************************
                    * MULLIKEN POPULATION ANALYSIS *
                    ********************************

-----------------------
MULLIKEN ATOMIC CHARGES
-----------------------
   0 C :    0.236169
   1 O :   -0.236169
Sum of atomic charges:    0.0000000

--------------------------------
MULLIKEN REDUCED ORBITAL CHARGES
--------------------------------
  0 C s       :     3.994090  s :     3.994090
      pz      :     0.015256  p :     1.769494
      px      :     1.738983
      py      :     0.015256
      dz2     :     0.000045  d :     0.000247
      dxz     :     0.000034
      dyz     :     0.000000
      dx2y2   :     0.000134
      dxy     :     0.000034
  1 O s       :     3.999421  s :     3.999421
      pz      :     1.984707  p :     4.236189
      px      :     0.266776
      py      :     1.984707
      dz2     :     0.000138  d :     0.000559
      dxz     :     0.000003
      dyz     :     0.000000
      dx2y2   :     0.000414
      dxy     :     0.000003


                     *******************************
                     * LOEWDIN POPULATION ANALYSIS *
                     *******************************

----------------------
LOEWDIN ATOMIC CHARGES
----------------------
   0 C :    0.241403
   1 O :   -0.241403

-------------------------------
LOEWDIN REDUCED ORBITAL CHARGES
-------------------------------
  0 C s       :     3.991033  s :     3.991033
      pz      :     0.015458  p :     1.767297
      px      :     1.736380
      py      :     0.015458
      dz2     :     0.000049  d :     0.000267
      dxz     :     0.000036
      dyz     :     0.000000
      dx2y2   :     0.000146
      dxy     :     0.000036
  1 O s       :     3.996301  s :     3.996301
      pz      :     1.984502  p :     4.244264
      px      :     0.275259
      py      :     1.984502
      dz2     :     0.000208  d :     0.000838
      dxz     :     0.000003
      dyz     :     0.000000
      dx2y2   :     0.000624
      dxy     :     0.000003


                      *****************************
                      * MAYER POPULATION ANALYSIS *
                      *****************************

  NA   - Mulliken gross atomic population
  ZA   - Total nuclear charge
  QA   - Mulliken gross atomic charge
  VA   - Mayer's total valence
  BVA  - Mayer's bonded valence
  FA   - Mayer's free valence

  ATOM       NA         ZA         QA         VA         BVA        FA
  0 C      5.7638     6.0000     0.2362     0.5248     0.5248     0.0000
  1 O      8.2362     8.0000    -0.2362     0.5248     0.5248    -0.0000

  Mayer bond orders larger than 0.1
B(  0-C ,  1-O ) :   0.5248 

-------
TIMINGS
-------

Total SCF time: 0 days 0 hours 0 min 12 sec 

Total time                  ....      12.314 sec
Sum of individual times     ....      11.833 sec  ( 96.1%)

Fock matrix formation       ....      11.545 sec  ( 93.8%)
  XC integration            ....       2.031 sec  ( 17.6% of F)
    Basis function eval.    ....       0.374 sec  ( 18.4% of XC)
    Density eval.           ....       0.083 sec  (  4.1% of XC)
    XC-Functional eval.     ....       0.461 sec  ( 22.7% of XC)
    XC-Potential eval.      ....       0.051 sec  (  2.5% of XC)
Diagonalization             ....       0.037 sec  (  0.3%)
Density matrix formation    ....       0.000 sec  (  0.0%)
Population analysis         ....       0.014 sec  (  0.1%)
Initial guess               ....       0.113 sec  (  0.9%)
Orbital Transformation      ....       0.000 sec  (  0.0%)
Orbital Orthonormalization  ....       0.000 sec  (  0.0%)
DIIS solution               ....       0.000 sec  (  0.0%)
Grid generation             ....       0.123 sec  (  1.0%)


-------------------------------------------------------------------------------
                          DFT DISPERSION CORRECTION                            
                                                                               
                              DFTD3 V3.1  Rev 1                                
                              USING zero damping                               
-------------------------------------------------------------------------------
The omegaB97X-D3 functional is recognized. Fit by Chai et al.
Active option DFTDOPT                   ...         3   

molecular C6(AA) [au] = 117.449074 


            DFT-D V3
 parameters
 s6 scaling factor         :     1.0000 
 rs6 scaling factor        :     1.2810 
 s8 scaling factor         :     1.0000 
 rs8 scaling factor        :     1.0940 
 Damping factor alpha6     :    14.0000 
 Damping factor alpha8     :    16.0000 
 ad hoc parameters k1-k3   :    16.0000     1.3333    -4.0000 

 Edisp/kcal,au: -0.086135849531  -0.000137266199 
 E6   /kcal   :  -0.010572149 
 E8   /kcal   :  -0.075563700 
 % E8         :  87.726191715 

-------------------------   ----------------
Dispersion correction           -0.000137266
-------------------------   ----------------


-------------------------   --------------------
FINAL SINGLE POINT ENERGY      -112.738298574400
-------------------------   --------------------


                            ***************************************
                            *     ORCA property calculations      *
                            ***************************************

                                    ---------------------
                                    Active property flags
                                    ---------------------
   (+) Dipole Moment


------------------------------------------------------------------------------
                       ORCA ELECTRIC PROPERTIES CALCULATION
------------------------------------------------------------------------------

Dipole Moment Calculation                       ... on
Quadrupole Moment Calculation                   ... off
Polarizability Calculation                      ... off
GBWName                                         ... Scan_23.gbw
Electron density file                           ... Scan_23.scfp.tmp

-------------
DIPOLE MOMENT
-------------
                                X             Y             Z
Electronic contribution:     -1.24051       0.00000       0.00000
Nuclear contribution   :      0.01731      -0.00000       0.00000
                        -----------------------------------------
Total Dipole Moment    :     -1.22320       0.00000       0.00000
                        -----------------------------------------
Magnitude (a.u.)       :      1.22320
Magnitude (Debye)      :      3.10912


Timings for individual modules:

Sum of individual times         ...       12.675 sec (=   0.211 min)
GTO integral calculation        ...        0.335 sec (=   0.006 min)   2.6 %
SCF iterations                  ...       12.340 sec (=   0.206 min)  97.4 %
                             ****ORCA TERMINATED NORMALLY****
TOTAL RUN TIME: 0 days 0 hours 0 minutes 13 seconds 57 msec
