
                                 *****************
                                 * O   R   C   A *
                                 *****************

           --- An Ab Initio, DFT and Semiempirical electronic structure package ---

                  #######################################################
                  #                        -***-                        #
                  #  Department of molecular theory and spectroscopy    #
                  #              Directorship: Frank Neese              #
                  # Max Planck Institute for Chemical Energy Conversion #
                  #                  D-45470 Muelheim/Ruhr              #
                  #                       Germany                       #
                  #                                                     #
                  #                  All rights reserved                #
                  #                        -***-                        #
                  #######################################################


                         Program Version 4.0.0.2 - RELEASE -


 With contributions from (in alphabetic order):
   Daniel Aravena         : Magnetic Properties
   Michael Atanasov       : Ab Initio Ligand Field Theory
   Ute Becker             : Parallelization
   Martin Brehm           : Molecular dynamics
   Dmytro Bykov           : SCF Hessian
   Vijay G. Chilkuri      : MRCI spin determinant printing
   Dipayan Datta          : RHF DLPNO-CCSD density
   Achintya Kumar Dutta   : EOM-CC, STEOM-CC
   Dmitry Ganyushin       : Spin-Orbit,Spin-Spin,Magnetic field MRCI
   Yang Guo               : DLPNO-NEVPT2, CIM, IAO-localization
   Andreas Hansen         : Spin unrestricted coupled pair/coupled cluster methods
   Lee Huntington         : MR-EOM, pCC
   Robert Izsak           : Overlap fitted RIJCOSX, COSX-SCS-MP3, EOM
   Christian Kollmar      : KDIIS, OOCD, Brueckner-CCSD(T), CCSD density
   Simone Kossmann        : Meta GGA functionals, TD-DFT gradient, OOMP2, MP2 Hessian
   Martin Krupicka        : AUTO-CI
   Dagmar Lenk            : GEPOL surface
   Dimitrios Liakos       : Extrapolation schemes; parallel MDCI
   Dimitrios Manganas     : ROCIS; embedding schemes
   Dimitrios Pantazis     : SARC Basis sets
   Taras Petrenko         : DFT Hessian,TD-DFT gradient, ASA, ECA, R-Raman, ABS, FL, XAS/XES, NRVS
   Peter Pinski           : DLPNO-MP2
   Christoph Reimann      : Effective Core Potentials
   Marius Retegan         : Local ZFS, SOC
   Christoph Riplinger    : Optimizer, TS searches, QM/MM, DLPNO-CCSD(T), (RO)-DLPNO pert. Triples
   Tobias Risthaus        : Range-separated hybrids, TD-DFT gradient, RPA, STAB
   Michael Roemelt        : Restricted open shell CIS
   Masaaki Saitow         : Open-shell DLPNO
   Barbara Sandhoefer     : DKH picture change effects
   Kantharuban Sivalingam : CASSCF convergence, NEVPT2, FIC-MRCI
   Georgi Stoychev        : AutoAux
   Boris Wezisla          : Elementary symmetry handling
   Frank Wennmohs         : Technical directorship


 We gratefully acknowledge several colleagues who have allowed us to
 interface, adapt or use parts of their codes:
   Stefan Grimme, W. Hujo, H. Kruse,             : VdW corrections, initial TS optimization,
                  C. Bannwarth                     DFT functionals, gCP, sTDA/sTD-DF
   Ed Valeev                                     : LibInt (2-el integral package), F12 methods
   Garnet Chan, S. Sharma, J. Yang, R. Olivares  : DMRG
   Ulf Ekstrom                                   : XCFun DFT Library
   Mihaly Kallay                                 : mrcc  (arbitrary order and MRCC methods)
   Jiri Pittner, Ondrej Demel                    : Mk-CCSD
   Frank Weinhold                                : gennbo (NPA and NBO analysis)
   Christopher J. Cramer and Donald G. Truhlar   : smd solvation model


 Your calculation uses the libint2 library for the computation of 2-el integrals
 For citations please refer to: http://libint.valeyev.net

 This ORCA versions uses:
   CBLAS   interface :  Fast vector & matrix operations
   LAPACKE interface :  Fast linear algebra routines
   SCALAPACK package :  Parallel linear algebra routines


Your calculation utilizes the atom-pairwise dispersion correction
with the zero-damping scheme (D30)
Cite in your paper:
S.Grimme, J.Antony, S.Ehrlich and H.Krieg, J.Chem.Phys., 132, (2010), 154104 
   

XCFun DFT library Copyright 2009-2010 Ulf Ekstrom and contributors.
See http://admol.org/xcfun for more information. This is free soft-
ware; see the source code for copying conditions. There is ABSOLUTELY
NO WARRANTY; not even for MERCHANTABILITY or FITNESS FOR A PARTICULAR
PURPOSE. For details see the documentation. Scientific users of this 
library should cite U. Ekstrom, L. Visscher, R. Bast, A. J. Thorvald-
sen and K. Ruud; J.Chem.Theor.Comp. 2010, DOI: 10.1021/ct100117s
XCFun Version 0.99 
Your calculation utilizes the basis: 6-31G(d)
   H-He, Li-Ne : W. J. Hehre, R. Ditchfield and J.A. Pople, J. Chem. Phys. 56, 2257 (1972).
                 Note: He and Ne are unpublished basis sets taken from the Gaussian program.
                 Note: Li and B from J. D. Dill and J. A. Pople, J. Chem. Phys. 62, 2921 (1975).
   Na - Ar     : M. M. Francl, W. J. Pietro, W. J. Hehre, J. S. Binkley, M. S. Gordon, 
                 D. J. DeFrees and J. A. Pople, J. Chem. Phys. 77, 3654 (1982).
   K - Zn      : V. A. Rassolov, J. A. Pople, M. A. Ratner, and T. L. Windus, J. Chem. Phys. 109, 1223 (1998).

================================================================================
                                        WARNINGS
                       Please study these warnings very carefully!
================================================================================

Warning: TCutStore was < 0. Adjusted to Thresh (uncritical)

INFO   : the flag for use of LIBINT has been found!

================================================================================
                                       INPUT FILE
================================================================================
NAME = initial25.inp
|  1> ! WB97X-D3 6-31G(d) VerySlowConv
|  2> ! KDIIS NOSOSCF
|  3> %base "Scan_25"
|  4> 
|  5> %scf
|  6> maxiter 1999
|  7> end
|  8> 
|  9> * xyz 0 1
| 10> C         -1.602698599063    1.613610000000    0.000000000000
| 11> O          1.343658599063    1.613610000000    0.000000000000
| 12> *
| 13> 
| 14>                          ****END OF INPUT****
================================================================================

                       ****************************
                       * Single Point Calculation *
                       ****************************

---------------------------------
CARTESIAN COORDINATES (ANGSTROEM)
---------------------------------
  C     -1.602699    1.613610    0.000000
  O      1.343659    1.613610    0.000000

----------------------------
CARTESIAN COORDINATES (A.U.)
----------------------------
  NO LB      ZA    FRAG     MASS         X           Y           Z
   0 C     6.0000    0    12.011   -3.028661    3.049281    0.000000
   1 O     8.0000    0    15.999    2.539147    3.049281    0.000000

--------------------------------
INTERNAL COORDINATES (ANGSTROEM)
--------------------------------
 C      0   0   0     0.000000000000     0.00000000     0.00000000
 O      1   0   0     2.946357198126     0.00000000     0.00000000

---------------------------
INTERNAL COORDINATES (A.U.)
---------------------------
 C      0   0   0     0.000000000000     0.00000000     0.00000000
 O      1   0   0     5.567808197166     0.00000000     0.00000000

---------------------
BASIS SET INFORMATION
---------------------
There are 2 groups of distinct atoms

 Group   1 Type C   : 10s4p1d contracted to 3s2p1d pattern {631/31/1}
 Group   2 Type O   : 10s4p1d contracted to 3s2p1d pattern {631/31/1}

Atom   0C    basis set group =>   1
Atom   1O    basis set group =>   2
------------------------------------------------------------------------------
                           ORCA GTO INTEGRAL CALCULATION
------------------------------------------------------------------------------

                         BASIS SET STATISTICS AND STARTUP INFO

 # of primitive gaussian shells          ...   30
 # of primitive gaussian functions       ...   54
 # of contracted shells                  ...   12
 # of contracted basis functions         ...   28
 Highest angular momentum                ...    2
 Maximum contraction depth               ...    6
 Integral package used                   ... LIBINT
 Integral threshhold            Thresh   ...  1.000e-10
 Primitive cut-off              TCut     ...  1.000e-11


------------------------------ INTEGRAL EVALUATION ----------------------------


 * One electron integrals 
 Pre-screening matrix                    ... done
 Shell pair data                         ... done (   0.000 sec)

-------------------------------------------------------------------------------
                                 ORCA SCF
-------------------------------------------------------------------------------

------------
SCF SETTINGS
------------
Hamiltonian:
 Density Functional     Method          .... DFT(GTOs)
 Exchange Functional    Exchange        .... WB97X-D3
 Correlation Functional Correlation     .... WB97X-D3
 Gradients option       PostSCFGGA      .... off
 Hybrid DFT is turned on
   Fraction HF Exchange ScalHFX         ....  0.195728
   Scaling of DF-GGA-X  ScalDFX         ....  0.000000
   Scaling of DF-GGA-C  ScalDFC         ....  1.000000
   Scaling of DF-LDA-C  ScalLDAC        ....  1.000000
   Perturbative correction              ....  0.000000
 Long-range corrected/Screened/Range-Separated Hybrid DFT is turned on
   Amount of maximum screened exact exchange              ....  0.804272
   Range separation parameter mu (erf(mu*r12)/r12)        ....  0.250000


General Settings:
 Integral files         IntName         .... Scan_25
 Hartree-Fock type      HFTyp           .... RHF
 Total Charge           Charge          ....    0
 Multiplicity           Mult            ....    1
 Number of Electrons    NEL             ....   14
 Basis Dimension        Dim             ....   28
 Nuclear Repulsion      ENuc            ....      8.6209866253 Eh

Convergence Acceleration:
 DIIS                   CNVDIIS         .... on
   Start iteration      DIISMaxIt       ....     0
   Startup error        DIISStart       ....  0.200000
   # of expansion vecs  DIISMaxEq       ....     5
   Bias factor          DIISBfac        ....   1.050
   Max. coefficient     DIISMaxC        ....  10.000
 Newton-Raphson         CNVNR           .... off
 SOSCF                  CNVSOSCF        .... off
 Level Shifting         CNVShift        .... off
 Zerner damping         CNVZerner       .... off
 Static damping         CNVDamp         .... off
 Fernandez-Rico         CNVRico         .... off

SCF Procedure:
 Maximum # iterations   MaxIter         ....  1999
 SCF integral mode      SCFMode         .... Direct
   Integral package                     .... LIBINT
 Reset frequeny         DirectResetFreq ....    20
 Integral Threshold     Thresh          ....  1.000e-10 Eh
 Primitive CutOff       TCut            ....  1.000e-11 Eh

Convergence Tolerance:
 Convergence Check Mode ConvCheckMode   .... All-Criteria
 Convergence forced     ConvForced      .... 0
 Energy Change          TolE            ....  1.000e-06 Eh
 Max Density Change     TolMaxP         ....  1.000e-05
 RMS Density Change     TolRMSP         ....  1.000e-06
 DIIS Error             TolErr          ....  1.000e-06


Diagonalization of the overlap matrix:
Smallest eigenvalue                        ... 1.763e-01
Time for diagonalization                   ...    0.001 sec
Threshold for overlap eigenvalues          ... 1.000e-08
Number of eigenvalues below threshold      ... 0
Time for construction of square roots      ...    0.005 sec
Total time needed                          ...    0.005 sec

-------------------
DFT GRID GENERATION
-------------------

General Integration Accuracy     IntAcc      ...  4.340
Radial Grid Type                 RadialGrid  ... Gauss-Chebyshev
Angular Grid (max. acc.)         AngularGrid ... Lebedev-110
Angular grid pruning method      GridPruning ... 3 (G Style)
Weight generation scheme         WeightScheme... Becke
Basis function cutoff            BFCut       ...    1.0000e-10
Integration weight cutoff        WCut        ...    1.0000e-14
Grids for H and He will be reduced by one unit

# of grid points (after initial pruning)     ...   3372 (   0.0 sec)
# of grid points (after weights+screening)   ...   3357 (   0.0 sec)
nearest neighbour list constructed           ...    0.0 sec
Grid point re-assignment to atoms done       ...    0.0 sec
Grid point division into batches done        ...    0.0 sec
Reduced shell lists constructed in    0.0 sec

Total number of grid points                  ...     3357
Total number of batches                      ...       54
Average number of points per batch           ...       62
Average number of grid points per atom       ...     1678
Average number of shells per batch           ...     9.25 (77.12%)
Average number of basis functions per batch  ...    22.75 (81.23%)
Average number of large shells per batch     ...     7.96 (86.05%)
Average number of large basis fcns per batch ...    19.09 (83.93%)
Maximum spatial batch extension              ...  18.14, 23.60, 31.36 au
Average spatial batch extension              ...   6.16,  7.24,  7.68 au

Time for grid setup =    0.020 sec

------------------------------
INITIAL GUESS: MODEL POTENTIAL
------------------------------
Loading Hartree-Fock densities                     ... done
Calculating cut-offs                               ... done
Setting up the integral package                    ... done
Initializing the effective Hamiltonian             ... done
Starting the Coulomb interaction                   ... done (   0.0 sec)
Reading the grid                                   ... done
Mapping shells                                     ... done
Starting the XC term evaluation                    ... done (   0.0 sec)
  promolecular density results
     # of electrons  =     14.000128865
     EX              =    -12.944847436
     EC              =     -0.403758050
     EX+EC           =    -13.348605485
Transforming the Hamiltonian                       ... done (   0.0 sec)
Diagonalizing the Hamiltonian                      ... done (   0.0 sec)
Back transforming the eigenvectors                 ... done (   0.0 sec)
Now organizing SCF variables                       ... done
                      ------------------
                      INITIAL GUESS DONE (   0.1 sec)
                      ------------------
--------------
SCF ITERATIONS
--------------
ITER       Energy         Delta-E        Max-DP      RMS-DP      [F,P]   Gradient Norm
               ***  Starting incremental Fock matrix formation  ***
                             ****Resetting KDIIS****
                             ****Turning on KDIIS(Cayley)****
  0   -111.3857101497   0.000000000000 0.08716214  0.00772997  0.3548691   0.290396552
  1   -111.5566402105  -0.170930060812 0.14330521  0.01386554  0.2888959   0.242176412
  2   -111.8089302635  -0.252290052995 0.24592695  0.01816258  0.2159722   0.158844048
  3   -111.9733758196  -0.164445556057 0.39757650  0.03089605  0.2266244   0.136243507
  4   -112.2336090880  -0.260233268447 0.27181208  0.01993669  0.2205234   0.144088627
  5   -112.3568762956  -0.123267207613 0.81705486  0.06571927  0.2243901   0.148541813
  6   -111.9358929996   0.420983296040 0.92920445  0.06356867  0.2105605   0.186646241
  7   -112.5909592700  -0.655066270403 0.10454589  0.01158872  0.0803697   0.085397718
  8   -112.5477105538   0.043248716223 0.19487887  0.02265163  0.1400033   0.091610897
  9   -112.6267433589  -0.079032805148 0.08878957  0.01009302  0.0865573   0.069734493
 10   -112.6437434436  -0.017000084629 0.01921358  0.00175975  0.0589070   0.034409782
 11   -112.6490167041  -0.005273260573 0.00817771  0.00102437  0.0472194   0.027292221
 12   -112.6516987125  -0.002682008417 0.02403880  0.00323706  0.0344551   0.018852455
 13   -112.6536524403  -0.001953727745 0.00853013  0.00078447  0.0058052   0.003182803
 14   -112.6533502985   0.000302141820 0.03418254  0.00274136  0.0083674   0.003452879
 15   -112.6525057854   0.000844513043 0.04440461  0.00395719  0.0053390   0.002347038
 16   -112.6516927429   0.000813042475 0.00137328  0.00010556  0.0037287   0.002904125
 17   -112.6516909804   0.000001762579 0.03425370  0.00289584  0.0041225   0.003289227
 18   -112.6514136565   0.000277323839 0.04067474  0.00356273  0.0033455   0.002768685
 19   -112.6511330303   0.000280626205 0.19616144  0.01567517  0.0040552   0.003380036
               *** Restarting incremental Fock matrix formation ***
                             ****Resetting KDIIS****
 20   -112.6534774804  -0.002344450116 0.00816903  0.00080868  0.0167215   0.015126025
 21   -112.6547217173  -0.001244236846 0.00393798  0.00037062  0.0052695   0.004089321
 22   -112.6549472625  -0.000225545184 0.03920326  0.00328709  0.0048601   0.003848344
 23   -112.6533297161   0.001617546415 0.09091188  0.00744060  0.0043284   0.003442345
 24   -112.6514380231   0.001891693006 0.05409763  0.00469199  0.0061467   0.005089285
 25   -112.6509788176   0.000459205443 0.12132769  0.01001907  0.0074328   0.006432054
 26   -112.6523372868  -0.001358469237 0.39333419  0.03144270  0.0088635   0.007649947
 27   -112.5776536964   0.074683590427 0.11121234  0.00744342  0.1094975   0.093717583
 28   -112.4626683311   0.114985365327 0.74667200  0.06118884  0.1787480   0.157778557
 29   -106.7559623711   5.706705959950 0.06338415  0.00537787  1.0327590   0.692038144
 30   -106.2205794808   0.535382890386 0.77754992  0.07918615  0.8499736   0.642896326
 31   -112.6080122078  -6.387432727065 0.21228053  0.01540901  0.0854641   0.083760963
 32   -112.6340474715  -0.026035263687 0.06387125  0.00704319  0.0240239   0.025476775
 33   -112.6362787671  -0.002231295567 0.06789802  0.00559966  0.0215845   0.019061178
 34   -112.6419773696  -0.005698602544 0.02623483  0.00266298  0.0195314   0.017676408
 35   -112.6420358943  -0.000058524671 0.11909451  0.01044768  0.0236578   0.020455021
 36   -112.6277020512   0.014333843072 0.12688103  0.00900528  0.0352916   0.028287406
 37   -112.6457083598  -0.018006308563 0.10222726  0.00618892  0.0166641   0.012276230
 38   -112.6492201451  -0.003511785323 0.00845398  0.00099639  0.0155017   0.013310916
 39   -112.6502487749  -0.001028629750 0.01655687  0.00111919  0.0031017   0.002100956
               *** Restarting incremental Fock matrix formation ***
                             ****Resetting KDIIS****
 40   -112.6505319529  -0.000283178086 0.00186255  0.00017334  0.0040143   0.003148554
 41   -112.6505948696  -0.000062916652 0.00186084  0.00013369  0.0022734   0.001484063
 42   -112.6506287974  -0.000033927818 0.01558007  0.00116373  0.0022472   0.001387187
 43   -112.6508767849  -0.000247987508 0.03915781  0.00330219  0.0016307   0.001045565
 44   -112.6512728096  -0.000396024697 0.01767666  0.00169165  0.0028472   0.002460068
 45   -112.6514389825  -0.000166172932 0.03750483  0.00324404  0.0008628   0.000627204
 46   -112.6516597996  -0.000220817005 0.01089093  0.00091425  0.0033418   0.002985763
 47   -112.6517438502  -0.000084050668 0.00335953  0.00028751  0.0037780   0.003442672
 48   -112.6517690202  -0.000025169945 0.02811378  0.00228583  0.0040125   0.003659411
 49   -112.6519842285  -0.000215208293 0.02502521  0.00213690  0.0067841   0.006248782
 50   -112.6513663979   0.000617830543 0.06737016  0.00571612  0.0098448   0.009353877
 51   -112.6511873539   0.000179044011 0.13841274  0.01135884  0.0060823   0.005586807
 52   -112.6527929009  -0.001605546987 0.06931817  0.00545275  0.0092251   0.008446899
 53   -112.6518059209   0.000986980040 0.06147650  0.00523109  0.0044517   0.004068220
 54   -112.6512979165   0.000508004313 0.03843683  0.00330568  0.0052019   0.004751428
 55   -112.6515724591  -0.000274542531 0.00088168  0.00006631  0.0046765   0.004369932
Warning: badly conditioned DIIS matrix, 1 vectors out of 5 destroyed
 56   -112.6515802023  -0.000007743241 0.15422430  0.01314731  0.0043738   0.004075051
Warning: badly conditioned DIIS matrix, 1 vectors out of 5 destroyed
 57   -112.6467053691   0.004874833184 0.12961701  0.01079511  0.0225439   0.019726829
Warning: badly conditioned DIIS matrix, 1 vectors out of 5 destroyed
 58   -112.6514702618  -0.004764892674 0.00709117  0.00065623  0.0018381   0.001664015
Warning: badly conditioned DIIS matrix, 1 vectors out of 5 destroyed
 59   -112.6515269209  -0.000056659080 0.00254731  0.00021785  0.0011186   0.000918036
               *** Restarting incremental Fock matrix formation ***
                             ****Resetting KDIIS****
 60   -112.6515431144  -0.000016193499 0.00055517  0.00004900  0.0010875   0.000896208
 61   -112.6515481607  -0.000005046270 0.00046769  0.00004519  0.0006936   0.000427599
 62   -112.6515515915  -0.000003430898 0.00059732  0.00004807  0.0007321   0.000414069
 63   -112.6515481998   0.000003391761 0.02355733  0.00206688  0.0007887   0.000396481
 64   -112.6514062376   0.000141962202 0.00336217  0.00027745  0.0007923   0.000521692
 65   -112.6514097001  -0.000003462536 0.07939233  0.00665246  0.0009069   0.000724405
 66   -112.6499563846   0.001453315499 0.10111174  0.00875896  0.0095455   0.008343499
 67   -112.6515563905  -0.001600005906 0.00619055  0.00056682  0.0014526   0.001383154
 68   -112.6516011033  -0.000044712748 0.02008871  0.00166996  0.0015034   0.001313744
 69   -112.6517470292  -0.000145925913 0.00072675  0.00005911  0.0023123   0.002043479
Warning: badly conditioned DIIS matrix, 1 vectors out of 5 destroyed
 70   -112.6517417059   0.000005323246 0.08801459  0.00781773  0.0022522   0.001988610
Warning: badly conditioned DIIS matrix, 1 vectors out of 5 destroyed
Warning: badly conditioned DIIS matrix, 1 vectors out of 4 destroyed
 71   -112.6509281345   0.000813571411 0.18819162  0.01556138  0.0053160   0.004695571
Warning: badly conditioned DIIS matrix, 1 vectors out of 4 destroyed
 72   -112.6530977821  -0.002169647524 0.00043791  0.00002991  0.0112302   0.010348984
 73   -112.6531287875  -0.000031005415 0.04303158  0.00329503  0.0110373   0.010141031
Warning: badly conditioned DIIS matrix, 1 vectors out of 5 destroyed
 74   -112.6523810170   0.000747770519 0.34461533  0.02515885  0.0065768   0.005965539
Warning: badly conditioned DIIS matrix, 1 vectors out of 5 destroyed
 75   -112.6523297716   0.000051245379 0.42243801  0.03123617  0.0741992   0.062123736
Warning: badly conditioned DIIS matrix, 1 vectors out of 5 destroyed
 76   -112.6513346985   0.000995073106 0.01819071  0.00152204  0.0075601   0.006800690
 77   -112.6512944298   0.000040268667 0.04801948  0.00403745  0.0065749   0.005635268
 78   -112.6512061377   0.000088292081 0.04050802  0.00334739  0.0111197   0.010865204
 79   -112.6443076255   0.006898512190 0.03588766  0.00320861  0.0371248   0.037907361
               *** Restarting incremental Fock matrix formation ***
                             ****Resetting KDIIS****
 80   -112.6402670615   0.004040563980 0.02395719  0.00217968  0.0431524   0.046274512
 81   -112.6495730156  -0.009305954032 0.00808044  0.00056541  0.0178741   0.016029055
 82   -112.6502644300  -0.000691414441 0.01481802  0.00100837  0.0139675   0.012303287
 83   -112.6510097652  -0.000745335176 0.02203858  0.00160967  0.0086928   0.007596114
 84   -112.6514845189  -0.000474753712 0.00049679  0.00004103  0.0010386   0.000510220
 85   -112.6514874699  -0.000002950989 0.00669615  0.00059707  0.0010430   0.000506811
 86   -112.6514457637   0.000041706191 0.00222569  0.00020403  0.0007067   0.000420417
 87   -112.6514581101  -0.000012346371 0.00182004  0.00014512  0.0006299   0.000515888
 88   -112.6514503806   0.000007729443 0.05106480  0.00453506  0.0006211   0.000447593
 89   -112.6509092152   0.000541165482 0.06317569  0.00565065  0.0040719   0.003440732
 90   -112.6515242434  -0.000615028253 0.03714700  0.00303749  0.0012981   0.001051098
 91   -112.6517667810  -0.000242537622 0.00984165  0.00080682  0.0030547   0.002739476
 92   -112.6518594989  -0.000092717902 0.01074662  0.00086838  0.0034571   0.003101324
 93   -112.6519731976  -0.000113698699 0.04516956  0.00372632  0.0040527   0.003628510
 94   -112.6515708820   0.000402315614 0.04795985  0.00423806  0.0027772   0.002522751
 95   -112.6511969090   0.000373973000 0.25207026  0.01979435  0.0042755   0.003869466
Warning: badly conditioned DIIS matrix, 1 vectors out of 5 destroyed
 96   -112.6547449858  -0.003548076749 0.13119474  0.00981403  0.0228007   0.021752216
Warning: badly conditioned DIIS matrix, 1 vectors out of 5 destroyed
Warning: badly conditioned DIIS matrix, 1 vectors out of 4 destroyed
 97   -112.6523291067   0.002415879114 0.43617099  0.03287574  0.0061505   0.005572741
 98   -112.5494935159   0.102835590748 0.01350509  0.00088182  0.1254301   0.111256436
Warning: badly conditioned DIIS matrix, 1 vectors out of 5 destroyed
 99   -112.5608571792  -0.011363663334 0.41910712  0.03165109  0.1177422   0.104100247
               *** Restarting incremental Fock matrix formation ***
                             ****Resetting KDIIS****
100   -112.6521849353  -0.091327756104 0.00330050  0.00031389  0.0063755   0.005863754
101   -112.6523721397  -0.000187204386 0.00153176  0.00014659  0.0019052   0.001637749
102   -112.6524081332  -0.000035993471 0.02040015  0.00172997  0.0017160   0.001525113
103   -112.6520598318   0.000348301350 0.05397570  0.00455035  0.0014353   0.001323220
104   -112.6515237846   0.000536047200 0.04459183  0.00402610  0.0024877   0.002187295
105   -112.6511290382   0.000394746408 0.06219975  0.00549400  0.0048067   0.004347334
106   -112.6516470386  -0.000518000402 0.07860931  0.00628029  0.0025018   0.002266599
107   -112.6525455776  -0.000898538977 0.04355653  0.00341854  0.0077106   0.007017573
108   -112.6519531697   0.000592407964 0.03825193  0.00302615  0.0042553   0.003834398
109   -112.6525058173  -0.000552647661 0.06211456  0.00498810  0.0066277   0.005970896
110   -112.6516893343   0.000816483040 0.03414524  0.00288921  0.0040619   0.003741649
Warning: badly conditioned DIIS matrix, 1 vectors out of 5 destroyed
111   -112.6514403122   0.000249022089 0.02793929  0.00235956  0.0039517   0.003664751
112   -112.6516137913  -0.000173479138 0.04433367  0.00379179  0.0045063   0.004183564
Warning: badly conditioned DIIS matrix, 1 vectors out of 5 destroyed
113   -112.6513263157   0.000287475597 0.65586625  0.04979756  0.0042537   0.003929853
Warning: badly conditioned DIIS matrix, 1 vectors out of 5 destroyed
114   -112.6560917441  -0.004765428398 0.73358505  0.05611195  0.0811083   0.075306392
Warning: badly conditioned DIIS matrix, 1 vectors out of 5 destroyed
115   -112.6469469556   0.009144788514 0.10536512  0.00745165  0.0249583   0.022253683
Warning: badly conditioned DIIS matrix, 1 vectors out of 5 destroyed
116   -112.6305205446   0.016426411024 0.23354263  0.01849026  0.0544020   0.047352666
117   -112.6507525362  -0.020231991628 0.01489979  0.00127071  0.0134708   0.012692479
118   -112.6507040546   0.000048481644 0.38006720  0.02655103  0.0127493   0.012292078
119   -112.5537851955   0.096918859019 0.15482128  0.00979676  0.1232749   0.108790750
               *** Restarting incremental Fock matrix formation ***
                             ****Resetting KDIIS****
120   -112.6296542579  -0.075869062380 0.02727147  0.00243406  0.0557747   0.048835620
121   -112.6427290529  -0.013074794985 0.00820559  0.00061696  0.0217804   0.018255998
122   -112.6440563945  -0.001327341558 0.03129664  0.00198792  0.0178924   0.015163872
123   -112.6468242447  -0.002767850256 0.07290294  0.00495854  0.0113678   0.009037760
124   -112.6500151692  -0.003190924457 0.00071442  0.00005542  0.0102253   0.007331233
125   -112.6499663878   0.000048781414 0.03437109  0.00272949  0.0105592   0.007631733
126   -112.6489725367   0.000993851071 0.04399681  0.00307332  0.0062594   0.005405676
127   -112.6503084784  -0.001335941729 0.03815857  0.00299639  0.0051712   0.004481284
128   -112.6510413721  -0.000732893632 0.03032295  0.00258155  0.0024594   0.002136092
129   -112.6513367577  -0.000295385681 0.02105759  0.00187775  0.0015910   0.001388574
130   -112.6514792797  -0.000142521937 0.01864375  0.00158671  0.0012843   0.001107651
131   -112.6515923001  -0.000113020407 0.03339211  0.00291590  0.0016875   0.001486818
132   -112.6513668581   0.000225442020 0.00888814  0.00080818  0.0022963   0.002050753
133   -112.6512917584   0.000075099705 0.01084547  0.00094172  0.0027448   0.002460895
134   -112.6511992847   0.000092473638 0.01881909  0.00168226  0.0029443   0.002614106
135   -112.6513660827  -0.000166798001 0.02517689  0.00223392  0.0020909   0.001868516
136   -112.6511269408   0.000239141925 0.06332115  0.00562539  0.0033453   0.002966307
137   -112.6516240889  -0.000497148080 0.03697060  0.00301857  0.0018685   0.001639623
138   -112.6519267739  -0.000302684983 0.03130638  0.00255543  0.0038641   0.003492469
139   -112.6516552201   0.000271553768 0.00875052  0.00075675  0.0023989   0.002140758
               *** Restarting incremental Fock matrix formation ***
                             ****Resetting KDIIS****
140   -112.6515768663   0.000078353804 0.00149334  0.00013981  0.0028420   0.002587246
141   -112.6516138479  -0.000036981565 0.00054392  0.00005187  0.0008501   0.000683075
142   -112.6516186605  -0.000004812659 0.00138968  0.00012422  0.0007541   0.000614488
143   -112.6516089920   0.000009668555 0.04803490  0.00425317  0.0006306   0.000550464
144   -112.6512674167   0.000341575270 0.10903147  0.00912948  0.0021645   0.001719296
145   -112.6521287723  -0.000861355620 0.04547977  0.00368228  0.0058205   0.005158177
146   -112.6516808129   0.000447959369 0.00339894  0.00033953  0.0030304   0.002693666
147   -112.6516055922   0.000075220752 0.00838906  0.00068289  0.0041688   0.003881199
148   -112.6515628072   0.000042785003 0.01753079  0.00143296  0.0037161   0.003396291
149   -112.6516649179  -0.000102110716 0.07465275  0.00649727  0.0046134   0.004292032
150   -112.6510904981   0.000574419797 0.12757477  0.01074055  0.0053542   0.004843226
151   -112.6523393496  -0.001248851487 0.02044218  0.00159868  0.0061806   0.005628062
152   -112.6520860078   0.000253341806 0.00816522  0.00063805  0.0041328   0.003735984
153   -112.6521342890  -0.000048281244 0.02047758  0.00164713  0.0057899   0.005279458
154   -112.6518663229   0.000267966171 0.02178588  0.00171365  0.0050714   0.004662617
155   -112.6520821716  -0.000215848728 0.09885546  0.00825007  0.0068493   0.006340714
156   -112.6512484401   0.000833731522 0.00191301  0.00018348  0.0050084   0.004656167
157   -112.6512234673   0.000024972778 0.03603941  0.00315473  0.0052183   0.004853989
158   -112.6506674479   0.000556019403 0.03015375  0.00265750  0.0083918   0.007610202
159   -112.6512100071  -0.000542559256 0.10706785  0.00856790  0.0047060   0.004330806
               *** Restarting incremental Fock matrix formation ***
                             ****Resetting KDIIS****
160   -112.6468524365   0.004357570681 0.01159519  0.00104121  0.0218538   0.019088640
161   -112.6489613079  -0.002108871411 0.00373803  0.00027216  0.0071951   0.005926039
162   -112.6491550172  -0.000193709295 0.02396799  0.00165747  0.0062951   0.005228524
163   -112.6499996058  -0.000844588613 0.05176407  0.00391773  0.0038384   0.003130247
164   -112.6509812420  -0.000981636257 0.00781849  0.00077351  0.0042746   0.003584147
165   -112.6511522634  -0.000171021355 0.00424546  0.00040388  0.0014369   0.000979945
166   -112.6510832791   0.000068984339 0.00709068  0.00069218  0.0025382   0.001928378
167   -112.6511666427  -0.000083363599 0.01474337  0.00124912  0.0015284   0.001305486
168   -112.6512918521  -0.000125209456 0.03317693  0.00292934  0.0017260   0.001504354
169   -112.6515110998  -0.000219247692 0.00094091  0.00008135  0.0017862   0.001601290
170   -112.6515174899  -0.000006390069 0.15364833  0.01207723  0.0017565   0.001575801
Warning: badly conditioned DIIS matrix, 1 vectors out of 5 destroyed
Warning: badly conditioned DIIS matrix, 1 vectors out of 4 destroyed
Warning: badly conditioned DIIS matrix, 1 vectors out of 3 destroyed
171   -112.6531901087  -0.001672618828 0.16735094  0.01320578  0.0160522   0.014973349
172   -112.6514339248   0.001756183894 0.01445838  0.00129280  0.0019263   0.001669573
173   -112.6513264569   0.000107467943 0.08450264  0.00707611  0.0024973   0.002179515
174   -112.6519608951  -0.000634438203 0.05715718  0.00472450  0.0041767   0.003717666
175   -112.6515102021   0.000450692918 0.01699946  0.00144558  0.0018887   0.001675307
176   -112.6516189609  -0.000108758711 0.15570833  0.01306031  0.0021460   0.001907105
Warning: badly conditioned DIIS matrix, 1 vectors out of 5 destroyed
177   -112.6469492481   0.004669712770 0.03459510  0.00254823  0.0204192   0.017803567
Warning: badly conditioned DIIS matrix, 1 vectors out of 5 destroyed
Warning: badly conditioned DIIS matrix, 1 vectors out of 4 destroyed
178   -112.6493008012  -0.002351553137 0.15652972  0.01419084  0.0129137   0.011317411
179   -112.6520122480  -0.002711446787 0.02306960  0.00184892  0.0045939   0.004119011
               *** Restarting incremental Fock matrix formation ***
                             ****Resetting KDIIS****
180   -112.6517905566   0.000221691423 0.00154112  0.00014348  0.0030043   0.002644870
181   -112.6518302032  -0.000039646582 0.00081681  0.00007812  0.0009813   0.000835920
182   -112.6518404452  -0.000010241981 0.00785564  0.00068951  0.0009830   0.000786745
183   -112.6517593933   0.000081051801 0.04582722  0.00394874  0.0008197   0.000757108
184   -112.6514264359   0.000332957451 0.01815026  0.00164843  0.0019109   0.001494981
185   -112.6512863535   0.000140082395 0.03728426  0.00328247  0.0028546   0.002240053
186   -112.6515382028  -0.000251849310 0.01206773  0.00102694  0.0019775   0.001752973
187   -112.6516163068  -0.000078103945 0.00417788  0.00034873  0.0021956   0.001928438
188   -112.6515877406   0.000028566108 0.00314869  0.00026497  0.0021399   0.001908055
189   -112.6516081674  -0.000020426733 0.04362903  0.00380865  0.0022276   0.001989674
190   -112.6513062878   0.000301879582 0.21970200  0.01727969  0.0029203   0.002614145
Warning: badly conditioned DIIS matrix, 1 vectors out of 5 destroyed
Warning: badly conditioned DIIS matrix, 1 vectors out of 4 destroyed
191   -112.6539634485  -0.002657160724 0.05465981  0.00399423  0.0204417   0.019404432
192   -112.6547461669  -0.000782718343 0.19292024  0.01442639  0.0292847   0.027960769
193   -112.6519397743   0.002806392594 0.00367292  0.00029432  0.0034604   0.003052248
Warning: badly conditioned DIIS matrix, 1 vectors out of 5 destroyed
Warning: badly conditioned DIIS matrix, 1 vectors out of 4 destroyed
194   -112.6518975788   0.000042195441 0.06804863  0.00579053  0.0033640   0.002984604
195   -112.6513093287   0.000588250102 0.05674162  0.00485515  0.0049664   0.004367544
Warning: badly conditioned DIIS matrix, 1 vectors out of 5 destroyed
196   -112.6517605679  -0.000451239173 0.01623928  0.00132139  0.0036745   0.003363707
197   -112.6519269872  -0.000166419278 0.01389356  0.00112572  0.0042418   0.003831625
198   -112.6517896464   0.000137340800 0.00086344  0.00006740  0.0035537   0.003192936
199   -112.6517964229  -0.000006776566 0.00036517  0.00003768  0.0036029   0.003246123
               *** Restarting incremental Fock matrix formation ***
                             ****Resetting KDIIS****
200   -112.6517951960   0.000001226957 0.00185755  0.00017407  0.0035793   0.003228602
201   -112.6518528951  -0.000057699113 0.00085082  0.00008110  0.0010926   0.000925537
202   -112.6518640958  -0.000011200674 0.00990935  0.00086136  0.0009801   0.000856954
203   -112.6517607935   0.000103302326 0.04771078  0.00411277  0.0008568   0.000810403
204   -112.6514095292   0.000351264282 0.07497442  0.00640447  0.0020524   0.001710087
205   -112.6500632588   0.001346270374 0.09353554  0.00821152  0.0100594   0.008631211
206   -112.6515498343  -0.001486575519 0.01428811  0.00121090  0.0014077   0.001210808
207   -112.6516442966  -0.000094462270 0.00465848  0.00038946  0.0017133   0.001496399
208   -112.6516785040  -0.000034207425 0.00350340  0.00028741  0.0018395   0.001610473
209   -112.6517038025  -0.000025298468 0.00531252  0.00044283  0.0020243   0.001785175
210   -112.6517473975  -0.000043594972 0.04135671  0.00352264  0.0022202   0.001948839
211   -112.6514362155   0.000311181974 0.05480203  0.00485292  0.0028167   0.002492178
212   -112.6507835149   0.000652700568 0.10023966  0.00890497  0.0064846   0.005774491
213   -112.6518022244  -0.001018709513 0.00955905  0.00078295  0.0026735   0.002357936
Warning: badly conditioned DIIS matrix, 1 vectors out of 5 destroyed
214   -112.6517211301   0.000081094317 0.04727538  0.00378882  0.0022524   0.001986747
215   -112.6522172019  -0.000496071843 0.04266584  0.00329194  0.0053297   0.004801274
Warning: badly conditioned DIIS matrix, 1 vectors out of 5 destroyed
216   -112.6528939567  -0.000676754778 0.14432266  0.01172762  0.0095141   0.008724290
217   -112.6513488165   0.001545140186 0.04923014  0.00422503  0.0021695   0.001919808
218   -112.6506377854   0.000711031157 0.10275098  0.00922600  0.0065831   0.005799883
219   -112.6517491598  -0.001111374445 0.01900028  0.00153244  0.0026352   0.002348958
               *** Restarting incremental Fock matrix formation ***
                             ****Resetting KDIIS****
220   -112.6519096415  -0.000160481650 0.00209522  0.00019712  0.0040500   0.003657210
221   -112.6519839034  -0.000074261970 0.00102781  0.00009837  0.0012481   0.001081441
222   -112.6520001749  -0.000016271482 0.01295304  0.00111882  0.0011750   0.001011271
223   -112.6518413873   0.000158787650 0.04855673  0.00414182  0.0009960   0.000944547
224   -112.6514553903   0.000385996986 0.06907650  0.00607383  0.0020119   0.001741215
225   -112.6504274628   0.001027927473 0.07803540  0.00695094  0.0083664   0.007416223
226   -112.6515267050  -0.001099242175 0.01890974  0.00160945  0.0015868   0.001408664
227   -112.6516551292  -0.000128424191 0.01381717  0.00114145  0.0017486   0.001533679
228   -112.6517624727  -0.000107343509 0.02796783  0.00225900  0.0023001   0.002028595
Warning: badly conditioned DIIS matrix, 1 vectors out of 5 destroyed
Warning: badly conditioned DIIS matrix, 1 vectors out of 4 destroyed
229   -112.6520478002  -0.000285327499 0.16565959  0.01500207  0.0038742   0.003449463
Warning: badly conditioned DIIS matrix, 1 vectors out of 4 destroyed
230   -112.6489566529   0.003091147260 0.14534753  0.01263503  0.0131245   0.011427810
231   -112.6517334206  -0.002776767675 0.00574296  0.00047487  0.0027888   0.002500758
Warning: badly conditioned DIIS matrix, 1 vectors out of 5 destroyed
Warning: badly conditioned DIIS matrix, 1 vectors out of 4 destroyed
232   -112.6516867910   0.000046629638 0.15869556  0.01364347  0.0026309   0.002361209
Warning: badly conditioned DIIS matrix, 1 vectors out of 4 destroyed
233   -112.6467727532   0.004914037824 0.01391371  0.00103512  0.0220975   0.019321330
Warning: badly conditioned DIIS matrix, 1 vectors out of 4 destroyed
234   -112.6451699571   0.001602796048 0.21188847  0.01928960  0.0264768   0.023106459
Warning: badly conditioned DIIS matrix, 1 vectors out of 4 destroyed
235   -112.6523162646  -0.007146307535 0.84308186  0.07534944  0.0066648   0.006061600
Warning: badly conditioned DIIS matrix, 1 vectors out of 4 destroyed
236   -112.3900421432   0.262274121430 0.82138305  0.07578041  0.1774463   0.168064844
237   -112.6477519271  -0.257709783892 0.14264300  0.01119424  0.0517615   0.034821507
238   -112.6414342733   0.006317653783 0.01044618  0.00092109  0.0457558   0.041094736
239   -112.6414506202  -0.000016346889 0.08615308  0.00719117  0.0442018   0.040811961
               *** Restarting incremental Fock matrix formation ***
                             ****Resetting KDIIS****
240   -112.6441227374  -0.002672117236 0.01768681  0.00167966  0.0333947   0.031732281
241   -112.6498677116  -0.005744974200 0.00298532  0.00025199  0.0112146   0.009356145
242   -112.6501244342  -0.000256722570 0.01110674  0.00081763  0.0097720   0.007791937
243   -112.6506302512  -0.000505816942 0.04139289  0.00317866  0.0061486   0.004017413
244   -112.6512273056  -0.000597054450 0.01573424  0.00134147  0.0021830   0.001649863
245   -112.6513631895  -0.000135883921 0.01269435  0.00114948  0.0012318   0.000909845
246   -112.6514550285  -0.000091838948 0.01963511  0.00179577  0.0009693   0.000614879
247   -112.6513071738   0.000147854628 0.07690488  0.00652322  0.0010331   0.000899218
248   -112.6517946915  -0.000487517676 0.02931238  0.00244795  0.0044103   0.003882676
249   -112.6522238842  -0.000429192691 0.12820339  0.01106049  0.0044523   0.003688172
250   -112.6509422573   0.001281626930 0.08577993  0.00763586  0.0053740   0.004771623
251   -112.6517493255  -0.000807068220 0.06801045  0.00535642  0.0014179   0.001224964
252   -112.6524752071  -0.000725881620 0.01119589  0.00087747  0.0081612   0.007474331
253   -112.6527099283  -0.000234721213 0.10353067  0.00834953  0.0087324   0.007977081
254   -112.6514713638   0.001238564501 0.02115549  0.00182558  0.0043859   0.004101450
255   -112.6513403647   0.000130999168 0.02017566  0.00183709  0.0043971   0.004075194
256   -112.6511201290   0.000220235627 0.00609057  0.00045137  0.0058886   0.005415274
Warning: badly conditioned DIIS matrix, 1 vectors out of 5 destroyed
257   -112.6512302198  -0.000110090775 0.04088568  0.00365507  0.0023387   0.002005325
258   -112.6515357689  -0.000305549108 0.00316430  0.00025800  0.0007970   0.000664340
259   -112.6515495000  -0.000013731077 0.01729594  0.00148837  0.0013970   0.001186382
               *** Restarting incremental Fock matrix formation ***
                             ****Resetting KDIIS****
260   -112.6514473727   0.000102127319 0.00044560  0.00004049  0.0008613   0.000747904
261   -112.6514509735  -0.000003600806 0.00047447  0.00004239  0.0007020   0.000399388
262   -112.6514540267  -0.000003053261 0.00493770  0.00044700  0.0007286   0.000385113
263   -112.6514856036  -0.000031576806 0.01004237  0.00086259  0.0006821   0.000391375
264   -112.6514240923   0.000061511306 0.13053861  0.01048682  0.0005555   0.000469843
Warning: badly conditioned DIIS matrix, 1 vectors out of 5 destroyed
265   -112.6526339208  -0.001209828526 0.01492476  0.00111953  0.0105109   0.009503018
266   -112.6524643025   0.000169618310 0.14269734  0.01191091  0.0083839   0.007509133
267   -112.6511798549   0.001284447589 0.03306364  0.00299286  0.0022762   0.001928915
268   -112.6514544129  -0.000274558072 0.01056796  0.00092390  0.0006046   0.000530582
269   -112.6515199316  -0.000065518659 0.03211805  0.00271251  0.0006351   0.000536014
270   -112.6517485881  -0.000228656489 0.07948381  0.00625762  0.0014486   0.001177049
271   -112.6527519303  -0.001003342231 0.02716854  0.00209009  0.0083236   0.007543935
272   -112.6523410818   0.000410848488 0.13505489  0.01145074  0.0052510   0.004680564
273   -112.6510594904   0.001281591474 0.24321271  0.01944281  0.0036616   0.003143037
274   -112.6543438255  -0.003284335094 0.11725550  0.00884471  0.0187590   0.017633803
275   -112.6522548626   0.002088962833 0.22610679  0.01955373  0.0033063   0.002862754
276   -112.6444529196   0.007801943060 0.20321582  0.01678451  0.0255379   0.022187908
277   -112.6518152906  -0.007362371079 0.02887389  0.00231207  0.0016798   0.001437001
278   -112.6521349121  -0.000319621466 0.04121470  0.00334157  0.0035813   0.003119568
279   -112.6517086477   0.000426264457 0.02029933  0.00167381  0.0007990   0.000667901
               *** Restarting incremental Fock matrix formation ***
                             ****Resetting KDIIS****
280   -112.6518934382  -0.000184790494 0.00104705  0.00009566  0.0020522   0.001771080
281   -112.6519125757  -0.000019137527 0.00089020  0.00008795  0.0012845   0.000821615
282   -112.6519252722  -0.000012696491 0.01379537  0.00117474  0.0013926   0.000802175
283   -112.6517756893   0.000149582912 0.04844309  0.00418764  0.0011392   0.000651770
284   -112.6514099236   0.000365765695 0.02686441  0.00244934  0.0022746   0.001942383
285   -112.6511552158   0.000254707779 0.05042681  0.00449739  0.0040281   0.003486261
286   -112.6515641688  -0.000408953056 0.03070689  0.00256406  0.0018978   0.001694961
287   -112.6517934562  -0.000229287407 0.01138463  0.00093358  0.0029042   0.002553722
288   -112.6516994150   0.000094041244 0.00227852  0.00018703  0.0023975   0.002116943
289   -112.6516850119   0.000014403143 0.02433670  0.00197838  0.0021893   0.001924049
290   -112.6518775362  -0.000192524319 0.08822938  0.00760514  0.0038785   0.003494370
291   -112.6511397405   0.000737795627 0.08110329  0.00700220  0.0049799   0.004487833
292   -112.6517858343  -0.000646093719 0.01729157  0.00140177  0.0040578   0.003720060
293   -112.6516592681   0.000126566159 0.03003134  0.00254309  0.0030956   0.002792465
294   -112.6514657825   0.000193485615 0.04915791  0.00409456  0.0026496   0.002347288
295   -112.6518043012  -0.000338518695 0.03624252  0.00289983  0.0041062   0.003751342
296   -112.6522223969  -0.000418095749 0.10265504  0.00852404  0.0063271   0.005762854
297   -112.6513024546   0.000919942299 0.02656364  0.00240165  0.0041757   0.003803714
298   -112.6509382123   0.000364242352 0.02244665  0.00189142  0.0067893   0.006161688
299   -112.6504346726   0.000503539725 0.01151099  0.00096072  0.0096006   0.008577040
               *** Restarting incremental Fock matrix formation ***
                             ****Resetting KDIIS****
300   -112.6507314753  -0.000296802719 0.00422824  0.00038735  0.0079916   0.007170476
301   -112.6510200755  -0.000288600260 0.00095027  0.00008882  0.0023851   0.001911520
302   -112.6510387571  -0.000018681557 0.00670040  0.00055695  0.0020769   0.001662728
303   -112.6511259217  -0.000087164607 0.03894980  0.00337894  0.0012704   0.001005655
304   -112.6514323597  -0.000306437999 0.01196891  0.00108216  0.0021759   0.001698432
305   -112.6515235475  -0.000091187779 0.02407923  0.00215038  0.0017145   0.001122157
306   -112.6513566819   0.000166865574 0.02931182  0.00254958  0.0015176   0.001251926
307   -112.6515352555  -0.000178573594 0.05976337  0.00489126  0.0018560   0.001629117
308   -112.6519928139  -0.000457558435 0.05584600  0.00459554  0.0053259   0.004809027
309   -112.6515147522   0.000478061692 0.03355852  0.00293223  0.0034867   0.003205938
310   -112.6512841126   0.000230639691 0.00511555  0.00045410  0.0039537   0.003597849
311   -112.6512513553   0.000032757208 0.00338065  0.00030492  0.0038743   0.003476203
312   -112.6512172347   0.000034120626 0.00246548  0.00022423  0.0040490   0.003647098
313   -112.6511856719   0.000031562862 0.08323269  0.00718955  0.0043284   0.003886644
314   -112.6518902394  -0.000704567587 0.01155418  0.00091811  0.0023233   0.001985882
315   -112.6520019413  -0.000111701807 0.17242447  0.01555646  0.0034844   0.003040696
316   -112.6475564505   0.004445490749 0.09890627  0.00801153  0.0196276   0.017179751
317   -112.6512690108  -0.003712560266 0.00201668  0.00019619  0.0031982   0.002853753
318   -112.6512974952  -0.000028484415 0.05636126  0.00489705  0.0027600   0.002464125
319   -112.6517016229  -0.000404127700 0.09310906  0.00733514  0.0018579   0.001613590
               *** Restarting incremental Fock matrix formation ***
                             ****Resetting KDIIS****
320   -112.6529043459  -0.001202723012 0.00479117  0.00046097  0.0094117   0.008608921
321   -112.6533122789  -0.000407932988 0.00255228  0.00024373  0.0029567   0.002555824
322   -112.6534094151  -0.000097136201 0.02939658  0.00247649  0.0028516   0.002431351
323   -112.6526006473   0.000808767825 0.06812182  0.00563175  0.0023326   0.002121600
324   -112.6516136468   0.000987000488 0.04361496  0.00381034  0.0035328   0.003126802
325   -112.6512778771   0.000335769709 0.06978496  0.00594178  0.0047791   0.004351268
326   -112.6518373682  -0.000559491183 0.10090331  0.00776251  0.0042682   0.003904918
327   -112.6533314086  -0.001494040367 0.12959638  0.01014959  0.0136871   0.012704035
328   -112.6515226420   0.001808766634 0.00803304  0.00067366  0.0051124   0.004787340
329   -112.6515722272  -0.000049585249 0.00752170  0.00062126  0.0053851   0.005051314
330   -112.6515274436   0.000044783604 0.06808186  0.00606332  0.0051053   0.004778223
331   -112.6508369053   0.000690538357 0.03534873  0.00293872  0.0081253   0.007345432
332   -112.6498102141   0.001026691119 0.02016357  0.00176842  0.0132001   0.011734594
333   -112.6506561884  -0.000845974268 0.15572347  0.01128034  0.0082532   0.007468022
334   -112.6349782402   0.015677948247 0.14526415  0.01053648  0.0448711   0.038989107
335   -112.6506152574  -0.015637017212 0.06558128  0.00583999  0.0069614   0.006098634
336   -112.6514856267  -0.000870369298 0.01175721  0.00101544  0.0006021   0.000485345
337   -112.6515496881  -0.000064061443 0.01309492  0.00111151  0.0015326   0.001319456
Warning: badly conditioned DIIS matrix, 1 vectors out of 5 destroyed
338   -112.6516410385  -0.000091350338 0.00627390  0.00054000  0.0014761   0.001258741
339   -112.6515920200   0.000049018446 0.01012312  0.00085100  0.0016981   0.001475898
               *** Restarting incremental Fock matrix formation ***
                             ****Resetting KDIIS****
340   -112.6516622611  -0.000070241114 0.00100125  0.00009150  0.0019496   0.001690024
341   -112.6516786694  -0.000016408257 0.00058979  0.00005804  0.0007297   0.000597868
342   -112.6516843460  -0.000005676623 0.00598870  0.00052089  0.0008120   0.000566408
343   -112.6516373215   0.000047024493 0.04711388  0.00414389  0.0007893   0.000518410
344   -112.6513115747   0.000325746791 0.03380696  0.00299470  0.0022545   0.001704022
345   -112.6515379513  -0.000226376553 0.00979026  0.00087236  0.0014089   0.001180141
346   -112.6514701532   0.000067798072 0.01582377  0.00133298  0.0019391   0.001613893
347   -112.6515639277  -0.000093774521 0.11489109  0.00908138  0.0020834   0.001816050
348   -112.6528171795  -0.001253251725 0.14919549  0.01203338  0.0114034   0.010446774
349   -112.6512946740   0.001522505411 0.04773272  0.00423842  0.0040498   0.003478191
350   -112.6502576935   0.001036980540 0.08675672  0.00796183  0.0110758   0.009776976
351   -112.6516298728  -0.001372179332 0.01508282  0.00127401  0.0018909   0.001645381
352   -112.6517572783  -0.000127405459 0.02908750  0.00245865  0.0018525   0.001563295
353   -112.6515356062   0.000221672123 0.01096947  0.00094962  0.0017994   0.001588942
354   -112.6516176035  -0.000081997378 0.00633847  0.00053427  0.0012740   0.001106116
355   -112.6516639981  -0.000046394567 0.05622664  0.00494657  0.0013501   0.001163852
356   -112.6512396790   0.000424319084 0.04365150  0.00386748  0.0032353   0.002874392
357   -112.6515625283  -0.000322849272 0.02579610  0.00215444  0.0019996   0.001775335
358   -112.6517489497  -0.000186421386 0.04264558  0.00361005  0.0027888   0.002433248
359   -112.6514539297   0.000295019966 0.07095533  0.00586685  0.0021161   0.001888868
               *** Restarting incremental Fock matrix formation ***
                             ****Resetting KDIIS****
360   -112.6519902378  -0.000536308122 0.00265096  0.00024955  0.0051736   0.004632438
361   -112.6521085449  -0.000118307017 0.00120349  0.00011492  0.0016133   0.001298581
362   -112.6521308480  -0.000022303132 0.01438508  0.00124351  0.0014676   0.001208819
363   -112.6519270974   0.000203750625 0.04795729  0.00407155  0.0012450   0.001137542
364   -112.6515151857   0.000411911701 0.00568192  0.00050073  0.0022957   0.001709226
365   -112.6514823043   0.000032881347 0.01327205  0.00116868  0.0024253   0.001770222
366   -112.6515392773  -0.000056972997 0.02687608  0.00223583  0.0026892   0.002437956
367   -112.6517312412  -0.000191963924 0.08267381  0.00725653  0.0032383   0.002899492
368   -112.6510378880   0.000693353213 0.05630094  0.00504972  0.0050831   0.004565741
369   -112.6515449882  -0.000507100195 0.02468452  0.00214774  0.0025045   0.002343600
370   -112.6517475558  -0.000202567552 0.00252349  0.00020220  0.0025544   0.002051359
371   -112.6517641765  -0.000016620689 0.00917781  0.00078138  0.0027930   0.002320267
372   -112.6516862620   0.000077914418 0.04311976  0.00347789  0.0024609   0.002086868
373   -112.6521036747  -0.000417412654 0.11997776  0.01029692  0.0050086   0.004410503
374   -112.6509631799   0.001140494840 0.10575767  0.00919823  0.0058488   0.005221252
375   -112.6519513215  -0.000988141605 0.04310941  0.00355771  0.0038652   0.003325826
376   -112.6515834412   0.000367880223 0.02833118  0.00248013  0.0021924   0.001879523
377   -112.6513916505   0.000191790734 0.01001900  0.00089029  0.0025856   0.002345103
378   -112.6513155379   0.000076112650 0.00840146  0.00075690  0.0029328   0.002633122
379   -112.6513850798  -0.000069541929 0.00391580  0.00037181  0.0024713   0.002213711
               *** Restarting incremental Fock matrix formation ***
                             ****Resetting KDIIS****
380   -112.6513377440   0.000047335784 0.00168556  0.00015636  0.0031869   0.002895160
381   -112.6513842410  -0.000046496949 0.00047899  0.00004664  0.0009159   0.000753581
382   -112.6513885112  -0.000004270198 0.00333371  0.00030159  0.0007966   0.000660936
383   -112.6514121164  -0.000023605282 0.03639133  0.00309188  0.0005560   0.000470262
384   -112.6516363632  -0.000224246771 0.07667275  0.00694396  0.0016322   0.001346186
385   -112.6508939875   0.000742375726 0.06728305  0.00613695  0.0051691   0.004481856
386   -112.6515736713  -0.000679683808 0.00681516  0.00063279  0.0014888   0.001132621
387   -112.6516201703  -0.000046498979 0.15605251  0.01203351  0.0012249   0.001034302
388   -112.6534873763  -0.001867206082 0.08024961  0.00600712  0.0179291   0.016963208
389   -112.6524310082   0.001056368112 0.10600905  0.00869658  0.0061344   0.005556702
390   -112.6514191362   0.001011872052 0.03914793  0.00351076  0.0015761   0.001405850
391   -112.6509939882   0.000425148023 0.03303759  0.00293037  0.0046224   0.004103063
392   -112.6513719010  -0.000377912803 0.00627052  0.00056840  0.0018726   0.001644187
393   -112.6513200893   0.000051811694 0.06173307  0.00532684  0.0022500   0.001978048
394   -112.6517618935  -0.000441804239 0.06718410  0.00582748  0.0018796   0.001610695
395   -112.6512700280   0.000491865467 0.02363142  0.00214083  0.0025567   0.002263508
396   -112.6514586422  -0.000188614137 0.02728406  0.00248122  0.0011943   0.001036035
397   -112.6512283798   0.000230262375 0.02701077  0.00231248  0.0029438   0.002606367
398   -112.6508245569   0.000403822888 0.05605376  0.00500981  0.0056679   0.005028325
399   -112.6514740862  -0.000649529264 0.00005823  0.00000613  0.0012002   0.001045279
               *** Restarting incremental Fock matrix formation ***
                             ****Resetting KDIIS****
                          ***Energy convergence achieved***
400   -112.6514736370   0.000000449175 0.00062955  0.00005715  0.0012100   0.001053188
401   -112.6514802135  -0.000006576518 0.00045932  0.00004248  0.0006105   0.000427569
402   -112.6514832965  -0.000003082999 0.00343430  0.00031501  0.0006526   0.000405636
403   -112.6515057083  -0.000022411737 0.04456032  0.00399878  0.0007035   0.000387020
404   -112.6511510941   0.000354614180 0.11298573  0.00953626  0.0019377   0.001585474
Warning: badly conditioned DIIS matrix, 1 vectors out of 5 destroyed
405   -112.6520042161  -0.000853122017 0.02103523  0.00167131  0.0053595   0.004865650
406   -112.6522910280  -0.000286811941 0.09066280  0.00745368  0.0067082   0.006074752
407   -112.6514060660   0.000884962065 0.00099558  0.00009386  0.0041550   0.003837200
408   -112.6514473746  -0.000041308620 0.02663030  0.00244157  0.0031690   0.002887652
409   -112.6511136230   0.000333751546 0.05302000  0.00471145  0.0063418   0.005850713
410   -112.6516538661  -0.000540243071 0.00872503  0.00073830  0.0021616   0.001921538
411   -112.6517329794  -0.000079113300 0.01475870  0.00123189  0.0018837   0.001643996
412   -112.6516212540   0.000111725432 0.00729151  0.00061165  0.0014677   0.001283953
413   -112.6516744248  -0.000053170837 0.02314342  0.00196894  0.0016095   0.001408548
414   -112.6515149357   0.000159489096 0.01897867  0.00168777  0.0015181   0.001337618
Warning: badly conditioned DIIS matrix, 1 vectors out of 5 destroyed
415   -112.6513723793   0.000142556453 0.03443717  0.00303970  0.0026523   0.002392199
416   -112.6510106438   0.000361735456 0.05370977  0.00488567  0.0046222   0.004109297
417   -112.6515237760  -0.000513132155 0.00159042  0.00013758  0.0017162   0.001517896
Warning: badly conditioned DIIS matrix, 1 vectors out of 5 destroyed
418   -112.6515343181  -0.000010542115 0.03184871  0.00266368  0.0016899   0.001492492
419   -112.6517589717  -0.000224653573 0.02897868  0.00242238  0.0026436   0.002351686
               *** Restarting incremental Fock matrix formation ***
                             ****Resetting KDIIS****
420   -112.6515496280   0.000209343618 0.00097174  0.00008949  0.0018611   0.001653209
421   -112.6515650647  -0.000015436671 0.00047247  0.00004668  0.0005953   0.000523133
422   -112.6515688248  -0.000003760091 0.00068034  0.00005678  0.0005965   0.000484743
423   -112.6515648743   0.000003950480 0.05341225  0.00479311  0.0006904   0.000440689
424   -112.6511391675   0.000425706829 0.12493769  0.01050565  0.0025975   0.002178798
425   -112.6521579465  -0.001018779033 0.03321408  0.00256777  0.0062444   0.005683814
426   -112.6526296479  -0.000471701370 0.02754553  0.00207060  0.0094352   0.008677529
427   -112.6530042138  -0.000374565901 0.12605281  0.01000829  0.0132224   0.012340848
428   -112.6514141825   0.001590031324 0.01781373  0.00151531  0.0059630   0.005639735
429   -112.6513075742   0.000106608268 0.01419091  0.00124403  0.0058856   0.005528304
430   -112.6514537047  -0.000146130458 0.01940018  0.00163405  0.0048811   0.004581648
Warning: badly conditioned DIIS matrix, 1 vectors out of 5 destroyed
431   -112.6513977454   0.000055959280 0.11894991  0.00968993  0.0034452   0.003162915
432   -112.6527236256  -0.001325880217 0.12654977  0.01034486  0.0077568   0.007050302
433   -112.6513641790   0.001359446633 0.00744651  0.00067326  0.0030347   0.002747525
434   -112.6512999984   0.000064180534 0.00854518  0.00079157  0.0034421   0.003118177
435   -112.6511987896   0.000101208874 0.04666357  0.00394510  0.0043578   0.003944394
436   -112.6502327752   0.000966014350 0.00447002  0.00035342  0.0098928   0.008798580
Warning: badly conditioned DIIS matrix, 1 vectors out of 5 destroyed
437   -112.6500854096   0.000147365620 0.09478603  0.00854538  0.0105420   0.009357664
Warning: badly conditioned DIIS matrix, 1 vectors out of 5 destroyed
Warning: badly conditioned DIIS matrix, 1 vectors out of 4 destroyed
438   -112.6516024241  -0.001517014475 0.01541081  0.00128996  0.0015684   0.001358530
439   -112.6517173337  -0.000114909603 0.02856801  0.00241806  0.0018728   0.001617790
               *** Restarting incremental Fock matrix formation ***
                             ****Resetting KDIIS****
440   -112.6515156945   0.000201639166 0.00081431  0.00007433  0.0015630   0.001373882
441   -112.6515264771  -0.000010782579 0.00045337  0.00004405  0.0005510   0.000473122
442   -112.6515298124  -0.000003335288 0.00100021  0.00009675  0.0006101   0.000441982
443   -112.6515370102  -0.000007197820 0.05565829  0.00505010  0.0007061   0.000405814
Warning: badly conditioned DIIS matrix, 1 vectors out of 5 destroyed
Warning: badly conditioned DIIS matrix, 1 vectors out of 4 destroyed
444   -112.6510444381   0.000492572062 0.07675587  0.00674459  0.0032061   0.002640082
445   -112.6516555744  -0.000611136269 0.02360538  0.00194529  0.0022673   0.001975332
446   -112.6518465900  -0.000191015608 0.03151840  0.00261028  0.0035374   0.003076783
447   -112.6515820499   0.000264540113 0.01108507  0.00094297  0.0028457   0.002523540
448   -112.6515173533   0.000064696543 0.01350497  0.00118605  0.0024712   0.002220947
449   -112.6514218501   0.000095503228 0.01909966  0.00165041  0.0028935   0.002608049
450   -112.6515482430  -0.000126392872 0.04595117  0.00379521  0.0026594   0.002412170
451   -112.6519158108  -0.000367567849 0.09838121  0.00846623  0.0044071   0.003990651
452   -112.6510895779   0.000826232916 0.05978735  0.00532492  0.0049368   0.004445909
453   -112.6516091195  -0.000519541560 0.10097285  0.00801961  0.0022966   0.002052529
454   -112.6528382127  -0.001229093183 0.02378982  0.00183628  0.0092851   0.008498424
455   -112.6534405795  -0.000602366797 0.17041053  0.01386115  0.0108805   0.009942105
456   -112.6511595540   0.002281025454 0.07044370  0.00597859  0.0058544   0.005395802
Warning: badly conditioned DIIS matrix, 1 vectors out of 5 destroyed
Warning: badly conditioned DIIS matrix, 1 vectors out of 4 destroyed
457   -112.6488462196   0.002313334406 0.17203082  0.01208072  0.0172535   0.015355667
458   -112.6123866192   0.036459600410 0.00254028  0.00016784  0.0754677   0.065691566
Warning: badly conditioned DIIS matrix, 1 vectors out of 5 destroyed
459   -112.6112625025   0.001124116650 0.29556144  0.02300480  0.0766380   0.066731814
               *** Restarting incremental Fock matrix formation ***
                             ****Resetting KDIIS****
460   -112.6517260678  -0.040463565214 0.00087264  0.00008140  0.0017766   0.001461714
461   -112.6517395589  -0.000013491137 0.00072395  0.00006623  0.0009169   0.000631406
462   -112.6517467751  -0.000007216244 0.00335237  0.00030208  0.0009824   0.000611780
463   -112.6517155598   0.000031215372 0.04293433  0.00372394  0.0008914   0.000605914
464   -112.6514186881   0.000296871651 0.00560697  0.00049896  0.0017020   0.001261233
465   -112.6514532465  -0.000034558350 0.03838209  0.00333926  0.0015490   0.001172471
466   -112.6517209123  -0.000267665851 0.01232298  0.00117425  0.0020201   0.001463941
467   -112.6515955908   0.000125321476 0.04080418  0.00332172  0.0024139   0.002166202
468   -112.6519038421  -0.000308251213 0.06473924  0.00537881  0.0048074   0.004380404
469   -112.6514235173   0.000480324805 0.07489634  0.00652343  0.0030779   0.002783324
470   -112.6501267782   0.001296739041 0.06197132  0.00533067  0.0103467   0.009165068
471   -112.6513440847  -0.001217306493 0.01140701  0.00102377  0.0028406   0.002564807
472   -112.6512541425   0.000089942193 0.03541415  0.00302920  0.0030567   0.002715884
473   -112.6507000246   0.000554117923 0.04936303  0.00430638  0.0066006   0.005820179
474   -112.6513762796  -0.000676254998 0.01920580  0.00170388  0.0023186   0.002064806
475   -112.6515143049  -0.000138025335 0.00787857  0.00067984  0.0013406   0.001169772
476   -112.6515643135  -0.000050008572 0.00908750  0.00076703  0.0013783   0.001196306
477   -112.6516235948  -0.000059281266 0.00531992  0.00045272  0.0016026   0.001399509
478   -112.6515860173   0.000037577483 0.09858086  0.00871294  0.0016036   0.001402954
Warning: badly conditioned DIIS matrix, 1 vectors out of 5 destroyed
Warning: badly conditioned DIIS matrix, 1 vectors out of 4 destroyed
479   -112.6500701444   0.001515872904 0.11611065  0.01057207  0.0097153   0.008544094
               *** Restarting incremental Fock matrix formation ***
                             ****Resetting KDIIS****
480   -112.6517535784  -0.001683434030 0.00113466  0.00010435  0.0022007   0.001931339
481   -112.6517750522  -0.000021473766 0.00071329  0.00007014  0.0008997   0.000706004
482   -112.6517832596  -0.000008207438 0.00954856  0.00082385  0.0010005   0.000673441
483   -112.6516965275   0.000086732149 0.04881839  0.00424931  0.0008752   0.000596360
484   -112.6513490891   0.000347438370 0.12636797  0.01003597  0.0021628   0.001838459
Warning: badly conditioned DIIS matrix, 1 vectors out of 5 destroyed
485   -112.6462537923   0.005095296780 0.14995209  0.01228383  0.0223936   0.019441637
486   -112.6515308794  -0.005277087112 0.00261926  0.00022583  0.0009827   0.000857439
Warning: badly conditioned DIIS matrix, 1 vectors out of 5 destroyed
487   -112.6515459545  -0.000015075076 0.00885572  0.00075302  0.0011708   0.001006179
Warning: badly conditioned DIIS matrix, 1 vectors out of 5 destroyed
Warning: badly conditioned DIIS matrix, 1 vectors out of 4 destroyed
488   -112.6516032242  -0.000057269705 0.10550784  0.00928517  0.0013112   0.001131164
Warning: badly conditioned DIIS matrix, 1 vectors out of 4 destroyed
489   -112.6498884773   0.001714746859 0.27022784  0.02232661  0.0104268   0.009143011
Warning: badly conditioned DIIS matrix, 1 vectors out of 4 destroyed
490   -112.6541131237  -0.004224646357 0.14909712  0.01138884  0.0181455   0.017094624
491   -112.6517943691   0.002318754588 0.00420042  0.00034302  0.0009890   0.000884567
Warning: badly conditioned DIIS matrix, 1 vectors out of 5 destroyed
Warning: badly conditioned DIIS matrix, 1 vectors out of 4 destroyed
492   -112.6517567251   0.000037644035 0.05307613  0.00458464  0.0008162   0.000739537
493   -112.6513872500   0.000369475099 0.03626932  0.00319966  0.0006982   0.000625328
Warning: badly conditioned DIIS matrix, 1 vectors out of 5 destroyed
494   -112.6509999957   0.000387254264 0.01282395  0.00107680  0.0036544   0.003139810
495   -112.6511718696  -0.000171873845 0.12735519  0.01072485  0.0024248   0.002013337
496   -112.6523468382  -0.001174968648 0.00298346  0.00023012  0.0046699   0.004148089
497   -112.6523031234   0.000043714821 0.04992242  0.00382777  0.0044179   0.003907895
498   -112.6531468969  -0.000843773552 0.07600952  0.00558734  0.0098878   0.009037161
Warning: badly conditioned DIIS matrix, 1 vectors out of 5 destroyed
Warning: badly conditioned DIIS matrix, 1 vectors out of 4 destroyed
499   -112.6543815843  -0.001234687371 0.18589857  0.01423407  0.0215556   0.020582024
               *** Restarting incremental Fock matrix formation ***
                             ****Resetting KDIIS****
500   -112.6516420732   0.002739511101 0.00083375  0.00007862  0.0016841   0.001446447
501   -112.6516544492  -0.000012375982 0.00057270  0.00005574  0.0007394   0.000574022
502   -112.6516597448  -0.000005295587 0.00094525  0.00007531  0.0008050   0.000543403
503   -112.6516535162   0.000006228607 0.04328887  0.00374521  0.0008639   0.000509451
504   -112.6513664760   0.000287040212 0.01491027  0.00134037  0.0014466   0.001091354
505   -112.6512397471   0.000126728873 0.01378952  0.00118742  0.0023590   0.001806951
506   -112.6513399362  -0.000100189133 0.02203647  0.00197705  0.0023657   0.002019764
507   -112.6514903053  -0.000150369077 0.00776632  0.00065613  0.0018212   0.001609112
508   -112.6515357055  -0.000045400169 0.00909360  0.00077285  0.0019413   0.001722396
509   -112.6514810457   0.000054659729 0.24800150  0.01855412  0.0018757   0.001644246
Warning: badly conditioned DIIS matrix, 1 vectors out of 5 destroyed
Warning: badly conditioned DIIS matrix, 1 vectors out of 4 destroyed
510   -112.6264752045   0.025005841186 0.11804902  0.00807850  0.0564293   0.048991921
Warning: badly conditioned DIIS matrix, 1 vectors out of 4 destroyed
511   -112.6476142793  -0.021139074761 0.15032611  0.01268326  0.0184443   0.016206757
512   -112.6516155870  -0.004001307715 0.02340026  0.00199956  0.0029098   0.002576463
513   -112.6514715683   0.000144018773 0.00187702  0.00016180  0.0024320   0.002186590
Warning: badly conditioned DIIS matrix, 1 vectors out of 5 destroyed
Warning: badly conditioned DIIS matrix, 1 vectors out of 4 destroyed
514   -112.6514603211   0.000011247151 0.05508168  0.00491917  0.0024252   0.002177532
Warning: badly conditioned DIIS matrix, 1 vectors out of 4 destroyed
515   -112.6508701845   0.000590136563 0.01420268  0.00114256  0.0053639   0.004657043
516   -112.6505673867   0.000302797850 0.00229507  0.00018335  0.0070292   0.006188537
517   -112.6506243107  -0.000056923981 0.02668772  0.00222522  0.0067298   0.005917529
518   -112.6510961409  -0.000471830184 0.24919723  0.01967012  0.0041674   0.003686149
Warning: badly conditioned DIIS matrix, 1 vectors out of 5 destroyed
Warning: badly conditioned DIIS matrix, 1 vectors out of 4 destroyed
519   -112.6535192429  -0.002423102024 0.23757720  0.01860936  0.0242724   0.023275866
               *** Restarting incremental Fock matrix formation ***
                             ****Resetting KDIIS****
520   -112.6512416870   0.002277555835 0.00178030  0.00016322  0.0034829   0.003018696
521   -112.6512927270  -0.000051039976 0.00057842  0.00005648  0.0011395   0.000846916
522   -112.6512989704  -0.000006243339 0.00348125  0.00032020  0.0010208   0.000753972
523   -112.6513307669  -0.000031796505 0.00495401  0.00045973  0.0008146   0.000579173
524   -112.6513741104  -0.000043343521 0.02053229  0.00183444  0.0009371   0.000513051
525   -112.6511715499   0.000202560466 0.01348600  0.00117285  0.0022699   0.001865842
526   -112.6512992030  -0.000127653124 0.00549494  0.00049664  0.0017098   0.001434708
527   -112.6513457260  -0.000046523007 0.01590099  0.00143043  0.0014777   0.001229153
528   -112.6514564682  -0.000110742102 0.01678584  0.00151625  0.0014096   0.001158319
529   -112.6513370268   0.000119441354 0.06482654  0.00558802  0.0019257   0.001630672
530   -112.6517659978  -0.000428971050 0.06496366  0.00510464  0.0029894   0.002515664
531   -112.6524770044  -0.000711006527 0.00599904  0.00046447  0.0088124   0.007966803
532   -112.6524935771  -0.000016572769 0.06855168  0.00514899  0.0068502   0.006138739
533   -112.6535476906  -0.001054113499 0.10077695  0.00769050  0.0161346   0.015082663
534   -112.6520550306   0.001492660080 0.06748548  0.00562232  0.0037092   0.003299728
535   -112.6514812376   0.000573792920 0.00101190  0.00010909  0.0021765   0.001885347
536   -112.6514646501   0.000016587541 0.00496128  0.00059962  0.0029992   0.002595255
537   -112.6513624269   0.000102223151 0.10937674  0.00936392  0.0045793   0.004213808
538   -112.6471810844   0.004181342594 0.17198767  0.01592987  0.0229457   0.020235668
539   -112.6522030776  -0.005021993202 0.00657805  0.00051474  0.0025656   0.002153091
               *** Restarting incremental Fock matrix formation ***
                             ****Resetting KDIIS****
540   -112.6522946799  -0.000091602347 0.00166634  0.00015014  0.0032955   0.002791180
541   -112.6523421235  -0.000047443547 0.00144947  0.00014170  0.0020175   0.001305412
542   -112.6523746286  -0.000032505100 0.02061096  0.00173811  0.0022144   0.001283969
543   -112.6520347292   0.000339899318 0.05138871  0.00436331  0.0015708   0.000988327
544   -112.6515382219   0.000496507319 0.00986798  0.00085256  0.0026225   0.002094111
545   -112.6515997793  -0.000061557422 0.00336883  0.00033975  0.0025781   0.002109564
                          ***Energy convergence achieved***
546   -112.6516007591  -0.000000979759 0.00594415  0.00048056  0.0030854   0.002792131
547   -112.6516462968  -0.000045537673 0.03530611  0.00296255  0.0030343   0.002711324
548   -112.6514467254   0.000199571384 0.00810224  0.00065991  0.0020430   0.001828922
549   -112.6514045157   0.000042209644 0.05145747  0.00446641  0.0016572   0.001342968
550   -112.6507740964   0.000630419371 0.08898021  0.00795564  0.0055288   0.004691553
551   -112.6516645933  -0.000890496957 0.03496257  0.00285045  0.0019759   0.001707546
552   -112.6519676848  -0.000303091429 0.00337818  0.00027054  0.0040219   0.003586990
553   -112.6520066802  -0.000038995395 0.00769720  0.00062742  0.0042075   0.003762457
554   -112.6521027792  -0.000096099086 0.02203893  0.00178796  0.0047447   0.004186854
555   -112.6518310926   0.000271686624 0.04781833  0.00404192  0.0040108   0.003583782
556   -112.6514189182   0.000412174409 0.04509259  0.00379657  0.0043950   0.004067278
557   -112.6517862401  -0.000367321879 0.00928742  0.00075731  0.0042757   0.003899833
558   -112.6517079350   0.000078305107 0.02976034  0.00247500  0.0038788   0.003548256
559   -112.6515141567   0.000193778292 0.04436689  0.00395558  0.0028999   0.002633686
               *** Restarting incremental Fock matrix formation ***
                             ****Resetting KDIIS****
560   -112.6511509217   0.000363234946 0.00235806  0.00021719  0.0044698   0.004010643
561   -112.6512411436  -0.000090221908 0.00064803  0.00006062  0.0013244   0.001063666
562   -112.6512487724  -0.000007628771 0.00522670  0.00045316  0.0011576   0.000934030
563   -112.6512947938  -0.000046021372 0.04221631  0.00359993  0.0007131   0.000606450
564   -112.6515530351  -0.000258241351 0.03912996  0.00325742  0.0021190   0.001779305
565   -112.6518629194  -0.000309884223 0.07894876  0.00678727  0.0034946   0.002847086
566   -112.6512485398   0.000614379612 0.00398492  0.00036125  0.0035465   0.003118434
567   -112.6512898161  -0.000041276352 0.01032268  0.00090915  0.0031664   0.002791249
568   -112.6511886353   0.000101180814 0.00297199  0.00026118  0.0037348   0.003331821
569   -112.6511530847   0.000035550622 0.04998505  0.00407264  0.0039809   0.003548468
570   -112.6500865160   0.001066568681 0.10323219  0.00914745  0.0093856   0.008251495
Warning: badly conditioned DIIS matrix, 1 vectors out of 5 destroyed
Warning: badly conditioned DIIS matrix, 1 vectors out of 4 destroyed
571   -112.6516158414  -0.001529325453 0.03469008  0.00284676  0.0018045   0.001586074
572   -112.6519025635  -0.000286722018 0.06780208  0.00571619  0.0033593   0.002993792
573   -112.6513935945   0.000508968959 0.00205024  0.00018259  0.0022770   0.002019962
Warning: badly conditioned DIIS matrix, 1 vectors out of 5 destroyed
574   -112.6514086257  -0.000015031187 0.10746266  0.00888786  0.0021904   0.001938994
Warning: badly conditioned DIIS matrix, 1 vectors out of 5 destroyed
Warning: badly conditioned DIIS matrix, 1 vectors out of 4 destroyed
575   -112.6483287784   0.003079847321 0.14097963  0.01224832  0.0167556   0.014623397
Warning: badly conditioned DIIS matrix, 1 vectors out of 4 destroyed
576   -112.6516809097  -0.003352131334 0.02445107  0.00200131  0.0018490   0.001542152
577   -112.6518983619  -0.000217452236 0.06929616  0.00587780  0.0029192   0.002472827
Warning: badly conditioned DIIS matrix, 1 vectors out of 5 destroyed
578   -112.6513711319   0.000527230052 0.00743137  0.00066388  0.0022827   0.002038608
Warning: badly conditioned DIIS matrix, 1 vectors out of 5 destroyed
579   -112.6514258515  -0.000054719637 0.00819337  0.00073993  0.0019520   0.001740076
               *** Restarting incremental Fock matrix formation ***
                             ****Resetting KDIIS****
580   -112.6514819534  -0.000056101841 0.00092508  0.00008283  0.0018426   0.001518373
581   -112.6514952144  -0.000013261046 0.00044700  0.00004382  0.0006793   0.000490794
582   -112.6514985567  -0.000003342327 0.00080562  0.00007840  0.0006279   0.000456256
Warning: badly conditioned DIIS matrix, 1 vectors out of 4 destroyed
583   -112.6515044253  -0.000005868553 0.00993191  0.00089070  0.0006492   0.000414002
584   -112.6514453651   0.000059060182 0.00103531  0.00010633  0.0007459   0.000412983
Warning: badly conditioned DIIS matrix, 1 vectors out of 5 destroyed
585   -112.6514409161   0.000004448982 0.01031195  0.00087860  0.0008371   0.000504005
586   -112.6515033072  -0.000062391120 0.05633780  0.00466010  0.0008546   0.000377568
587   -112.6519388021  -0.000435494902 0.13275651  0.01198125  0.0031572   0.002730622
588   -112.6501711550   0.001767647139 0.15253709  0.01350307  0.0089390   0.007819017
589   -112.6521798437  -0.002008688740 0.00592815  0.00047716  0.0043231   0.003828669
590   -112.6520899055   0.000089938262 0.04646195  0.00378213  0.0041655   0.003697690
591   -112.6516478377   0.000442067780 0.01522732  0.00123705  0.0015468   0.001294674
592   -112.6517511606  -0.000103322934 0.00431681  0.00035613  0.0027400   0.002379478
593   -112.6517141306   0.000037030073 0.05456388  0.00471875  0.0026191   0.002298233
594   -112.6513153997   0.000398730836 0.04189504  0.00365059  0.0034759   0.003072804
595   -112.6516024601  -0.000287060330 0.01308921  0.00114224  0.0028779   0.002603234
596   -112.6515287581   0.000073701957 0.07211993  0.00589704  0.0023949   0.002130977
597   -112.6521527438  -0.000623985721 0.10055717  0.00839961  0.0061922   0.005638579
598   -112.6512960901   0.000856653724 0.00557465  0.00051133  0.0039098   0.003579293
599   -112.6512425484   0.000053541675 0.04965204  0.00434347  0.0043430   0.003880673
               *** Restarting incremental Fock matrix formation ***
                             ****Resetting KDIIS****
600   -112.6516182124  -0.000375663952 0.00157802  0.00014623  0.0030320   0.002722263
601   -112.6516587139  -0.000040501561 0.00057528  0.00005643  0.0009218   0.000727312
602   -112.6516643918  -0.000005677831 0.00512413  0.00044814  0.0008224   0.000655312
603   -112.6516253168   0.000039074993 0.03609762  0.00316545  0.0006529   0.000588517
604   -112.6513971527   0.000228164061 0.01646383  0.00147896  0.0016231   0.001046955
605   -112.6514900111  -0.000092858343 0.03046987  0.00278894  0.0013894   0.001110239
606   -112.6512443503   0.000245660774 0.03711424  0.00329293  0.0030005   0.002642146
607   -112.6515164953  -0.000272144981 0.06371226  0.00524931  0.0019917   0.001796053
608   -112.6520413736  -0.000524878377 0.03739504  0.00301692  0.0050032   0.004513695
609   -112.6516892225   0.000352151187 0.00219846  0.00020848  0.0028308   0.002523944
610   -112.6516547606   0.000034461856 0.00863620  0.00072401  0.0033360   0.002993946
611   -112.6515975701   0.000057190502 0.04904619  0.00431197  0.0029842   0.002684148
612   -112.6512363186   0.000361251466 0.04435148  0.00390873  0.0042030   0.003671831
613   -112.6515654256  -0.000329106998 0.00573150  0.00050054  0.0028900   0.002638065
614   -112.6516186822  -0.000053256579 0.00353026  0.00029857  0.0024649   0.002218525
615   -112.6515941437   0.000024538470 0.11196293  0.00981830  0.0024186   0.002177767
Warning: badly conditioned DIIS matrix, 1 vectors out of 5 destroyed
616   -112.6495731387   0.002021005012 0.12142197  0.01084880  0.0121346   0.010653743
Warning: badly conditioned DIIS matrix, 1 vectors out of 5 destroyed
617   -112.6517014244  -0.002128285721 0.01680929  0.00137805  0.0018749   0.001614387
618   -112.6518471815  -0.000145757044 0.04631318  0.00389054  0.0026400   0.002280612
619   -112.6514917197   0.000355461797 0.01336463  0.00114431  0.0019313   0.001715809
               *** Restarting incremental Fock matrix formation ***
                             ****Resetting KDIIS****
620   -112.6515761085  -0.000084388812 0.00104655  0.00009607  0.0020151   0.001776213
621   -112.6515938640  -0.000017755483 0.00049983  0.00004932  0.0006550   0.000555613
622   -112.6515980534  -0.000004189406 0.00157211  0.00013584  0.0006188   0.000514225
623   -112.6515875542   0.000010499196 0.04413488  0.00390800  0.0007017   0.000468318
624   -112.6512841163   0.000303437902 0.05132964  0.00449712  0.0018867   0.001400843
625   -112.6516258675  -0.000341751220 0.00340260  0.00027618  0.0017830   0.001391834
626   -112.6516456554  -0.000019787929 0.03548097  0.00297973  0.0019687   0.001608273
627   -112.6514375163   0.000208139111 0.10225194  0.00837766  0.0009756   0.000600156
628   -112.6523875155  -0.000949999211 0.06769258  0.00556102  0.0061343   0.005237065
[...]
1143   -112.6353801182  -0.005577512966 0.18232726  0.01072622  0.0250052   0.011160314
1144   -112.6470186141  -0.011638495908 0.01925085  0.00185520  0.0211490   0.020204831
1145   -112.6488008536  -0.001782239445 0.03525243  0.00237423  0.0095706   0.004773323
1146   -112.6499579211  -0.001157067490 0.11817096  0.00929215  0.0063858   0.004139936
1147   -112.6515414875  -0.001583566474 0.03087922  0.00218936  0.0029581   0.002794848
1148   -112.6516599219  -0.000118434410 0.01773990  0.00139213  0.0051237   0.004700658
1149   -112.6516121521   0.000047769827 0.03021640  0.00231321  0.0040626   0.002641458
1150   -112.6517007392  -0.000088587095 0.01007182  0.00091910  0.0066351   0.006076357
1151   -112.6516235632   0.000077175975 0.04047203  0.00328656  0.0059900   0.005529733
1152   -112.6514986601   0.000124903143 0.11966820  0.00992963  0.0017319   0.001377751
1153   -112.6486217084   0.002876951701 0.13384035  0.01137992  0.0147997   0.012879016
1154   -112.6516147917  -0.002993083301 0.00240934  0.00020611  0.0012703   0.001037216
Warning: badly conditioned DIIS matrix, 1 vectors out of 5 destroyed
Warning: badly conditioned DIIS matrix, 1 vectors out of 4 destroyed
1155   -112.6515983160   0.000016475681 0.00079061  0.00010775  0.0012463   0.001016786
Warning: badly conditioned DIIS matrix, 1 vectors out of 4 destroyed
1156   -112.6516006368  -0.000002320742 0.07104094  0.00646934  0.0016084   0.001318351
1157   -112.6508851965   0.000715440226 0.02696359  0.00231617  0.0053784   0.004737849
1158   -112.6512609305  -0.000375734010 0.00764909  0.00082146  0.0029180   0.002527867
1159   -112.6513483975  -0.000087466992 0.03911836  0.00339630  0.0010271   0.000884704
               *** Restarting incremental Fock matrix formation ***
                             ****Resetting KDIIS****
1160   -112.6508393120   0.000509085520 0.00265912  0.00024028  0.0050638   0.004432559
1161   -112.6509514830  -0.000112170997 0.00121818  0.00009758  0.0016736   0.001399456
1162   -112.6509703022  -0.000018819167 0.01321091  0.00104463  0.0014843   0.001259876
1163   -112.6511319600  -0.000161657857 0.03326521  0.00289469  0.0010563   0.000864918
1164   -112.6514161617  -0.000284201695 0.00172651  0.00016388  0.0022006   0.001746877
1165   -112.6513987599   0.000017401781 0.01171743  0.00110464  0.0023286   0.001890031
1166   -112.6512971880   0.000101571955 0.02582109  0.00225679  0.0021502   0.001892618
1167   -112.6514743590  -0.000177171038 0.00750161  0.00085493  0.0022198   0.002006934
1168   -112.6513465908   0.000127768265 0.06090461  0.00520175  0.0042024   0.003872798
1169   -112.6518761533  -0.000529562491 0.16472445  0.01460126  0.0032213   0.002925849
1170   -112.6477570902   0.004119063081 0.03673488  0.00280928  0.0184485   0.016098199
1171   -112.6499538560  -0.002196765808 0.13881216  0.00965507  0.0101898   0.008925857
1172   -112.6337991750   0.016154680979 0.29057137  0.02386024  0.0451062   0.039173186
1173   -112.6520850963  -0.018285921288 0.06010971  0.00474678  0.0083438   0.007718830
1174   -112.6535764045  -0.001491308199 0.19371152  0.01598308  0.0103932   0.009280594
1175   -112.6508757961   0.002700608348 0.27993989  0.01930124  0.0070805   0.006379871
1176   -112.5900752059   0.060800590287 0.05764378  0.00371621  0.0943471   0.082742661
1177   -112.6174174886  -0.027342282752 0.04913828  0.00336315  0.0682413   0.059345178
1178   -112.6343246344  -0.016907145825 0.15468805  0.01058935  0.0453502   0.039398472
1179   -112.5419333119   0.092391322528 0.32964696  0.02298785  0.1316807   0.116019796
               *** Restarting incremental Fock matrix formation ***
                             ****Resetting KDIIS****
1180   -112.6510459666  -0.109112654670 0.00166373  0.00014547  0.0048859   0.004354854
1181   -112.6510963159  -0.000050349329 0.00169839  0.00012263  0.0032858   0.002673178
1182   -112.6511255818  -0.000029265900 0.00327650  0.00027884  0.0023391   0.001955809
1183   -112.6511730124  -0.000047430619 0.01375083  0.00116504  0.0014743   0.001336210
1184   -112.6513110569  -0.000138044477 0.00629158  0.00058660  0.0011550   0.000572698
1185   -112.6513737067  -0.000062649821 0.00252775  0.00025697  0.0009326   0.000593668
1186   -112.6513455292   0.000028177479 0.03303755  0.00281236  0.0008503   0.000614344
1187   -112.6515377472  -0.000192217983 0.02952191  0.00251068  0.0020172   0.001793782
1188   -112.6513614230   0.000176324237 0.04866910  0.00414412  0.0012626   0.000562772
1189   -112.6516861335  -0.000324710475 0.07804026  0.00703645  0.0021925   0.001980791
1190   -112.6509663891   0.000719744346 0.02555541  0.00224385  0.0041613   0.003595223
1191   -112.6512644560  -0.000298066875 0.00626302  0.00055715  0.0028731   0.002591530
1192   -112.6512064653   0.000057990668 0.00183145  0.00016759  0.0030957   0.002725755
1193   -112.6512341108  -0.000027645492 0.00824970  0.00072131  0.0026210   0.002256886
1194   -112.6513066023  -0.000072491443 0.02472229  0.00224411  0.0022300   0.002000556
1195   -112.6514935030  -0.000186900706 0.01396235  0.00139341  0.0013834   0.001139235
1196   -112.6514050424   0.000088460575 0.00301134  0.00035381  0.0015449   0.001162101
1197   -112.6514101658  -0.000005123433 0.02014520  0.00175473  0.0009297   0.000737565
1198   -112.6515340026  -0.000123836741 0.14729083  0.01147537  0.0011371   0.000903875
1199   -112.6530506961  -0.001516693584 0.11780686  0.00851319  0.0154364   0.014513057
               *** Restarting incremental Fock matrix formation ***
                             ****Resetting KDIIS****
1200   -112.6525563492   0.000494346933 0.01855613  0.00197181  0.0420283   0.037127774
1201   -112.6599775198  -0.007421170598 0.00697240  0.00065009  0.0108466   0.008867132
1202   -112.6607178361  -0.000740316265 0.06241496  0.00526382  0.0098790   0.008069273
1203   -112.6561843149   0.004533521145 0.15385497  0.01257818  0.0089713   0.007829063
1204   -112.6507679920   0.005416322905 0.15439894  0.01435878  0.0143073   0.013201674
1205   -112.6409850849   0.009782907171 0.32334108  0.02808694  0.0416474   0.036917129
1206   -112.6574362892  -0.016451204374 0.04989941  0.00357105  0.0087198   0.007462311
1207   -112.6596500026  -0.002213713346 0.14280936  0.01093484  0.0169841   0.015223148
1208   -112.6693829556  -0.009732953021 0.01802127  0.00135737  0.0322863   0.030852320
1209   -112.6685944099   0.000788545734 0.07312635  0.00583018  0.0292656   0.027487390
1210   -112.6743168722  -0.005722462295 0.54091559  0.04421690  0.0364262   0.035559745
Warning: badly conditioned DIIS matrix, 1 vectors out of 5 destroyed
1211   -112.6197655037   0.054551368490 0.77019584  0.06600944  0.0786465   0.072729607
1212   -112.7147457346  -0.094980230915 0.00088797  0.00006300  0.0254482   0.021573356
Warning: badly conditioned DIIS matrix, 1 vectors out of 5 destroyed
1213   -112.7147018631   0.000043871481 0.10662914  0.00987233  0.0255267   0.021621257
1214   -112.7139816796   0.000720183503 0.02054010  0.00124365  0.0267565   0.014345953
Warning: badly conditioned DIIS matrix, 1 vectors out of 5 destroyed
1215   -112.7165904439  -0.002608764258 0.17433404  0.01200819  0.0250298   0.012376477
1216   -112.7197260355  -0.003135591601 0.08781965  0.00614024  0.0330779   0.016700728
1217   -112.7246001326  -0.004874097117 0.01859582  0.00122675  0.0082366   0.004518497
1218   -112.7250888719  -0.000488739345 0.00187753  0.00019504  0.0019103   0.000942113
1219   -112.7251111641  -0.000022292200 0.00255508  0.00019980  0.0011558   0.000576636
               *** Restarting incremental Fock matrix formation ***
                             ****Resetting KDIIS****
1220   -112.7251213671  -0.000010202994 0.00003649  0.00000319  0.0001371   0.000080218
                          ***Energy convergence achieved***
1221   -112.7251214046  -0.000000037536 0.00004074  0.00000384  0.0001151   0.000063606

            ***Energy convergence in two consecutive cycles with***
                    ***'reasonable' density convergence***
                       *** signaling convergence ***

                    *** KDIIS BlockDiag ( 0.000 sec) ***

               *****************************************************
               *                     SUCCESS                       *
               *           SCF CONVERGED AFTER 1222 CYCLES          *
               *****************************************************

Setting up the final grid:

General Integration Accuracy     IntAcc      ...  4.670
Radial Grid Type                 RadialGrid  ... Gauss-Chebyshev
Angular Grid (max. acc.)         AngularGrid ... Lebedev-302
Angular grid pruning method      GridPruning ... 3 (G Style)
Weight generation scheme         WeightScheme... Becke
Basis function cutoff            BFCut       ...    1.0000e-10
Integration weight cutoff        WCut        ...    1.0000e-14
Grids for H and He will be reduced by one unit

# of grid points (after initial pruning)     ...  12424 (   0.0 sec)
# of grid points (after weights+screening)   ...  12407 (   0.0 sec)
nearest neighbour list constructed           ...    0.0 sec
Grid point re-assignment to atoms done       ...    0.0 sec
Grid point division into batches done        ...    0.0 sec
Reduced shell lists constructed in    0.1 sec

Total number of grid points                  ...    12407
Total number of batches                      ...      195
Average number of points per batch           ...       63
Average number of grid points per atom       ...     6204
Average number of shells per batch           ...     8.23 (68.58%)
Average number of basis functions per batch  ...    20.21 (72.18%)
Average number of large shells per batch     ...     6.70 (81.40%)
Average number of large basis fcns per batch ...    15.99 (79.15%)
Maximum spatial batch extension              ...  17.51, 20.64, 19.94 au
Average spatial batch extension              ...   4.06,  4.40,  4.35 au

Final grid set up in    0.1 sec
Final integration                            ... done (   0.1 sec)
Change in XC energy                          ...    -0.000155273
Integrated number of electrons               ...    13.999962301
Previous integrated no of electrons          ...    13.999692438

----------------
TOTAL SCF ENERGY
----------------

Total Energy       :         -112.72527671 Eh           -3067.41072 eV

Components:
Nuclear Repulsion  :            8.62098663 Eh             234.58897 eV
Electronic Energy  :         -121.34626334 Eh           -3301.99970 eV
One Electron Energy:         -171.03373171 Eh           -4654.06445 eV
Two Electron Energy:           49.68746837 Eh            1352.06475 eV

Virial components:
Potential Energy   :         -224.67501204 Eh           -6113.71789 eV
Kinetic Energy     :          111.94973532 Eh            3046.30717 eV
Virial Ratio       :            2.00692759


DFT components:
N(Alpha)           :        6.999981150694 electrons
N(Beta)            :        6.999981150694 electrons
N(Total)           :       13.999962301388 electrons
E(XC)              :       -9.509568056766 Eh       

---------------
SCF CONVERGENCE
---------------

  Last Energy change         ...   -3.4099e-08  Tolerance :   1.0000e-06
  Last MAX-Density change    ...    9.0855e-05  Tolerance :   1.0000e-05
  Last RMS-Density change    ...    9.3301e-06  Tolerance :   1.0000e-06
  Last DIIS Error            ...    9.7318e-05  Tolerance :   1.0000e-06

             **** THE GBW FILE WAS UPDATED (Scan_25.gbw) ****
             **** DENSITY FILE WAS UPDATED (Scan_25.scfp.tmp) ****
             **** ENERGY FILE WAS UPDATED (Scan_25.en.tmp) ****
----------------
ORBITAL ENERGIES
----------------

  NO   OCC          E(Eh)            E(eV) 
   0   2.0000     -19.305169      -525.3204 
   1   2.0000     -10.514612      -286.1171 
   2   2.0000      -0.970524       -26.4093 
   3   2.0000      -0.698095       -18.9961 
   4   2.0000      -0.377721       -10.2783 
   5   2.0000      -0.377720       -10.2783 
   6   2.0000      -0.351007        -9.5514 
   7   0.0000      -0.094966        -2.5842 
   8   0.0000      -0.088516        -2.4086 
   9   0.0000      -0.088515        -2.4086 
  10   0.0000       0.598363        16.2823 
  11   0.0000       0.603619        16.4253 
  12   0.0000       0.603619        16.4253 
  13   0.0000       0.642389        17.4803 
  14   0.0000       1.019657        27.7463 
  15   0.0000       1.019657        27.7463 
  16   0.0000       1.056446        28.7474 
  17   0.0000       1.199525        32.6407 
  18   0.0000       1.697566        46.1931 
  19   0.0000       1.698380        46.2153 
  20   0.0000       1.716929        46.7200 
  21   0.0000       1.716930        46.7200 
  22   0.0000       1.741668        47.3932 
  23   0.0000       1.912036        52.0291 
  24   0.0000       1.912036        52.0292 
  25   0.0000       1.921162        52.2775 
  26   0.0000       1.948803        53.0296 
  27   0.0000       1.949152        53.0391 

                    ********************************
                    * MULLIKEN POPULATION ANALYSIS *
                    ********************************

-----------------------
MULLIKEN ATOMIC CHARGES
-----------------------
   0 C :    0.194715
   1 O :   -0.194715
Sum of atomic charges:   -0.0000000

--------------------------------
MULLIKEN REDUCED ORBITAL CHARGES
--------------------------------
  0 C s       :     3.996574  s :     3.996574
      pz      :     0.003936  p :     1.808566
      px      :     1.800688
      py      :     0.003942
      dz2     :     0.000032  d :     0.000146
      dxz     :     0.000009
      dyz     :     0.000000
      dx2y2   :     0.000096
      dxy     :     0.000009
  1 O s       :     3.999975  s :     3.999975
      pz      :     1.996053  p :     4.194310
      px      :     0.202210
      py      :     1.996048
      dz2     :     0.000107  d :     0.000430
      dxz     :     0.000000
      dyz     :     0.000000
      dx2y2   :     0.000322
      dxy     :     0.000000


                     *******************************
                     * LOEWDIN POPULATION ANALYSIS *
                     *******************************

----------------------
LOEWDIN ATOMIC CHARGES
----------------------
   0 C :    0.197368
   1 O :   -0.197368

-------------------------------
LOEWDIN REDUCED ORBITAL CHARGES
-------------------------------
  0 C s       :     3.995197  s :     3.995197
      pz      :     0.003990  p :     1.807286
      px      :     1.799300
      py      :     0.003996
      dz2     :     0.000033  d :     0.000150
      dxz     :     0.000009
      dyz     :     0.000000
      dx2y2   :     0.000098
      dxy     :     0.000009
  1 O s       :     3.998582  s :     3.998582
      pz      :     1.995999  p :     4.198228
      px      :     0.206236
      py      :     1.995994
      dz2     :     0.000139  d :     0.000558
      dxz     :     0.000000
      dyz     :     0.000000
      dx2y2   :     0.000418
      dxy     :     0.000000


                      *****************************
                      * MAYER POPULATION ANALYSIS *
                      *****************************

  NA   - Mulliken gross atomic population
  ZA   - Total nuclear charge
  QA   - Mulliken gross atomic charge
  VA   - Mayer's total valence
  BVA  - Mayer's bonded valence
  FA   - Mayer's free valence

  ATOM       NA         ZA         QA         VA         BVA        FA
  0 C      5.8053     6.0000     0.1947     0.3814     0.3814    -0.0000
  1 O      8.1947     8.0000    -0.1947     0.3814     0.3814    -0.0000

  Mayer bond orders larger than 0.1
B(  0-C ,  1-O ) :   0.3814 

-------
TIMINGS
-------

Total SCF time: 0 days 0 hours 5 min 4 sec 

Total time                  ....     304.901 sec
Sum of individual times     ....     296.973 sec  ( 97.4%)

Fock matrix formation       ....     296.425 sec  ( 97.2%)
  XC integration            ....      44.936 sec  ( 15.2% of F)
    Basis function eval.    ....       9.614 sec  ( 21.4% of XC)
    Density eval.           ....       2.183 sec  (  4.9% of XC)
    XC-Functional eval.     ....      12.124 sec  ( 27.0% of XC)
    XC-Potential eval.      ....       1.260 sec  (  2.8% of XC)
Diagonalization             ....       0.311 sec  (  0.1%)
Density matrix formation    ....       0.010 sec  (  0.0%)
Population analysis         ....       0.008 sec  (  0.0%)
Initial guess               ....       0.103 sec  (  0.0%)
Orbital Transformation      ....       0.000 sec  (  0.0%)
Orbital Orthonormalization  ....       0.000 sec  (  0.0%)
DIIS solution               ....       0.000 sec  (  0.0%)
Grid generation             ....       0.117 sec  (  0.0%)


-------------------------------------------------------------------------------
                          DFT DISPERSION CORRECTION                            
                                                                               
                              DFTD3 V3.1  Rev 1                                
                              USING zero damping                               
-------------------------------------------------------------------------------
The omegaB97X-D3 functional is recognized. Fit by Chai et al.
Active option DFTDOPT                   ...         3   

molecular C6(AA) [au] = 117.457114 


            DFT-D V3
 parameters
 s6 scaling factor         :     1.0000 
 rs6 scaling factor        :     1.2810 
 s8 scaling factor         :     1.0000 
 rs8 scaling factor        :     1.0940 
 Damping factor alpha6     :    14.0000 
 Damping factor alpha8     :    16.0000 
 ad hoc parameters k1-k3   :    16.0000     1.3333    -4.0000 

 Edisp/kcal,au: -0.132610733867  -0.000211328634 
 E6   /kcal   :  -0.019038771 
 E8   /kcal   :  -0.113571963 
 % E8         :  85.643114483 

-------------------------   ----------------
Dispersion correction           -0.000211329
-------------------------   ----------------


-------------------------   --------------------
FINAL SINGLE POINT ENERGY      -112.725488040208
-------------------------   --------------------


                            ***************************************
                            *     ORCA property calculations      *
                            ***************************************

                                    ---------------------
                                    Active property flags
                                    ---------------------
   (+) Dipole Moment


------------------------------------------------------------------------------
                       ORCA ELECTRIC PROPERTIES CALCULATION
------------------------------------------------------------------------------

Dipole Moment Calculation                       ... on
Quadrupole Moment Calculation                   ... off
Polarizability Calculation                      ... off
GBWName                                         ... Scan_25.gbw
Electron density file                           ... Scan_25.scfp.tmp

-------------
DIPOLE MOMENT
-------------
                                X             Y             Z
Electronic contribution:     -1.11690      -0.00005      -0.00005
Nuclear contribution   :      0.01869      -0.00000       0.00000
                        -----------------------------------------
Total Dipole Moment    :     -1.09821      -0.00005      -0.00005
                        -----------------------------------------
Magnitude (a.u.)       :      1.09821
Magnitude (Debye)      :      2.79143


Timings for individual modules:

Sum of individual times         ...      305.217 sec (=   5.087 min)
GTO integral calculation        ...        0.293 sec (=   0.005 min)   0.1 %
SCF iterations                  ...      304.924 sec (=   5.082 min)  99.9 %
                             ****ORCA TERMINATED NORMALLY****
TOTAL RUN TIME: 0 days 0 hours 5 minutes 5 seconds 525 msec
