
                                 *****************
                                 * O   R   C   A *
                                 *****************

           --- An Ab Initio, DFT and Semiempirical electronic structure package ---

                  #######################################################
                  #                        -***-                        #
                  #  Department of molecular theory and spectroscopy    #
                  #              Directorship: Frank Neese              #
                  # Max Planck Institute for Chemical Energy Conversion #
                  #                  D-45470 Muelheim/Ruhr              #
                  #                       Germany                       #
                  #                                                     #
                  #                  All rights reserved                #
                  #                        -***-                        #
                  #######################################################


                         Program Version 4.0.0.2 - RELEASE -


 With contributions from (in alphabetic order):
   Daniel Aravena         : Magnetic Properties
   Michael Atanasov       : Ab Initio Ligand Field Theory
   Ute Becker             : Parallelization
   Martin Brehm           : Molecular dynamics
   Dmytro Bykov           : SCF Hessian
   Vijay G. Chilkuri      : MRCI spin determinant printing
   Dipayan Datta          : RHF DLPNO-CCSD density
   Achintya Kumar Dutta   : EOM-CC, STEOM-CC
   Dmitry Ganyushin       : Spin-Orbit,Spin-Spin,Magnetic field MRCI
   Yang Guo               : DLPNO-NEVPT2, CIM, IAO-localization
   Andreas Hansen         : Spin unrestricted coupled pair/coupled cluster methods
   Lee Huntington         : MR-EOM, pCC
   Robert Izsak           : Overlap fitted RIJCOSX, COSX-SCS-MP3, EOM
   Christian Kollmar      : KDIIS, OOCD, Brueckner-CCSD(T), CCSD density
   Simone Kossmann        : Meta GGA functionals, TD-DFT gradient, OOMP2, MP2 Hessian
   Martin Krupicka        : AUTO-CI
   Dagmar Lenk            : GEPOL surface
   Dimitrios Liakos       : Extrapolation schemes; parallel MDCI
   Dimitrios Manganas     : ROCIS; embedding schemes
   Dimitrios Pantazis     : SARC Basis sets
   Taras Petrenko         : DFT Hessian,TD-DFT gradient, ASA, ECA, R-Raman, ABS, FL, XAS/XES, NRVS
   Peter Pinski           : DLPNO-MP2
   Christoph Reimann      : Effective Core Potentials
   Marius Retegan         : Local ZFS, SOC
   Christoph Riplinger    : Optimizer, TS searches, QM/MM, DLPNO-CCSD(T), (RO)-DLPNO pert. Triples
   Tobias Risthaus        : Range-separated hybrids, TD-DFT gradient, RPA, STAB
   Michael Roemelt        : Restricted open shell CIS
   Masaaki Saitow         : Open-shell DLPNO
   Barbara Sandhoefer     : DKH picture change effects
   Kantharuban Sivalingam : CASSCF convergence, NEVPT2, FIC-MRCI
   Georgi Stoychev        : AutoAux
   Boris Wezisla          : Elementary symmetry handling
   Frank Wennmohs         : Technical directorship


 We gratefully acknowledge several colleagues who have allowed us to
 interface, adapt or use parts of their codes:
   Stefan Grimme, W. Hujo, H. Kruse,             : VdW corrections, initial TS optimization,
                  C. Bannwarth                     DFT functionals, gCP, sTDA/sTD-DF
   Ed Valeev                                     : LibInt (2-el integral package), F12 methods
   Garnet Chan, S. Sharma, J. Yang, R. Olivares  : DMRG
   Ulf Ekstrom                                   : XCFun DFT Library
   Mihaly Kallay                                 : mrcc  (arbitrary order and MRCC methods)
   Jiri Pittner, Ondrej Demel                    : Mk-CCSD
   Frank Weinhold                                : gennbo (NPA and NBO analysis)
   Christopher J. Cramer and Donald G. Truhlar   : smd solvation model


 Your calculation uses the libint2 library for the computation of 2-el integrals
 For citations please refer to: http://libint.valeyev.net

 This ORCA versions uses:
   CBLAS   interface :  Fast vector & matrix operations
   LAPACKE interface :  Fast linear algebra routines
   SCALAPACK package :  Parallel linear algebra routines


Your calculation utilizes the atom-pairwise dispersion correction
with the zero-damping scheme (D30)
Cite in your paper:
S.Grimme, J.Antony, S.Ehrlich and H.Krieg, J.Chem.Phys., 132, (2010), 154104 
   

XCFun DFT library Copyright 2009-2010 Ulf Ekstrom and contributors.
See http://admol.org/xcfun for more information. This is free soft-
ware; see the source code for copying conditions. There is ABSOLUTELY
NO WARRANTY; not even for MERCHANTABILITY or FITNESS FOR A PARTICULAR
PURPOSE. For details see the documentation. Scientific users of this 
library should cite U. Ekstrom, L. Visscher, R. Bast, A. J. Thorvald-
sen and K. Ruud; J.Chem.Theor.Comp. 2010, DOI: 10.1021/ct100117s
XCFun Version 0.99 
Your calculation utilizes the basis: 6-31G(d)
   H-He, Li-Ne : W. J. Hehre, R. Ditchfield and J.A. Pople, J. Chem. Phys. 56, 2257 (1972).
                 Note: He and Ne are unpublished basis sets taken from the Gaussian program.
                 Note: Li and B from J. D. Dill and J. A. Pople, J. Chem. Phys. 62, 2921 (1975).
   Na - Ar     : M. M. Francl, W. J. Pietro, W. J. Hehre, J. S. Binkley, M. S. Gordon, 
                 D. J. DeFrees and J. A. Pople, J. Chem. Phys. 77, 3654 (1982).
   K - Zn      : V. A. Rassolov, J. A. Pople, M. A. Ratner, and T. L. Windus, J. Chem. Phys. 109, 1223 (1998).

================================================================================
                                        WARNINGS
                       Please study these warnings very carefully!
================================================================================

Warning: TCutStore was < 0. Adjusted to Thresh (uncritical)

INFO   : the flag for use of LIBINT has been found!

================================================================================
                                       INPUT FILE
================================================================================
NAME = initial27.inp
|  1> ! WB97X-D3 6-31G(d) VerySlowConv
|  2> ! KDIIS NOSOSCF
|  3> %base "Scan_27"
|  4> 
|  5> %scf
|  6> maxiter 999
|  7> end
|  8> 
|  9> * xyz 0 1
| 10> C         -1.707490477204    1.613610000000    0.000000000000
| 11> O          1.448450477204    1.613610000000    0.000000000000
| 12> **                         ****END OF INPUT****
================================================================================

                       ****************************
                       * Single Point Calculation *
                       ****************************

---------------------------------
CARTESIAN COORDINATES (ANGSTROEM)
---------------------------------
  C     -1.707490    1.613610    0.000000
  O      1.448450    1.613610    0.000000

----------------------------
CARTESIAN COORDINATES (A.U.)
----------------------------
  NO LB      ZA    FRAG     MASS         X           Y           Z
   0 C     6.0000    0    12.011   -3.226689    3.049281    0.000000
   1 O     8.0000    0    15.999    2.737175    3.049281    0.000000

--------------------------------
INTERNAL COORDINATES (ANGSTROEM)
--------------------------------
 C      0   0   0     0.000000000000     0.00000000     0.00000000
 O      1   0   0     3.155940954408     0.00000000     0.00000000

---------------------------
INTERNAL COORDINATES (A.U.)
---------------------------
 C      0   0   0     0.000000000000     0.00000000     0.00000000
 O      1   0   0     5.963864098657     0.00000000     0.00000000

---------------------
BASIS SET INFORMATION
---------------------
There are 2 groups of distinct atoms

 Group   1 Type C   : 10s4p1d contracted to 3s2p1d pattern {631/31/1}
 Group   2 Type O   : 10s4p1d contracted to 3s2p1d pattern {631/31/1}

Atom   0C    basis set group =>   1
Atom   1O    basis set group =>   2
------------------------------------------------------------------------------
                           ORCA GTO INTEGRAL CALCULATION
------------------------------------------------------------------------------

                         BASIS SET STATISTICS AND STARTUP INFO

 # of primitive gaussian shells          ...   30
 # of primitive gaussian functions       ...   54
 # of contracted shells                  ...   12
 # of contracted basis functions         ...   28
 Highest angular momentum                ...    2
 Maximum contraction depth               ...    6
 Integral package used                   ... LIBINT
 Integral threshhold            Thresh   ...  1.000e-10
 Primitive cut-off              TCut     ...  1.000e-11


------------------------------ INTEGRAL EVALUATION ----------------------------


 * One electron integrals 
 Pre-screening matrix                    ... done
 Shell pair data                         ... done (   0.000 sec)

-------------------------------------------------------------------------------
                                 ORCA SCF
-------------------------------------------------------------------------------

------------
SCF SETTINGS
------------
Hamiltonian:
 Density Functional     Method          .... DFT(GTOs)
 Exchange Functional    Exchange        .... WB97X-D3
 Correlation Functional Correlation     .... WB97X-D3
 Gradients option       PostSCFGGA      .... off
 Hybrid DFT is turned on
   Fraction HF Exchange ScalHFX         ....  0.195728
   Scaling of DF-GGA-X  ScalDFX         ....  0.000000
   Scaling of DF-GGA-C  ScalDFC         ....  1.000000
   Scaling of DF-LDA-C  ScalLDAC        ....  1.000000
   Perturbative correction              ....  0.000000
 Long-range corrected/Screened/Range-Separated Hybrid DFT is turned on
   Amount of maximum screened exact exchange              ....  0.804272
   Range separation parameter mu (erf(mu*r12)/r12)        ....  0.250000


General Settings:
 Integral files         IntName         .... Scan_27
 Hartree-Fock type      HFTyp           .... RHF
 Total Charge           Charge          ....    0
 Multiplicity           Mult            ....    1
 Number of Electrons    NEL             ....   14
 Basis Dimension        Dim             ....   28
 Nuclear Repulsion      ENuc            ....      8.0484731385 Eh

Convergence Acceleration:
 DIIS                   CNVDIIS         .... on
   Start iteration      DIISMaxIt       ....     0
   Startup error        DIISStart       ....  0.200000
   # of expansion vecs  DIISMaxEq       ....     5
   Bias factor          DIISBfac        ....   1.050
   Max. coefficient     DIISMaxC        ....  10.000
 Newton-Raphson         CNVNR           .... off
 SOSCF                  CNVSOSCF        .... off
 Level Shifting         CNVShift        .... off
 Zerner damping         CNVZerner       .... off
 Static damping         CNVDamp         .... off
 Fernandez-Rico         CNVRico         .... off

SCF Procedure:
 Maximum # iterations   MaxIter         ....   999
 SCF integral mode      SCFMode         .... Direct
   Integral package                     .... LIBINT
 Reset frequeny         DirectResetFreq ....    20
 Integral Threshold     Thresh          ....  1.000e-10 Eh
 Primitive CutOff       TCut            ....  1.000e-11 Eh

Convergence Tolerance:
 Convergence Check Mode ConvCheckMode   .... All-Criteria
 Convergence forced     ConvForced      .... 0
 Energy Change          TolE            ....  1.000e-06 Eh
 Max Density Change     TolMaxP         ....  1.000e-05
 RMS Density Change     TolRMSP         ....  1.000e-06
 DIIS Error             TolErr          ....  1.000e-06


Diagonalization of the overlap matrix:
Smallest eigenvalue                        ... 1.823e-01
Time for diagonalization                   ...    0.001 sec
Threshold for overlap eigenvalues          ... 1.000e-08
Number of eigenvalues below threshold      ... 0
Time for construction of square roots      ...    0.007 sec
Total time needed                          ...    0.007 sec

-------------------
DFT GRID GENERATION
-------------------

General Integration Accuracy     IntAcc      ...  4.340
Radial Grid Type                 RadialGrid  ... Gauss-Chebyshev
Angular Grid (max. acc.)         AngularGrid ... Lebedev-110
Angular grid pruning method      GridPruning ... 3 (G Style)
Weight generation scheme         WeightScheme... Becke
Basis function cutoff            BFCut       ...    1.0000e-10
Integration weight cutoff        WCut        ...    1.0000e-14
Grids for H and He will be reduced by one unit

# of grid points (after initial pruning)     ...   3372 (   0.0 sec)
# of grid points (after weights+screening)   ...   3358 (   0.0 sec)
nearest neighbour list constructed           ...    0.0 sec
Grid point re-assignment to atoms done       ...    0.0 sec
Grid point division into batches done        ...    0.0 sec
Reduced shell lists constructed in    0.0 sec

Total number of grid points                  ...     3358
Total number of batches                      ...       54
Average number of points per batch           ...       62
Average number of grid points per atom       ...     1679
Average number of shells per batch           ...     9.20 (76.67%)
Average number of basis functions per batch  ...    22.51 (80.39%)
Average number of large shells per batch     ...     7.62 (82.81%)
Average number of large basis fcns per batch ...    18.38 (81.66%)
Maximum spatial batch extension              ...  18.98, 23.60, 31.36 au
Average spatial batch extension              ...   6.29,  7.13,  8.00 au

Time for grid setup =    0.021 sec

------------------------------
INITIAL GUESS: MODEL POTENTIAL
------------------------------
Loading Hartree-Fock densities                     ... done
Calculating cut-offs                               ... done
Setting up the integral package                    ... done
Initializing the effective Hamiltonian             ... done
Starting the Coulomb interaction                   ... done (   0.0 sec)
Reading the grid                                   ... done
Mapping shells                                     ... done
Starting the XC term evaluation                    ... done (   0.0 sec)
  promolecular density results
     # of electrons  =     13.999710121
     EX              =    -12.944072589
     EC              =     -0.403279232
     EX+EC           =    -13.347351822
Transforming the Hamiltonian                       ... done (   0.0 sec)
Diagonalizing the Hamiltonian                      ... done (   0.0 sec)
Back transforming the eigenvectors                 ... done (   0.0 sec)
Now organizing SCF variables                       ... done
                      ------------------
                      INITIAL GUESS DONE (   0.1 sec)
                      ------------------
--------------
SCF ITERATIONS
--------------
ITER       Energy         Delta-E        Max-DP      RMS-DP      [F,P]   Gradient Norm
               ***  Starting incremental Fock matrix formation  ***
                             ****Resetting KDIIS****
                             ****Turning on KDIIS(Cayley)****
  0   -111.3063541200   0.000000000000 0.08428911  0.00745860  0.3618467   0.289075389
  1   -111.4667788131  -0.160424693052 0.15029473  0.01393282  0.2996153   0.242341922
  2   -111.7123143006  -0.245535487499 0.21912461  0.01770019  0.1884951   0.157591681
  3   -111.8947245712  -0.182410270661 0.33207497  0.03310646  0.1995980   0.129431329
  4   -112.2504238374  -0.355699266183 0.29076092  0.02517266  0.1894159   0.142834517
  5   -112.3783782703  -0.127954432872 0.37443496  0.04138574  0.1683596   0.140818394
  6   -112.1367643651   0.241613905142 0.16529179  0.01661984  0.1650520   0.158904515
  7   -112.2223908500  -0.085626484866 0.42012667  0.03709844  0.1421905   0.145018095
  8   -112.4953695647  -0.272978714684 0.28767397  0.02210321  0.1441713   0.162761026
  9   -112.6172046210  -0.121835056316 0.06403322  0.00828592  0.0251585   0.025278076
 10   -112.6140648567   0.003139764318 0.04465613  0.00509587  0.0579648   0.037554282
 11   -112.6244846556  -0.010419798950 0.01569949  0.00165031  0.0115094   0.009442173
 12   -112.6253782264  -0.000893570806 0.01603149  0.00155538  0.0092011   0.003805843
 13   -112.6248936870   0.000484539410 0.01594045  0.00127326  0.0058069   0.002561730
 14   -112.6246146224   0.000279064595 0.03412164  0.00291218  0.0039116   0.001731599
 15   -112.6243107672   0.000303855272 0.00279970  0.00025300  0.0022620   0.001834343
 16   -112.6243470250  -0.000036257858 0.00298704  0.00023268  0.0006052   0.000455167
 17   -112.6243698027  -0.000022777641 0.05033991  0.00387238  0.0006103   0.000437119
 18   -112.6246434401  -0.000273637386 0.02774130  0.00210828  0.0014346   0.001153605
 19   -112.6247167697  -0.000073329614 0.00510733  0.00040974  0.0013144   0.001050085
               *** Restarting incremental Fock matrix formation ***
                             ****Resetting KDIIS****
 20   -112.6247259965  -0.000009226845 0.00042715  0.00004572  0.0010497   0.000848002
 21   -112.6247299400  -0.000003943449 0.00009404  0.00000777  0.0002563   0.000169247
                          ***Energy convergence achieved***
 22   -112.6247301080  -0.000000168031 0.00040174  0.00003072  0.0002290   0.000147196
 23   -112.6247306611  -0.000000553138 0.00465896  0.00035179  0.0001585   0.000096458
 24   -112.6247352531  -0.000004592015 0.01003387  0.00075917  0.0000905   0.000061606
 25   -112.6247397091  -0.000004455981 0.00025576  0.00002054  0.0001153   0.000072897
                          ***Energy convergence achieved***
 26   -112.6247397650  -0.000000055908 0.00028328  0.00003005  0.0000661   0.000031338
 27   -112.6247397025   0.000000062516 0.00102198  0.00008165  0.0000214   0.000014306

            ***Energy convergence in two consecutive cycles with***
                    ***'reasonable' density convergence***
                       *** signaling convergence ***

                    *** KDIIS BlockDiag ( 0.000 sec) ***

               *****************************************************
               *                     SUCCESS                       *
               *           SCF CONVERGED AFTER  28 CYCLES          *
               *****************************************************

Setting up the final grid:

General Integration Accuracy     IntAcc      ...  4.670
Radial Grid Type                 RadialGrid  ... Gauss-Chebyshev
Angular Grid (max. acc.)         AngularGrid ... Lebedev-302
Angular grid pruning method      GridPruning ... 3 (G Style)
Weight generation scheme         WeightScheme... Becke
Basis function cutoff            BFCut       ...    1.0000e-10
Integration weight cutoff        WCut        ...    1.0000e-14
Grids for H and He will be reduced by one unit

# of grid points (after initial pruning)     ...  12424 (   0.0 sec)
# of grid points (after weights+screening)   ...  12408 (   0.0 sec)
nearest neighbour list constructed           ...    0.0 sec
Grid point re-assignment to atoms done       ...    0.0 sec
Grid point division into batches done        ...    0.1 sec
Reduced shell lists constructed in    0.1 sec

Total number of grid points                  ...    12408
Total number of batches                      ...      195
Average number of points per batch           ...       63
Average number of grid points per atom       ...     6204
Average number of shells per batch           ...     7.98 (66.54%)
Average number of basis functions per batch  ...    19.52 (69.70%)
Average number of large shells per batch     ...     6.60 (82.62%)
Average number of large basis fcns per batch ...    15.65 (80.18%)
Maximum spatial batch extension              ...  17.06, 20.64, 19.94 au
Average spatial batch extension              ...   4.11,  4.44,  4.39 au

Final grid set up in    0.1 sec
Final integration                            ... done (   0.1 sec)
Change in XC energy                          ...    -0.000839508
Integrated number of electrons               ...    13.999980144
Previous integrated no of electrons          ...    14.000360383

----------------
TOTAL SCF ENERGY
----------------

Total Energy       :         -112.62557922 Eh           -3064.69782 eV

Components:
Nuclear Repulsion  :            8.04847314 Eh             219.01009 eV
Electronic Energy  :         -120.67405236 Eh           -3283.70791 eV
One Electron Energy:         -169.82962958 Eh           -4621.29916 eV
Two Electron Energy:           49.15557722 Eh            1337.59126 eV

Virial components:
Potential Energy   :         -224.41684375 Eh           -6106.69278 eV
Kinetic Energy     :          111.79126453 Eh            3041.99496 eV
Virial Ratio       :            2.00746315


DFT components:
N(Alpha)           :        6.999990071810 electrons
N(Beta)            :        6.999990071810 electrons
N(Total)           :       13.999980143619 electrons
E(XC)              :       -9.420209859184 Eh       

---------------
SCF CONVERGENCE
---------------

  Last Energy change         ...   -8.5459e-09  Tolerance :   1.0000e-06
  Last MAX-Density change    ...    5.7883e-05  Tolerance :   1.0000e-05
  Last RMS-Density change    ...    5.0320e-06  Tolerance :   1.0000e-06
  Last DIIS Error            ...    2.4275e-05  Tolerance :   1.0000e-06

             **** THE GBW FILE WAS UPDATED (Scan_27.gbw) ****
             **** DENSITY FILE WAS UPDATED (Scan_27.scfp.tmp) ****
             **** ENERGY FILE WAS UPDATED (Scan_27.en.tmp) ****
----------------
ORBITAL ENERGIES
----------------

  NO   OCC          E(Eh)            E(eV) 
   0   2.0000     -19.286935      -524.8242 
   1   2.0000     -10.576190      -287.7928 
   2   2.0000      -0.956077       -26.0162 
   3   2.0000      -0.742356       -20.2005 
   4   2.0000      -0.347191        -9.4475 
   5   2.0000      -0.326177        -8.8757 
   6   2.0000      -0.326177        -8.8757 
   7   0.0000      -0.161889        -4.4052 
   8   0.0000      -0.161889        -4.4052 
   9   0.0000      -0.137192        -3.7332 
  10   0.0000       0.564274        15.3547 
  11   0.0000       0.564855        15.3705 
  12   0.0000       0.564855        15.3705 
  13   0.0000       0.608683        16.5631 
  14   0.0000       1.024916        27.8894 
  15   0.0000       1.024916        27.8894 
  16   0.0000       1.068155        29.0660 
  17   0.0000       1.170679        31.8558 
  18   0.0000       1.666723        45.3538 
  19   0.0000       1.666790        45.3557 
  20   0.0000       1.667146        45.3654 
  21   0.0000       1.667146        45.3654 
  22   0.0000       1.669459        45.4283 
  23   0.0000       1.937922        52.7335 
  24   0.0000       1.938065        52.7374 
  25   0.0000       1.942496        52.8580 
  26   0.0000       1.942496        52.8580 
  27   0.0000       1.948390        53.0184 

                    ********************************
                    * MULLIKEN POPULATION ANALYSIS *
                    ********************************

-----------------------
MULLIKEN ATOMIC CHARGES
-----------------------
   0 C :    0.295944
   1 O :   -0.295944
Sum of atomic charges:   -0.0000000

--------------------------------
MULLIKEN REDUCED ORBITAL CHARGES
--------------------------------
  0 C s       :     3.999853  s :     3.999853
      pz      :     0.625634  p :     1.704051
      px      :     0.452783
      py      :     0.625634
      dz2     :     0.000028  d :     0.000152
      dxz     :     0.000020
      dyz     :     0.000000
      dx2y2   :     0.000085
      dxy     :     0.000020
  1 O s       :     3.999046  s :     3.999046
      pz      :     1.374313  p :     4.296710
      px      :     1.548084
      py      :     1.374313
      dz2     :     0.000030  d :     0.000188
      dxz     :     0.000034
      dyz     :     0.000000
      dx2y2   :     0.000091
      dxy     :     0.000034


                     *******************************
                     * LOEWDIN POPULATION ANALYSIS *
                     *******************************

----------------------
LOEWDIN ATOMIC CHARGES
----------------------
   0 C :    0.294561
   1 O :   -0.294561

-------------------------------
LOEWDIN REDUCED ORBITAL CHARGES
-------------------------------
  0 C s       :     3.998938  s :     3.998938
      pz      :     0.625772  p :     1.706351
      px      :     0.454807
      py      :     0.625772
      dz2     :     0.000028  d :     0.000151
      dxz     :     0.000019
      dyz     :     0.000000
      dx2y2   :     0.000084
      dxy     :     0.000019
  1 O s       :     3.998230  s :     3.998230
      pz      :     1.374176  p :     4.296130
      px      :     1.547778
      py      :     1.374176
      dz2     :     0.000034  d :     0.000201
      dxz     :     0.000033
      dyz     :     0.000000
      dx2y2   :     0.000102
      dxy     :     0.000033


                      *****************************
                      * MAYER POPULATION ANALYSIS *
                      *****************************

  NA   - Mulliken gross atomic population
  ZA   - Total nuclear charge
  QA   - Mulliken gross atomic charge
  VA   - Mayer's total valence
  BVA  - Mayer's bonded valence
  FA   - Mayer's free valence

  ATOM       NA         ZA         QA         VA         BVA        FA
  0 C      5.7041     6.0000     0.2959     2.4208     2.4208    -0.0000
  1 O      8.2959     8.0000    -0.2959     2.4208     2.4208     0.0000

  Mayer bond orders larger than 0.1
B(  0-C ,  1-O ) :   2.4208 

-------
TIMINGS
-------

Total SCF time: 0 days 0 hours 0 min 8 sec 

Total time                  ....       8.232 sec
Sum of individual times     ....       7.933 sec  ( 96.4%)

Fock matrix formation       ....       7.671 sec  ( 93.2%)
  XC integration            ....       1.364 sec  ( 17.8% of F)
    Basis function eval.    ....       0.292 sec  ( 21.4% of XC)
    Density eval.           ....       0.060 sec  (  4.4% of XC)
    XC-Functional eval.     ....       0.376 sec  ( 27.5% of XC)
    XC-Potential eval.      ....       0.035 sec  (  2.6% of XC)
Diagonalization             ....       0.012 sec  (  0.1%)
Density matrix formation    ....       0.000 sec  (  0.0%)
Population analysis         ....       0.013 sec  (  0.2%)
Initial guess               ....       0.110 sec  (  1.3%)
Orbital Transformation      ....       0.000 sec  (  0.0%)
Orbital Orthonormalization  ....       0.000 sec  (  0.0%)
DIIS solution               ....       0.000 sec  (  0.0%)
Grid generation             ....       0.126 sec  (  1.5%)


-------------------------------------------------------------------------------
                          DFT DISPERSION CORRECTION                            
                                                                               
                              DFTD3 V3.1  Rev 1                                
                              USING zero damping                               
-------------------------------------------------------------------------------
The omegaB97X-D3 functional is recognized. Fit by Chai et al.
Active option DFTDOPT                   ...         3   

molecular C6(AA) [au] = 117.460301 


            DFT-D V3
 parameters
 s6 scaling factor         :     1.0000 
 rs6 scaling factor        :     1.2810 
 s8 scaling factor         :     1.0000 
 rs8 scaling factor        :     1.0940 
 Damping factor alpha6     :    14.0000 
 Damping factor alpha8     :    16.0000 
 ad hoc parameters k1-k3   :    16.0000     1.3333    -4.0000 

 Edisp/kcal,au: -0.160513618740  -0.000255794706 
 E6   /kcal   :  -0.031267268 
 E8   /kcal   :  -0.129246350 
 % E8         :  80.520488756 

-------------------------   ----------------
Dispersion correction           -0.000255795
-------------------------   ----------------


-------------------------   --------------------
FINAL SINGLE POINT ENERGY      -112.625835013466
-------------------------   --------------------


                            ***************************************
                            *     ORCA property calculations      *
                            ***************************************

                                    ---------------------
                                    Active property flags
                                    ---------------------
   (+) Dipole Moment


------------------------------------------------------------------------------
                       ORCA ELECTRIC PROPERTIES CALCULATION
------------------------------------------------------------------------------

Dipole Moment Calculation                       ... on
Quadrupole Moment Calculation                   ... off
Polarizability Calculation                      ... off
GBWName                                         ... Scan_27.gbw
Electron density file                           ... Scan_27.scfp.tmp

-------------
DIPOLE MOMENT
-------------
                                X             Y             Z
Electronic contribution:     -1.77055       0.00000      -0.00000
Nuclear contribution   :      0.02001      -0.00000       0.00000
                        -----------------------------------------
Total Dipole Moment    :     -1.75053       0.00000      -0.00000
                        -----------------------------------------
Magnitude (a.u.)       :      1.75053
Magnitude (Debye)      :      4.44950


Timings for individual modules:

Sum of individual times         ...        8.596 sec (=   0.143 min)
GTO integral calculation        ...        0.340 sec (=   0.006 min)   4.0 %
SCF iterations                  ...        8.256 sec (=   0.138 min)  96.0 %
                             ****ORCA TERMINATED NORMALLY****
TOTAL RUN TIME: 0 days 0 hours 0 minutes 8 seconds 981 msec
