
                                 *****************
                                 * O   R   C   A *
                                 *****************

           --- An Ab Initio, DFT and Semiempirical electronic structure package ---

                  #######################################################
                  #                        -***-                        #
                  #  Department of molecular theory and spectroscopy    #
                  #              Directorship: Frank Neese              #
                  # Max Planck Institute for Chemical Energy Conversion #
                  #                  D-45470 Muelheim/Ruhr              #
                  #                       Germany                       #
                  #                                                     #
                  #                  All rights reserved                #
                  #                        -***-                        #
                  #######################################################


                         Program Version 4.0.0.2 - RELEASE -


 With contributions from (in alphabetic order):
   Daniel Aravena         : Magnetic Properties
   Michael Atanasov       : Ab Initio Ligand Field Theory
   Ute Becker             : Parallelization
   Martin Brehm           : Molecular dynamics
   Dmytro Bykov           : SCF Hessian
   Vijay G. Chilkuri      : MRCI spin determinant printing
   Dipayan Datta          : RHF DLPNO-CCSD density
   Achintya Kumar Dutta   : EOM-CC, STEOM-CC
   Dmitry Ganyushin       : Spin-Orbit,Spin-Spin,Magnetic field MRCI
   Yang Guo               : DLPNO-NEVPT2, CIM, IAO-localization
   Andreas Hansen         : Spin unrestricted coupled pair/coupled cluster methods
   Lee Huntington         : MR-EOM, pCC
   Robert Izsak           : Overlap fitted RIJCOSX, COSX-SCS-MP3, EOM
   Christian Kollmar      : KDIIS, OOCD, Brueckner-CCSD(T), CCSD density
   Simone Kossmann        : Meta GGA functionals, TD-DFT gradient, OOMP2, MP2 Hessian
   Martin Krupicka        : AUTO-CI
   Dagmar Lenk            : GEPOL surface
   Dimitrios Liakos       : Extrapolation schemes; parallel MDCI
   Dimitrios Manganas     : ROCIS; embedding schemes
   Dimitrios Pantazis     : SARC Basis sets
   Taras Petrenko         : DFT Hessian,TD-DFT gradient, ASA, ECA, R-Raman, ABS, FL, XAS/XES, NRVS
   Peter Pinski           : DLPNO-MP2
   Christoph Reimann      : Effective Core Potentials
   Marius Retegan         : Local ZFS, SOC
   Christoph Riplinger    : Optimizer, TS searches, QM/MM, DLPNO-CCSD(T), (RO)-DLPNO pert. Triples
   Tobias Risthaus        : Range-separated hybrids, TD-DFT gradient, RPA, STAB
   Michael Roemelt        : Restricted open shell CIS
   Masaaki Saitow         : Open-shell DLPNO
   Barbara Sandhoefer     : DKH picture change effects
   Kantharuban Sivalingam : CASSCF convergence, NEVPT2, FIC-MRCI
   Georgi Stoychev        : AutoAux
   Boris Wezisla          : Elementary symmetry handling
   Frank Wennmohs         : Technical directorship


 We gratefully acknowledge several colleagues who have allowed us to
 interface, adapt or use parts of their codes:
   Stefan Grimme, W. Hujo, H. Kruse,             : VdW corrections, initial TS optimization,
                  C. Bannwarth                     DFT functionals, gCP, sTDA/sTD-DF
   Ed Valeev                                     : LibInt (2-el integral package), F12 methods
   Garnet Chan, S. Sharma, J. Yang, R. Olivares  : DMRG
   Ulf Ekstrom                                   : XCFun DFT Library
   Mihaly Kallay                                 : mrcc  (arbitrary order and MRCC methods)
   Jiri Pittner, Ondrej Demel                    : Mk-CCSD
   Frank Weinhold                                : gennbo (NPA and NBO analysis)
   Christopher J. Cramer and Donald G. Truhlar   : smd solvation model


 Your calculation uses the libint2 library for the computation of 2-el integrals
 For citations please refer to: http://libint.valeyev.net

 This ORCA versions uses:
   CBLAS   interface :  Fast vector & matrix operations
   LAPACKE interface :  Fast linear algebra routines
   SCALAPACK package :  Parallel linear algebra routines


Your calculation utilizes the atom-pairwise dispersion correction
with the zero-damping scheme (D30)
Cite in your paper:
S.Grimme, J.Antony, S.Ehrlich and H.Krieg, J.Chem.Phys., 132, (2010), 154104 
   

XCFun DFT library Copyright 2009-2010 Ulf Ekstrom and contributors.
See http://admol.org/xcfun for more information. This is free soft-
ware; see the source code for copying conditions. There is ABSOLUTELY
NO WARRANTY; not even for MERCHANTABILITY or FITNESS FOR A PARTICULAR
PURPOSE. For details see the documentation. Scientific users of this 
library should cite U. Ekstrom, L. Visscher, R. Bast, A. J. Thorvald-
sen and K. Ruud; J.Chem.Theor.Comp. 2010, DOI: 10.1021/ct100117s
XCFun Version 0.99 
Your calculation utilizes the basis: 6-31G(d)
   H-He, Li-Ne : W. J. Hehre, R. Ditchfield and J.A. Pople, J. Chem. Phys. 56, 2257 (1972).
                 Note: He and Ne are unpublished basis sets taken from the Gaussian program.
                 Note: Li and B from J. D. Dill and J. A. Pople, J. Chem. Phys. 62, 2921 (1975).
   Na - Ar     : M. M. Francl, W. J. Pietro, W. J. Hehre, J. S. Binkley, M. S. Gordon, 
                 D. J. DeFrees and J. A. Pople, J. Chem. Phys. 77, 3654 (1982).
   K - Zn      : V. A. Rassolov, J. A. Pople, M. A. Ratner, and T. L. Windus, J. Chem. Phys. 109, 1223 (1998).

================================================================================
                                        WARNINGS
                       Please study these warnings very carefully!
================================================================================

Warning: TCutStore was < 0. Adjusted to Thresh (uncritical)

INFO   : the flag for use of LIBINT has been found!

================================================================================
                                       INPUT FILE
================================================================================
NAME = initial31.inp
|  1> ! WB97X-D3 6-31G(d) VerySlowConv
|  2> ! KDIIS NOSOSCF
|  3> %base "Scan_31"
|  4> 
|  5> %scf
|  6> maxiter 999
|  7> end
|  8> 
|  9> * xyz 0 1
| 10> C         -1.913345943611    1.613610000000    0.000000000000
| 11> O          1.654305943611    1.613610000000    0.000000000000
| 12> **                         ****END OF INPUT****
================================================================================

                       ****************************
                       * Single Point Calculation *
                       ****************************

---------------------------------
CARTESIAN COORDINATES (ANGSTROEM)
---------------------------------
  C     -1.913346    1.613610    0.000000
  O      1.654306    1.613610    0.000000

----------------------------
CARTESIAN COORDINATES (A.U.)
----------------------------
  NO LB      ZA    FRAG     MASS         X           Y           Z
   0 C     6.0000    0    12.011   -3.615700    3.049281    0.000000
   1 O     8.0000    0    15.999    3.126185    3.049281    0.000000

--------------------------------
INTERNAL COORDINATES (ANGSTROEM)
--------------------------------
 C      0   0   0     0.000000000000     0.00000000     0.00000000
 O      1   0   0     3.567651887222     0.00000000     0.00000000

---------------------------
INTERNAL COORDINATES (A.U.)
---------------------------
 C      0   0   0     0.000000000000     0.00000000     0.00000000
 O      1   0   0     6.741885008017     0.00000000     0.00000000

---------------------
BASIS SET INFORMATION
---------------------
There are 2 groups of distinct atoms

 Group   1 Type C   : 10s4p1d contracted to 3s2p1d pattern {631/31/1}
 Group   2 Type O   : 10s4p1d contracted to 3s2p1d pattern {631/31/1}

Atom   0C    basis set group =>   1
Atom   1O    basis set group =>   2
------------------------------------------------------------------------------
                           ORCA GTO INTEGRAL CALCULATION
------------------------------------------------------------------------------

                         BASIS SET STATISTICS AND STARTUP INFO

 # of primitive gaussian shells          ...   30
 # of primitive gaussian functions       ...   54
 # of contracted shells                  ...   12
 # of contracted basis functions         ...   28
 Highest angular momentum                ...    2
 Maximum contraction depth               ...    6
 Integral package used                   ... LIBINT
 Integral threshhold            Thresh   ...  1.000e-10
 Primitive cut-off              TCut     ...  1.000e-11


------------------------------ INTEGRAL EVALUATION ----------------------------


 * One electron integrals 
 Pre-screening matrix                    ... done
 Shell pair data                         ... done (   0.000 sec)

-------------------------------------------------------------------------------
                                 ORCA SCF
-------------------------------------------------------------------------------

------------
SCF SETTINGS
------------
Hamiltonian:
 Density Functional     Method          .... DFT(GTOs)
 Exchange Functional    Exchange        .... WB97X-D3
 Correlation Functional Correlation     .... WB97X-D3
 Gradients option       PostSCFGGA      .... off
 Hybrid DFT is turned on
   Fraction HF Exchange ScalHFX         ....  0.195728
   Scaling of DF-GGA-X  ScalDFX         ....  0.000000
   Scaling of DF-GGA-C  ScalDFC         ....  1.000000
   Scaling of DF-LDA-C  ScalLDAC        ....  1.000000
   Perturbative correction              ....  0.000000
 Long-range corrected/Screened/Range-Separated Hybrid DFT is turned on
   Amount of maximum screened exact exchange              ....  0.804272
   Range separation parameter mu (erf(mu*r12)/r12)        ....  0.250000


General Settings:
 Integral files         IntName         .... Scan_31
 Hartree-Fock type      HFTyp           .... RHF
 Total Charge           Charge          ....    0
 Multiplicity           Mult            ....    1
 Number of Electrons    NEL             ....   14
 Basis Dimension        Dim             ....   28
 Nuclear Repulsion      ENuc            ....      7.1196705288 Eh

Convergence Acceleration:
 DIIS                   CNVDIIS         .... on
   Start iteration      DIISMaxIt       ....     0
   Startup error        DIISStart       ....  0.200000
   # of expansion vecs  DIISMaxEq       ....     5
   Bias factor          DIISBfac        ....   1.050
   Max. coefficient     DIISMaxC        ....  10.000
 Newton-Raphson         CNVNR           .... off
 SOSCF                  CNVSOSCF        .... off
 Level Shifting         CNVShift        .... off
 Zerner damping         CNVZerner       .... off
 Static damping         CNVDamp         .... off
 Fernandez-Rico         CNVRico         .... off

SCF Procedure:
 Maximum # iterations   MaxIter         ....   999
 SCF integral mode      SCFMode         .... Direct
   Integral package                     .... LIBINT
 Reset frequeny         DirectResetFreq ....    20
 Integral Threshold     Thresh          ....  1.000e-10 Eh
 Primitive CutOff       TCut            ....  1.000e-11 Eh

Convergence Tolerance:
 Convergence Check Mode ConvCheckMode   .... All-Criteria
 Convergence forced     ConvForced      .... 0
 Energy Change          TolE            ....  1.000e-06 Eh
 Max Density Change     TolMaxP         ....  1.000e-05
 RMS Density Change     TolRMSP         ....  1.000e-06
 DIIS Error             TolErr          ....  1.000e-06


Diagonalization of the overlap matrix:
Smallest eigenvalue                        ... 1.862e-01
Time for diagonalization                   ...    0.001 sec
Threshold for overlap eigenvalues          ... 1.000e-08
Number of eigenvalues below threshold      ... 0
Time for construction of square roots      ...    0.004 sec
Total time needed                          ...    0.005 sec

-------------------
DFT GRID GENERATION
-------------------

General Integration Accuracy     IntAcc      ...  4.340
Radial Grid Type                 RadialGrid  ... Gauss-Chebyshev
Angular Grid (max. acc.)         AngularGrid ... Lebedev-110
Angular grid pruning method      GridPruning ... 3 (G Style)
Weight generation scheme         WeightScheme... Becke
Basis function cutoff            BFCut       ...    1.0000e-10
Integration weight cutoff        WCut        ...    1.0000e-14
Grids for H and He will be reduced by one unit

# of grid points (after initial pruning)     ...   3372 (   0.0 sec)
# of grid points (after weights+screening)   ...   3360 (   0.0 sec)
nearest neighbour list constructed           ...    0.0 sec
Grid point re-assignment to atoms done       ...    0.0 sec
Grid point division into batches done        ...    0.0 sec
Reduced shell lists constructed in    0.0 sec

Total number of grid points                  ...     3360
Total number of batches                      ...       54
Average number of points per batch           ...       62
Average number of grid points per atom       ...     1680
Average number of shells per batch           ...     8.75 (72.88%)
Average number of basis functions per batch  ...    20.96 (74.87%)
Average number of large shells per batch     ...     7.25 (82.95%)
Average number of large basis fcns per batch ...    17.40 (83.00%)
Maximum spatial batch extension              ...  19.76, 27.48, 31.36 au
Average spatial batch extension              ...   6.04,  7.24,  8.00 au

Time for grid setup =    0.020 sec

------------------------------
INITIAL GUESS: MODEL POTENTIAL
------------------------------
Loading Hartree-Fock densities                     ... done
Calculating cut-offs                               ... done
Setting up the integral package                    ... done
Initializing the effective Hamiltonian             ... done
Starting the Coulomb interaction                   ... done (   0.0 sec)
Reading the grid                                   ... done
Mapping shells                                     ... done
Starting the XC term evaluation                    ... done (   0.0 sec)
  promolecular density results
     # of electrons  =     13.999622538
     EX              =    -12.943528051
     EC              =     -0.402873990
     EX+EC           =    -13.346402041
Transforming the Hamiltonian                       ... done (   0.0 sec)
Diagonalizing the Hamiltonian                      ... done (   0.0 sec)
Back transforming the eigenvectors                 ... done (   0.0 sec)
Now organizing SCF variables                       ... done
                      ------------------
                      INITIAL GUESS DONE (   0.1 sec)
                      ------------------
--------------
SCF ITERATIONS
--------------
ITER       Energy         Delta-E        Max-DP      RMS-DP      [F,P]   Gradient Norm
               ***  Starting incremental Fock matrix formation  ***
                             ****Resetting KDIIS****
                             ****Turning on KDIIS(Cayley)****
  0   -111.1985791913   0.000000000000 0.07245185  0.00699016  0.3672437   0.287535773
  1   -111.3417862060  -0.143207014710 0.17316096  0.01466395  0.3108181   0.244066093
  2   -111.5850566204  -0.243270414399 0.23830539  0.01980346  0.1735098   0.153010710
  3   -111.7869064450  -0.201849824642 0.26164995  0.02148101  0.1665710   0.094644771
  4   -112.0577807542  -0.270874309120 0.06201659  0.00651267  0.2256522   0.140153900
  5   -112.0050104829   0.052770271282 0.25540207  0.02950889  0.2188401   0.135836350
  6   -112.3097261300  -0.304715647108 0.48001573  0.04457727  0.2183908   0.127887171
  7   -111.9751122670   0.334613863028 0.39867975  0.02974150  0.1493032   0.150499032
  8   -112.3951695588  -0.420057291882 0.33993394  0.04051030  0.1460781   0.104759891
  9   -112.1240169483   0.271152610551 0.23483167  0.01896492  0.4248917   0.313821417
 10   -112.3226170193  -0.198600070986 0.07881296  0.00999219  0.2892780   0.196005358
 11   -112.5168343687  -0.194217349452 0.02344002  0.00220166  0.1413733   0.095382122
 12   -112.4932320536   0.023602315127 0.18544528  0.02254822  0.1699698   0.115111454
 13   -112.5218120121  -0.028579958545 0.09047717  0.00807990  0.1400860   0.080890900
 14   -112.5809352338  -0.059123221642 0.00413829  0.00042375  0.0440201   0.022190795
 15   -112.5804988771   0.000436356681 0.03109043  0.00335585  0.0445497   0.022622034
 16   -112.5852943510  -0.004795473859 0.01231175  0.00138305  0.0098949   0.005314237
 17   -112.5843634359   0.000930915029 0.08574487  0.00659776  0.0268058   0.012723432
 18   -112.5833812765   0.000982159452 0.16884918  0.01390618  0.0222994   0.010760313
 19   -112.5765468620   0.006834414453 0.01325067  0.00129926  0.0458915   0.033338547
               *** Restarting incremental Fock matrix formation ***
                             ****Resetting KDIIS****
 20   -112.5754010291   0.001145832905 0.01741104  0.00193819  0.0491756   0.036015578
 21   -112.5820710867  -0.006670057578 0.00100849  0.00012974  0.0071037   0.004601812
 22   -112.5821303617  -0.000059275004 0.00132943  0.00015199  0.0061156   0.003914468
 23   -112.5821882251  -0.000057863415 0.01502114  0.00118783  0.0047201   0.003022825
Warning: badly conditioned DIIS matrix, 1 vectors out of 5 destroyed
 24   -112.5821217146   0.000066510482 0.00258451  0.00026842  0.0008217   0.000676320
 25   -112.5821364470  -0.000014732325 0.00754599  0.00068459  0.0007890   0.000470348
 26   -112.5822003565  -0.000063909483 0.04411041  0.00388822  0.0007625   0.000452899
 27   -112.5824997537  -0.000299397244 0.01255026  0.00109370  0.0027432   0.002112083
 28   -112.5825713586  -0.000071604882 0.00578732  0.00050643  0.0034746   0.002509098
 29   -112.5825625799   0.000008778663 0.14405532  0.01154788  0.0014639   0.001037502
 30   -112.5800220711   0.002540508768 0.18365247  0.01496388  0.0321730   0.024040034
 31   -112.5822569146  -0.002234843473 0.01647193  0.00145189  0.0033110   0.002463206
 32   -112.5823850125  -0.000128097863 0.00894941  0.00077141  0.0029528   0.002221688
Warning: badly conditioned DIIS matrix, 1 vectors out of 5 destroyed
Warning: badly conditioned DIIS matrix, 1 vectors out of 4 destroyed
 33   -112.5824498009  -0.000064788391 0.06721747  0.00553631  0.0027002   0.002029321
 34   -112.5828110107  -0.000361209779 0.08394185  0.00707677  0.0013433   0.000938973
 35   -112.5821721190   0.000638891668 0.12566983  0.01247663  0.0082675   0.005868054
 36   -112.5801291793   0.002042939660 0.29550178  0.02570487  0.0165781   0.012550813
 37   -112.5813918769  -0.001262697572 0.13454845  0.01075931  0.0235600   0.017585703
 38   -112.5825710266  -0.001179149694 0.01894131  0.00157644  0.0021930   0.001664195
Warning: badly conditioned DIIS matrix, 1 vectors out of 5 destroyed
Warning: badly conditioned DIIS matrix, 1 vectors out of 4 destroyed
 39   -112.5826863295  -0.000115302913 0.01910603  0.00159041  0.0005018   0.000448828
               *** Restarting incremental Fock matrix formation ***
                             ****Resetting KDIIS****
 40   -112.5825694131   0.000116916414 0.00077454  0.00009009  0.0022427   0.001696908
 41   -112.5825851800  -0.000015766890 0.00036555  0.00003151  0.0005607   0.000413143
 42   -112.5825874961  -0.000002316093 0.00240901  0.00020019  0.0005588   0.000383080
 43   -112.5826014636  -0.000013967569 0.00585979  0.00048591  0.0005503   0.000314928
 44   -112.5826341301  -0.000032666459 0.00003321  0.00000319  0.0005266   0.000342313
                          ***Energy convergence achieved***
 45   -112.5826343312  -0.000000201125 0.04970015  0.00401458  0.0005266   0.000342399
 46   -112.5828410646  -0.000206733415 0.00199768  0.00022696  0.0018277   0.001385122
                          ***Energy convergence achieved***
 47   -112.5828408339   0.000000230757 0.12193825  0.00945090  0.0010013   0.000707544
Warning: badly conditioned DIIS matrix, 1 vectors out of 5 destroyed
 48   -112.5819435451   0.000897288775 0.10439433  0.00809309  0.0191399   0.014282209
 49   -112.5828948703  -0.000951325218 0.01913328  0.00149011  0.0012931   0.000963389
 50   -112.5829479825  -0.000053112125 0.01737354  0.00133759  0.0002433   0.000152513
 51   -112.5829811402  -0.000033157749 0.00519833  0.00043523  0.0001621   0.000141542
 52   -112.5829525360   0.000028604207 0.01028635  0.00080392  0.0025712   0.001914006
 53   -112.5829883730  -0.000035836981 0.04802826  0.00365877  0.0004144   0.000328771
 54   -112.5830070863  -0.000018713274 0.03446010  0.00263638  0.0021727   0.001586956
 55   -112.5829945792   0.000012507062 0.00102908  0.00009544  0.0018932   0.001423168
 56   -112.5830007119  -0.000006132667 0.00870995  0.00066627  0.0010962   0.000830818
 57   -112.5829889189   0.000011792919 0.01481854  0.00113225  0.0013235   0.001002578
 58   -112.5830088473  -0.000019928344 0.01103701  0.00083333  0.0006332   0.000468878
 59   -112.5830169027  -0.000008055415 0.02202164  0.00167553  0.0002621   0.000202355
               *** Restarting incremental Fock matrix formation ***
                             ****Resetting KDIIS****
 60   -112.5830139381   0.000002964580 0.00045915  0.00005335  0.0013706   0.000990726
 61   -112.5830192275  -0.000005289428 0.00006035  0.00000567  0.0002869   0.000158775
                          ***Energy convergence achieved***
 62   -112.5830193211  -0.000000093522 0.00006573  0.00000641  0.0002581   0.000137170
 63   -112.5830193803  -0.000000059282 0.00058221  0.00006273  0.0002203   0.000117097
Warning: badly conditioned DIIS matrix, 1 vectors out of 5 destroyed
 64   -112.5830191539   0.000000226417 0.00012016  0.00000866  0.0000388   0.000023768
 65   -112.5830191869  -0.000000032937 0.00022763  0.00001767  0.0000407   0.000018500

            ***Energy convergence in two consecutive cycles with***
                    ***'reasonable' density convergence***
                       *** signaling convergence ***

                    *** KDIIS BlockDiag ( 0.000 sec) ***

               *****************************************************
               *                     SUCCESS                       *
               *           SCF CONVERGED AFTER  66 CYCLES          *
               *****************************************************

Setting up the final grid:

General Integration Accuracy     IntAcc      ...  4.670
Radial Grid Type                 RadialGrid  ... Gauss-Chebyshev
Angular Grid (max. acc.)         AngularGrid ... Lebedev-302
Angular grid pruning method      GridPruning ... 3 (G Style)
Weight generation scheme         WeightScheme... Becke
Basis function cutoff            BFCut       ...    1.0000e-10
Integration weight cutoff        WCut        ...    1.0000e-14
Grids for H and He will be reduced by one unit

# of grid points (after initial pruning)     ...  12424 (   0.0 sec)
# of grid points (after weights+screening)   ...  12410 (   0.0 sec)
nearest neighbour list constructed           ...    0.0 sec
Grid point re-assignment to atoms done       ...    0.0 sec
Grid point division into batches done        ...    0.0 sec
Reduced shell lists constructed in    0.1 sec

Total number of grid points                  ...    12410
Total number of batches                      ...      194
Average number of points per batch           ...       63
Average number of grid points per atom       ...     6205
Average number of shells per batch           ...     7.55 (62.95%)
Average number of basis functions per batch  ...    17.99 (64.27%)
Average number of large shells per batch     ...     6.28 (83.10%)
Average number of large basis fcns per batch ...    14.90 (82.82%)
Maximum spatial batch extension              ...  17.81, 20.64, 18.61 au
Average spatial batch extension              ...   4.21,  4.49,  4.32 au

Final grid set up in    0.1 sec
Final integration                            ... done (   0.1 sec)
Change in XC energy                          ...    -0.000729618
Integrated number of electrons               ...    14.000016559
Previous integrated no of electrons          ...    14.000457449

----------------
TOTAL SCF ENERGY
----------------

Total Energy       :         -112.58374874 Eh           -3063.55955 eV

Components:
Nuclear Repulsion  :            7.11967053 Eh             193.73608 eV
Electronic Energy  :         -119.70341927 Eh           -3257.29564 eV
One Electron Energy:         -168.01881874 Eh           -4572.02450 eV
Two Electron Energy:           48.31539947 Eh            1314.72886 eV

Virial components:
Potential Energy   :         -224.44319747 Eh           -6107.40990 eV
Kinetic Energy     :          111.85944873 Eh            3043.85035 eV
Virial Ratio       :            2.00647509


DFT components:
N(Alpha)           :        7.000008279391 electrons
N(Beta)            :        7.000008279391 electrons
N(Total)           :       14.000016558781 electrons
E(XC)              :       -9.426915974250 Eh       

---------------
SCF CONVERGENCE
---------------

  Last Energy change         ...    6.4218e-08  Tolerance :   1.0000e-06
  Last MAX-Density change    ...    6.8947e-05  Tolerance :   1.0000e-05
  Last RMS-Density change    ...    5.0144e-06  Tolerance :   1.0000e-06
  Last DIIS Error            ...    3.1918e-05  Tolerance :   1.0000e-06

             **** THE GBW FILE WAS UPDATED (Scan_31.gbw) ****
             **** DENSITY FILE WAS UPDATED (Scan_31.scfp.tmp) ****
             **** ENERGY FILE WAS UPDATED (Scan_31.en.tmp) ****
----------------
ORBITAL ENERGIES
----------------

  NO   OCC          E(Eh)            E(eV) 
   0   2.0000     -19.274370      -524.4823 
   1   2.0000     -10.573713      -287.7253 
   2   2.0000      -0.946759       -25.7626 
   3   2.0000      -0.745390       -20.2831 
   4   2.0000      -0.326030        -8.8717 
   5   2.0000      -0.313835        -8.5399 
   6   2.0000      -0.313831        -8.5398 
   7   0.0000      -0.168505        -4.5853 
   8   0.0000      -0.168502        -4.5852 
   9   0.0000      -0.154510        -4.2044 
  10   0.0000       0.559882        15.2352 
  11   0.0000       0.562437        15.3047 
  12   0.0000       0.562438        15.3047 
  13   0.0000       0.609286        16.5795 
  14   0.0000       1.031888        28.0791 
  15   0.0000       1.031889        28.0791 
  16   0.0000       1.052717        28.6459 
  17   0.0000       1.143504        31.1163 
  18   0.0000       1.663288        45.2604 
  19   0.0000       1.663299        45.2607 
  20   0.0000       1.663708        45.2718 
  21   0.0000       1.663812        45.2746 
  22   0.0000       1.663814        45.2747 
  23   0.0000       1.947371        52.9907 
  24   0.0000       1.947391        52.9912 
  25   0.0000       1.948604        53.0242 
  26   0.0000       1.948754        53.0283 
  27   0.0000       1.948757        53.0284 

                    ********************************
                    * MULLIKEN POPULATION ANALYSIS *
                    ********************************

-----------------------
MULLIKEN ATOMIC CHARGES
-----------------------
   0 C :    0.299374
   1 O :   -0.299374
Sum of atomic charges:   -0.0000000

--------------------------------
MULLIKEN REDUCED ORBITAL CHARGES
--------------------------------
  0 C s       :     3.999633  s :     3.999633
      pz      :     0.588192  p :     1.700941
      px      :     0.524599
      py      :     0.588150
      dz2     :     0.000008  d :     0.000052
      dxz     :     0.000011
      dyz     :     0.000000
      dx2y2   :     0.000023
      dxy     :     0.000011
  1 O s       :     3.999738  s :     3.999738
      pz      :     1.411784  p :     4.299545
      px      :     1.475940
      py      :     1.411821
      dz2     :     0.000015  d :     0.000092
      dxz     :     0.000016
      dyz     :     0.000000
      dx2y2   :     0.000045
      dxy     :     0.000016


                     *******************************
                     * LOEWDIN POPULATION ANALYSIS *
                     *******************************

----------------------
LOEWDIN ATOMIC CHARGES
----------------------
   0 C :    0.299118
   1 O :   -0.299118

-------------------------------
LOEWDIN REDUCED ORBITAL CHARGES
-------------------------------
  0 C s       :     3.999389  s :     3.999389
      pz      :     0.588235  p :     1.701441
      px      :     0.525013
      py      :     0.588193
      dz2     :     0.000007  d :     0.000051
      dxz     :     0.000011
      dyz     :     0.000000
      dx2y2   :     0.000022
      dxy     :     0.000011
  1 O s       :     3.999606  s :     3.999606
      pz      :     1.411741  p :     4.299422
      px      :     1.475902
      py      :     1.411778
      dz2     :     0.000015  d :     0.000091
      dxz     :     0.000016
      dyz     :     0.000000
      dx2y2   :     0.000045
      dxy     :     0.000016


                      *****************************
                      * MAYER POPULATION ANALYSIS *
                      *****************************

  NA   - Mulliken gross atomic population
  ZA   - Total nuclear charge
  QA   - Mulliken gross atomic charge
  VA   - Mayer's total valence
  BVA  - Mayer's bonded valence
  FA   - Mayer's free valence

  ATOM       NA         ZA         QA         VA         BVA        FA
  0 C      5.7006     6.0000     0.2994     2.4348     2.4348     0.0000
  1 O      8.2994     8.0000    -0.2994     2.4348     2.4348    -0.0000

  Mayer bond orders larger than 0.1
B(  0-C ,  1-O ) :   2.4348 

-------
TIMINGS
-------

Total SCF time: 0 days 0 hours 0 min 17 sec 

Total time                  ....      17.683 sec
Sum of individual times     ....      17.041 sec  ( 96.4%)

Fock matrix formation       ....      16.785 sec  ( 94.9%)
  XC integration            ....       2.778 sec  ( 16.6% of F)
    Basis function eval.    ....       0.534 sec  ( 19.2% of XC)
    Density eval.           ....       0.120 sec  (  4.3% of XC)
    XC-Functional eval.     ....       0.710 sec  ( 25.5% of XC)
    XC-Potential eval.      ....       0.059 sec  (  2.1% of XC)
Diagonalization             ....       0.022 sec  (  0.1%)
Density matrix formation    ....       0.001 sec  (  0.0%)
Population analysis         ....       0.010 sec  (  0.1%)
Initial guess               ....       0.105 sec  (  0.6%)
Orbital Transformation      ....       0.000 sec  (  0.0%)
Orbital Orthonormalization  ....       0.000 sec  (  0.0%)
DIIS solution               ....       0.000 sec  (  0.0%)
Grid generation             ....       0.119 sec  (  0.7%)


-------------------------------------------------------------------------------
                          DFT DISPERSION CORRECTION                            
                                                                               
                              DFTD3 V3.1  Rev 1                                
                              USING zero damping                               
-------------------------------------------------------------------------------
The omegaB97X-D3 functional is recognized. Fit by Chai et al.
Active option DFTDOPT                   ...         3   

molecular C6(AA) [au] = 117.462519 


            DFT-D V3
 parameters
 s6 scaling factor         :     1.0000 
 rs6 scaling factor        :     1.2810 
 s8 scaling factor         :     1.0000 
 rs8 scaling factor        :     1.0940 
 Damping factor alpha6     :    14.0000 
 Damping factor alpha8     :    16.0000 
 ad hoc parameters k1-k3   :    16.0000     1.3333    -4.0000 

 Edisp/kcal,au: -0.143297527943  -0.000228359122 
 E6   /kcal   :  -0.060160398 
 E8   /kcal   :  -0.083137129 
 % E8         :  58.017141455 

-------------------------   ----------------
Dispersion correction           -0.000228359
-------------------------   ----------------


-------------------------   --------------------
FINAL SINGLE POINT ENERGY      -112.583977100102
-------------------------   --------------------


                            ***************************************
                            *     ORCA property calculations      *
                            ***************************************

                                    ---------------------
                                    Active property flags
                                    ---------------------
   (+) Dipole Moment


------------------------------------------------------------------------------
                       ORCA ELECTRIC PROPERTIES CALCULATION
------------------------------------------------------------------------------

Dipole Moment Calculation                       ... on
Quadrupole Moment Calculation                   ... off
Polarizability Calculation                      ... off
GBWName                                         ... Scan_31.gbw
Electron density file                           ... Scan_31.scfp.tmp

-------------
DIPOLE MOMENT
-------------
                                X             Y             Z
Electronic contribution:     -2.01290      -0.00000      -0.00000
Nuclear contribution   :      0.02263      -0.00000       0.00000
                        -----------------------------------------
Total Dipole Moment    :     -1.99028      -0.00000      -0.00000
                        -----------------------------------------
Magnitude (a.u.)       :      1.99028
Magnitude (Debye)      :      5.05888


Timings for individual modules:

Sum of individual times         ...       18.013 sec (=   0.300 min)
GTO integral calculation        ...        0.306 sec (=   0.005 min)   1.7 %
SCF iterations                  ...       17.706 sec (=   0.295 min)  98.3 %
                             ****ORCA TERMINATED NORMALLY****
TOTAL RUN TIME: 0 days 0 hours 0 minutes 18 seconds 331 msec
