
                                 *****************
                                 * O   R   C   A *
                                 *****************

           --- An Ab Initio, DFT and Semiempirical electronic structure package ---

                  #######################################################
                  #                        -***-                        #
                  #  Department of molecular theory and spectroscopy    #
                  #              Directorship: Frank Neese              #
                  # Max Planck Institute for Chemical Energy Conversion #
                  #                  D-45470 Muelheim/Ruhr              #
                  #                       Germany                       #
                  #                                                     #
                  #                  All rights reserved                #
                  #                        -***-                        #
                  #######################################################


                         Program Version 4.0.0.2 - RELEASE -


 With contributions from (in alphabetic order):
   Daniel Aravena         : Magnetic Properties
   Michael Atanasov       : Ab Initio Ligand Field Theory
   Ute Becker             : Parallelization
   Martin Brehm           : Molecular dynamics
   Dmytro Bykov           : SCF Hessian
   Vijay G. Chilkuri      : MRCI spin determinant printing
   Dipayan Datta          : RHF DLPNO-CCSD density
   Achintya Kumar Dutta   : EOM-CC, STEOM-CC
   Dmitry Ganyushin       : Spin-Orbit,Spin-Spin,Magnetic field MRCI
   Yang Guo               : DLPNO-NEVPT2, CIM, IAO-localization
   Andreas Hansen         : Spin unrestricted coupled pair/coupled cluster methods
   Lee Huntington         : MR-EOM, pCC
   Robert Izsak           : Overlap fitted RIJCOSX, COSX-SCS-MP3, EOM
   Christian Kollmar      : KDIIS, OOCD, Brueckner-CCSD(T), CCSD density
   Simone Kossmann        : Meta GGA functionals, TD-DFT gradient, OOMP2, MP2 Hessian
   Martin Krupicka        : AUTO-CI
   Dagmar Lenk            : GEPOL surface
   Dimitrios Liakos       : Extrapolation schemes; parallel MDCI
   Dimitrios Manganas     : ROCIS; embedding schemes
   Dimitrios Pantazis     : SARC Basis sets
   Taras Petrenko         : DFT Hessian,TD-DFT gradient, ASA, ECA, R-Raman, ABS, FL, XAS/XES, NRVS
   Peter Pinski           : DLPNO-MP2
   Christoph Reimann      : Effective Core Potentials
   Marius Retegan         : Local ZFS, SOC
   Christoph Riplinger    : Optimizer, TS searches, QM/MM, DLPNO-CCSD(T), (RO)-DLPNO pert. Triples
   Tobias Risthaus        : Range-separated hybrids, TD-DFT gradient, RPA, STAB
   Michael Roemelt        : Restricted open shell CIS
   Masaaki Saitow         : Open-shell DLPNO
   Barbara Sandhoefer     : DKH picture change effects
   Kantharuban Sivalingam : CASSCF convergence, NEVPT2, FIC-MRCI
   Georgi Stoychev        : AutoAux
   Boris Wezisla          : Elementary symmetry handling
   Frank Wennmohs         : Technical directorship


 We gratefully acknowledge several colleagues who have allowed us to
 interface, adapt or use parts of their codes:
   Stefan Grimme, W. Hujo, H. Kruse,             : VdW corrections, initial TS optimization,
                  C. Bannwarth                     DFT functionals, gCP, sTDA/sTD-DF
   Ed Valeev                                     : LibInt (2-el integral package), F12 methods
   Garnet Chan, S. Sharma, J. Yang, R. Olivares  : DMRG
   Ulf Ekstrom                                   : XCFun DFT Library
   Mihaly Kallay                                 : mrcc  (arbitrary order and MRCC methods)
   Jiri Pittner, Ondrej Demel                    : Mk-CCSD
   Frank Weinhold                                : gennbo (NPA and NBO analysis)
   Christopher J. Cramer and Donald G. Truhlar   : smd solvation model


 Your calculation uses the libint2 library for the computation of 2-el integrals
 For citations please refer to: http://libint.valeyev.net

 This ORCA versions uses:
   CBLAS   interface :  Fast vector & matrix operations
   LAPACKE interface :  Fast linear algebra routines
   SCALAPACK package :  Parallel linear algebra routines


Your calculation utilizes the atom-pairwise dispersion correction
with the zero-damping scheme (D30)
Cite in your paper:
S.Grimme, J.Antony, S.Ehrlich and H.Krieg, J.Chem.Phys., 132, (2010), 154104 
   

XCFun DFT library Copyright 2009-2010 Ulf Ekstrom and contributors.
See http://admol.org/xcfun for more information. This is free soft-
ware; see the source code for copying conditions. There is ABSOLUTELY
NO WARRANTY; not even for MERCHANTABILITY or FITNESS FOR A PARTICULAR
PURPOSE. For details see the documentation. Scientific users of this 
library should cite U. Ekstrom, L. Visscher, R. Bast, A. J. Thorvald-
sen and K. Ruud; J.Chem.Theor.Comp. 2010, DOI: 10.1021/ct100117s
XCFun Version 0.99 
Your calculation utilizes the basis: 6-31G(d)
   H-He, Li-Ne : W. J. Hehre, R. Ditchfield and J.A. Pople, J. Chem. Phys. 56, 2257 (1972).
                 Note: He and Ne are unpublished basis sets taken from the Gaussian program.
                 Note: Li and B from J. D. Dill and J. A. Pople, J. Chem. Phys. 62, 2921 (1975).
   Na - Ar     : M. M. Francl, W. J. Pietro, W. J. Hehre, J. S. Binkley, M. S. Gordon, 
                 D. J. DeFrees and J. A. Pople, J. Chem. Phys. 77, 3654 (1982).
   K - Zn      : V. A. Rassolov, J. A. Pople, M. A. Ratner, and T. L. Windus, J. Chem. Phys. 109, 1223 (1998).

================================================================================
                                        WARNINGS
                       Please study these warnings very carefully!
================================================================================

Warning: TCutStore was < 0. Adjusted to Thresh (uncritical)

INFO   : the flag for use of LIBINT has been found!

================================================================================
                                       INPUT FILE
================================================================================
NAME = initial35.inp
|  1> ! WB97X-D3 6-31G(d) VerySlowConv
|  2> ! KDIIS NOSOSCF
|  3> %base "Scan_35"
|  4> 
|  5> %scf
|  6> maxiter 999
|  7> end
|  8> 
|  9> * xyz 0 1
| 10> C         -2.118052255765    1.613610000000   -0.000000000000
| 11> O          1.859012255765    1.613610000000    0.000000000000
| 12> **                         ****END OF INPUT****
================================================================================

                       ****************************
                       * Single Point Calculation *
                       ****************************

---------------------------------
CARTESIAN COORDINATES (ANGSTROEM)
---------------------------------
  C     -2.118052    1.613610   -0.000000
  O      1.859012    1.613610    0.000000

----------------------------
CARTESIAN COORDINATES (A.U.)
----------------------------
  NO LB      ZA    FRAG     MASS         X           Y           Z
   0 C     6.0000    0    12.011   -4.002539    3.049281   -0.000000
   1 O     8.0000    0    15.999    3.513024    3.049281    0.000000

--------------------------------
INTERNAL COORDINATES (ANGSTROEM)
--------------------------------
 C      0   0   0     0.000000000000     0.00000000     0.00000000
 O      1   0   0     3.977064511530     0.00000000     0.00000000

---------------------------
INTERNAL COORDINATES (A.U.)
---------------------------
 C      0   0   0     0.000000000000     0.00000000     0.00000000
 O      1   0   0     7.515562743729     0.00000000     0.00000000

---------------------
BASIS SET INFORMATION
---------------------
There are 2 groups of distinct atoms

 Group   1 Type C   : 10s4p1d contracted to 3s2p1d pattern {631/31/1}
 Group   2 Type O   : 10s4p1d contracted to 3s2p1d pattern {631/31/1}

Atom   0C    basis set group =>   1
Atom   1O    basis set group =>   2
------------------------------------------------------------------------------
                           ORCA GTO INTEGRAL CALCULATION
------------------------------------------------------------------------------

                         BASIS SET STATISTICS AND STARTUP INFO

 # of primitive gaussian shells          ...   30
 # of primitive gaussian functions       ...   54
 # of contracted shells                  ...   12
 # of contracted basis functions         ...   28
 Highest angular momentum                ...    2
 Maximum contraction depth               ...    6
 Integral package used                   ... LIBINT
 Integral threshhold            Thresh   ...  1.000e-10
 Primitive cut-off              TCut     ...  1.000e-11


------------------------------ INTEGRAL EVALUATION ----------------------------


 * One electron integrals 
 Pre-screening matrix                    ... done
 Shell pair data                         ... done (   0.000 sec)

-------------------------------------------------------------------------------
                                 ORCA SCF
-------------------------------------------------------------------------------

------------
SCF SETTINGS
------------
Hamiltonian:
 Density Functional     Method          .... DFT(GTOs)
 Exchange Functional    Exchange        .... WB97X-D3
 Correlation Functional Correlation     .... WB97X-D3
 Gradients option       PostSCFGGA      .... off
 Hybrid DFT is turned on
   Fraction HF Exchange ScalHFX         ....  0.195728
   Scaling of DF-GGA-X  ScalDFX         ....  0.000000
   Scaling of DF-GGA-C  ScalDFC         ....  1.000000
   Scaling of DF-LDA-C  ScalLDAC        ....  1.000000
   Perturbative correction              ....  0.000000
 Long-range corrected/Screened/Range-Separated Hybrid DFT is turned on
   Amount of maximum screened exact exchange              ....  0.804272
   Range separation parameter mu (erf(mu*r12)/r12)        ....  0.250000


General Settings:
 Integral files         IntName         .... Scan_35
 Hartree-Fock type      HFTyp           .... RHF
 Total Charge           Charge          ....    0
 Multiplicity           Mult            ....    1
 Number of Electrons    NEL             ....   14
 Basis Dimension        Dim             ....   28
 Nuclear Repulsion      ENuc            ....      6.3867472918 Eh

Convergence Acceleration:
 DIIS                   CNVDIIS         .... on
   Start iteration      DIISMaxIt       ....     0
   Startup error        DIISStart       ....  0.200000
   # of expansion vecs  DIISMaxEq       ....     5
   Bias factor          DIISBfac        ....   1.050
   Max. coefficient     DIISMaxC        ....  10.000
 Newton-Raphson         CNVNR           .... off
 SOSCF                  CNVSOSCF        .... off
 Level Shifting         CNVShift        .... off
 Zerner damping         CNVZerner       .... off
 Static damping         CNVDamp         .... off
 Fernandez-Rico         CNVRico         .... off

SCF Procedure:
 Maximum # iterations   MaxIter         ....   999
 SCF integral mode      SCFMode         .... Direct
   Integral package                     .... LIBINT
 Reset frequeny         DirectResetFreq ....    20
 Integral Threshold     Thresh          ....  1.000e-10 Eh
 Primitive CutOff       TCut            ....  1.000e-11 Eh

Convergence Tolerance:
 Convergence Check Mode ConvCheckMode   .... All-Criteria
 Convergence forced     ConvForced      .... 0
 Energy Change          TolE            ....  1.000e-06 Eh
 Max Density Change     TolMaxP         ....  1.000e-05
 RMS Density Change     TolRMSP         ....  1.000e-06
 DIIS Error             TolErr          ....  1.000e-06


Diagonalization of the overlap matrix:
Smallest eigenvalue                        ... 1.868e-01
Time for diagonalization                   ...    0.001 sec
Threshold for overlap eigenvalues          ... 1.000e-08
Number of eigenvalues below threshold      ... 0
Time for construction of square roots      ...    0.007 sec
Total time needed                          ...    0.008 sec

-------------------
DFT GRID GENERATION
-------------------

General Integration Accuracy     IntAcc      ...  4.340
Radial Grid Type                 RadialGrid  ... Gauss-Chebyshev
Angular Grid (max. acc.)         AngularGrid ... Lebedev-110
Angular grid pruning method      GridPruning ... 3 (G Style)
Weight generation scheme         WeightScheme... Becke
Basis function cutoff            BFCut       ...    1.0000e-10
Integration weight cutoff        WCut        ...    1.0000e-14
Grids for H and He will be reduced by one unit

# of grid points (after initial pruning)     ...   3372 (   0.0 sec)
# of grid points (after weights+screening)   ...   3361 (   0.0 sec)
nearest neighbour list constructed           ...    0.0 sec
Grid point re-assignment to atoms done       ...    0.0 sec
Grid point division into batches done        ...    0.0 sec
Reduced shell lists constructed in    0.0 sec

Total number of grid points                  ...     3361
Total number of batches                      ...       54
Average number of points per batch           ...       62
Average number of grid points per atom       ...     1680
Average number of shells per batch           ...     8.31 (69.24%)
Average number of basis functions per batch  ...    19.33 (69.03%)
Average number of large shells per batch     ...     6.75 (81.18%)
Average number of large basis fcns per batch ...    16.13 (83.44%)
Maximum spatial batch extension              ...  19.08, 27.48, 31.36 au
Average spatial batch extension              ...   6.09,  7.31,  8.14 au

Time for grid setup =    0.020 sec

------------------------------
INITIAL GUESS: MODEL POTENTIAL
------------------------------
Loading Hartree-Fock densities                     ... done
Calculating cut-offs                               ... done
Setting up the integral package                    ... done
Initializing the effective Hamiltonian             ... done
Starting the Coulomb interaction                   ... done (   0.0 sec)
Reading the grid                                   ... done
Mapping shells                                     ... done
Starting the XC term evaluation                    ... done (   0.0 sec)
  promolecular density results
     # of electrons  =     13.999872503
     EX              =    -12.943416275
     EC              =     -0.402770600
     EX+EC           =    -13.346186875
Transforming the Hamiltonian                       ... done (   0.0 sec)
Diagonalizing the Hamiltonian                      ... done (   0.0 sec)
Back transforming the eigenvectors                 ... done (   0.0 sec)
Now organizing SCF variables                       ... done
                      ------------------
                      INITIAL GUESS DONE (   0.1 sec)
                      ------------------
--------------
SCF ITERATIONS
--------------
ITER       Energy         Delta-E        Max-DP      RMS-DP      [F,P]   Gradient Norm
               ***  Starting incremental Fock matrix formation  ***
                             ****Resetting KDIIS****
                             ****Turning on KDIIS(Cayley)****
  0   -111.1269357261   0.000000000000 0.06240960  0.00638347  0.3717165   0.286842827
  1   -111.2565134332  -0.129577707098 0.14528784  0.01341159  0.3189871   0.246205200
  2   -111.4750606105  -0.218547177328 0.21984329  0.01671689  0.1970131   0.161061176
  3   -111.6256017903  -0.150541179796 0.43124911  0.02872523  0.1577782   0.119552087
  4   -111.7291612366  -0.103559446284 0.17333991  0.01778208  0.1711040   0.080791906
  5   -111.8432336633  -0.114072426633 0.09855898  0.00898209  0.2947863   0.117227870
  6   -111.8348398393   0.008393823973 0.01187878  0.00146757  0.2619753   0.102616750
  7   -111.8389346359  -0.004094796578 0.11991850  0.01313975  0.2666296   0.104435882
  8   -111.9961191311  -0.157184495268 0.07289153  0.00830473  0.2927386   0.118940139
  9   -111.9229952143   0.073123916806 0.20775417  0.01895185  0.2730412   0.107602219
 10   -112.0979912817  -0.174996067389 0.14197935  0.01571515  0.3001802   0.123530470
 11   -112.2209022261  -0.122910944347 0.31819661  0.01934767  0.3323834   0.127441073
 12   -112.4523697116  -0.231467485510 0.12847261  0.01174268  0.2118694   0.097183336
 13   -112.5747084390  -0.122338727452 0.18240518  0.01752704  0.1231677   0.069994615
 14   -112.6692574897  -0.094549050646 0.09841701  0.01122386  0.0548807   0.041330212
 15   -112.6400703549   0.029187134803 0.13104767  0.01419347  0.0860550   0.043809300
 16   -112.6871521322  -0.047081777350 0.14068977  0.01268277  0.0318056   0.016683188
 17   -112.6345459716   0.052606160612 0.04647796  0.00466250  0.0757400   0.062243267
 18   -112.6418502910  -0.007304319381 0.18102594  0.01630104  0.0769594   0.056136618
 19   -112.7007486797  -0.058898388698 0.01311707  0.00140044  0.0050018   0.004294706
               *** Restarting incremental Fock matrix formation ***
                             ****Resetting KDIIS****
 20   -112.7012078378  -0.000459158134 0.00030596  0.00003436  0.0013752   0.001094199
 21   -112.7012149263  -0.000007088476 0.00093991  0.00010424  0.0012853   0.001014159
 22   -112.7012328765  -0.000017950238 0.00188097  0.00018245  0.0010316   0.000849281
 23   -112.7012561926  -0.000023316106 0.00572352  0.00040790  0.0006081   0.000540095
 24   -112.7012743265  -0.000018133862 0.00027045  0.00001658  0.0000528   0.000041719
                          ***Energy convergence achieved***
 25   -112.7012743584  -0.000000031884 0.00002734  0.00000183  0.0000091   0.000007230
                           ***RMSP convergence achieved***
                           ***MAXP convergence achieved***
                    *** KDIIS BlockDiag ( 0.000 sec) ***

               *****************************************************
               *                     SUCCESS                       *
               *           SCF CONVERGED AFTER  26 CYCLES          *
               *****************************************************

Setting up the final grid:

General Integration Accuracy     IntAcc      ...  4.670
Radial Grid Type                 RadialGrid  ... Gauss-Chebyshev
Angular Grid (max. acc.)         AngularGrid ... Lebedev-302
Angular grid pruning method      GridPruning ... 3 (G Style)
Weight generation scheme         WeightScheme... Becke
Basis function cutoff            BFCut       ...    1.0000e-10
Integration weight cutoff        WCut        ...    1.0000e-14
Grids for H and He will be reduced by one unit

# of grid points (after initial pruning)     ...  12424 (   0.0 sec)
# of grid points (after weights+screening)   ...  12411 (   0.0 sec)
nearest neighbour list constructed           ...    0.0 sec
Grid point re-assignment to atoms done       ...    0.0 sec
Grid point division into batches done        ...    0.1 sec
Reduced shell lists constructed in    0.1 sec

Total number of grid points                  ...    12411
Total number of batches                      ...      195
Average number of points per batch           ...       63
Average number of grid points per atom       ...     6206
Average number of shells per batch           ...     7.06 (58.84%)
Average number of basis functions per batch  ...    16.71 (59.69%)
Average number of large shells per batch     ...     5.89 (83.45%)
Average number of large basis fcns per batch ...    14.01 (83.79%)
Maximum spatial batch extension              ...  17.78, 20.64, 18.61 au
Average spatial batch extension              ...   4.28,  4.45,  4.34 au

Final grid set up in    0.1 sec
Final integration                            ... done (   0.1 sec)
Change in XC energy                          ...     0.000342756
Integrated number of electrons               ...    14.000040107
Previous integrated no of electrons          ...    13.999683839

----------------
TOTAL SCF ENERGY
----------------

Total Energy       :         -112.70093160 Eh           -3066.74826 eV

Components:
Nuclear Repulsion  :            6.38674729 Eh             173.79223 eV
Electronic Energy  :         -119.08767889 Eh           -3240.54049 eV
One Electron Energy:         -166.37485020 Eh           -4527.28984 eV
Two Electron Energy:           47.28717131 Eh            1286.74935 eV

Virial components:
Potential Energy   :         -224.74936226 Eh           -6115.74107 eV
Kinetic Energy     :          112.04843066 Eh            3048.99281 eV
Virial Ratio       :            2.00582338


DFT components:
N(Alpha)           :        7.000020053743 electrons
N(Beta)            :        7.000020053743 electrons
N(Total)           :       14.000040107486 electrons
E(XC)              :       -9.520603499072 Eh       

---------------
SCF CONVERGENCE
---------------

  Last Energy change         ...   -5.6839e-10  Tolerance :   1.0000e-06
  Last MAX-Density change    ...    1.5884e-06  Tolerance :   1.0000e-05
  Last RMS-Density change    ...    1.5707e-07  Tolerance :   1.0000e-06
  Last DIIS Error            ...    1.4440e-06  Tolerance :   1.0000e-06

             **** THE GBW FILE WAS UPDATED (Scan_35.gbw) ****
             **** DENSITY FILE WAS UPDATED (Scan_35.scfp.tmp) ****
             **** ENERGY FILE WAS UPDATED (Scan_35.en.tmp) ****
----------------
ORBITAL ENERGIES
----------------

  NO   OCC          E(Eh)            E(eV) 
   0   2.0000     -19.365600      -526.9648 
   1   2.0000     -10.450296      -284.3670 
   2   2.0000      -1.023222       -27.8433 
   3   2.0000      -0.653689       -17.7878 
   4   2.0000      -0.430268       -11.7082 
   5   2.0000      -0.430268       -11.7082 
   6   2.0000      -0.307468        -8.3666 
   7   0.0000      -0.143572        -3.9068 
   8   0.0000      -0.048474        -1.3190 
   9   0.0000      -0.048474        -1.3190 
  10   0.0000       0.628314        17.0973 
  11   0.0000       0.638573        17.3765 
  12   0.0000       0.638573        17.3765 
  13   0.0000       0.682891        18.5824 
  14   0.0000       0.975423        26.5426 
  15   0.0000       0.975423        26.5426 
  16   0.0000       0.982050        26.7229 
  17   0.0000       1.077176        29.3114 
  18   0.0000       1.743606        47.4459 
  19   0.0000       1.744404        47.4676 
  20   0.0000       1.763551        47.9887 
  21   0.0000       1.763551        47.9887 
  22   0.0000       1.783201        48.5234 
  23   0.0000       1.853336        50.4318 
  24   0.0000       1.856894        50.5287 
  25   0.0000       1.856894        50.5287 
  26   0.0000       1.899510        51.6883 
  27   0.0000       1.899528        51.6888 

                    ********************************
                    * MULLIKEN POPULATION ANALYSIS *
                    ********************************

-----------------------
MULLIKEN ATOMIC CHARGES
-----------------------
   0 C :    0.053087
   1 O :   -0.053087
Sum of atomic charges:   -0.0000000

--------------------------------
MULLIKEN REDUCED ORBITAL CHARGES
--------------------------------
  0 C s       :     3.999670  s :     3.999670
      pz      :     0.000014  p :     1.947139
      px      :     1.947110
      py      :     0.000014
      dz2     :     0.000026  d :     0.000104
      dxz     :     0.000000
      dyz     :     0.000000
      dx2y2   :     0.000078
      dxy     :     0.000000
  1 O s       :     3.999831  s :     3.999831
      pz      :     1.999986  p :     4.053016
      px      :     0.053044
      py      :     1.999986
      dz2     :     0.000060  d :     0.000241
      dxz     :     0.000000
      dyz     :     0.000000
      dx2y2   :     0.000180
      dxy     :     0.000000


                     *******************************
                     * LOEWDIN POPULATION ANALYSIS *
                     *******************************

----------------------
LOEWDIN ATOMIC CHARGES
----------------------
   0 C :    0.053064
   1 O :   -0.053064

-------------------------------
LOEWDIN REDUCED ORBITAL CHARGES
-------------------------------
  0 C s       :     3.999658  s :     3.999658
      pz      :     0.000014  p :     1.947174
      px      :     1.947147
      py      :     0.000014
      dz2     :     0.000026  d :     0.000104
      dxz     :     0.000000
      dyz     :     0.000000
      dx2y2   :     0.000078
      dxy     :     0.000000
  1 O s       :     3.999806  s :     3.999806
      pz      :     1.999986  p :     4.053017
      px      :     0.053045
      py      :     1.999986
      dz2     :     0.000060  d :     0.000241
      dxz     :     0.000000
      dyz     :     0.000000
      dx2y2   :     0.000180
      dxy     :     0.000000


                      *****************************
                      * MAYER POPULATION ANALYSIS *
                      *****************************

  NA   - Mulliken gross atomic population
  ZA   - Total nuclear charge
  QA   - Mulliken gross atomic charge
  VA   - Mayer's total valence
  BVA  - Mayer's bonded valence
  FA   - Mayer's free valence

  ATOM       NA         ZA         QA         VA         BVA        FA
  0 C      5.9469     6.0000     0.0531     0.1035     0.1035    -0.0000
  1 O      8.0531     8.0000    -0.0531     0.1035     0.1035     0.0000

  Mayer bond orders larger than 0.1
B(  0-C ,  1-O ) :   0.1035 

-------
TIMINGS
-------

Total SCF time: 0 days 0 hours 0 min 7 sec 

Total time                  ....       7.756 sec
Sum of individual times     ....       7.408 sec  ( 95.5%)

Fock matrix formation       ....       7.158 sec  ( 92.3%)
  XC integration            ....       1.293 sec  ( 18.1% of F)
    Basis function eval.    ....       0.216 sec  ( 16.7% of XC)
    Density eval.           ....       0.050 sec  (  3.9% of XC)
    XC-Functional eval.     ....       0.312 sec  ( 24.1% of XC)
    XC-Potential eval.      ....       0.025 sec  (  2.0% of XC)
Diagonalization             ....       0.010 sec  (  0.1%)
Density matrix formation    ....       0.000 sec  (  0.0%)
Population analysis         ....       0.013 sec  (  0.2%)
Initial guess               ....       0.108 sec  (  1.4%)
Orbital Transformation      ....       0.000 sec  (  0.0%)
Orbital Orthonormalization  ....       0.000 sec  (  0.0%)
DIIS solution               ....       0.000 sec  (  0.0%)
Grid generation             ....       0.120 sec  (  1.5%)


-------------------------------------------------------------------------------
                          DFT DISPERSION CORRECTION                            
                                                                               
                              DFTD3 V3.1  Rev 1                                
                              USING zero damping                               
-------------------------------------------------------------------------------
The omegaB97X-D3 functional is recognized. Fit by Chai et al.
Active option DFTDOPT                   ...         3   

molecular C6(AA) [au] = 117.463174 


            DFT-D V3
 parameters
 s6 scaling factor         :     1.0000 
 rs6 scaling factor        :     1.2810 
 s8 scaling factor         :     1.0000 
 rs8 scaling factor        :     1.0940 
 Damping factor alpha6     :    14.0000 
 Damping factor alpha8     :    16.0000 
 ad hoc parameters k1-k3   :    16.0000     1.3333    -4.0000 

 Edisp/kcal,au: -0.103368846943  -0.000164728726 
 E6   /kcal   :  -0.064784428 
 E8   /kcal   :  -0.038584419 
 % E8         :  37.326931395 

-------------------------   ----------------
Dispersion correction           -0.000164729
-------------------------   ----------------


-------------------------   --------------------
FINAL SINGLE POINT ENERGY      -112.701096331604
-------------------------   --------------------


                            ***************************************
                            *     ORCA property calculations      *
                            ***************************************

                                    ---------------------
                                    Active property flags
                                    ---------------------
   (+) Dipole Moment


------------------------------------------------------------------------------
                       ORCA ELECTRIC PROPERTIES CALCULATION
------------------------------------------------------------------------------

Dipole Moment Calculation                       ... on
Quadrupole Moment Calculation                   ... off
Polarizability Calculation                      ... off
GBWName                                         ... Scan_35.gbw
Electron density file                           ... Scan_35.scfp.tmp

-------------
DIPOLE MOMENT
-------------
                                X             Y             Z
Electronic contribution:     -0.43193       0.00000       0.00000
Nuclear contribution   :      0.02522      -0.00000       0.00000
                        -----------------------------------------
Total Dipole Moment    :     -0.40671       0.00000       0.00000
                        -----------------------------------------
Magnitude (a.u.)       :      0.40671
Magnitude (Debye)      :      1.03378


Timings for individual modules:

Sum of individual times         ...        8.105 sec (=   0.135 min)
GTO integral calculation        ...        0.325 sec (=   0.005 min)   4.0 %
SCF iterations                  ...        7.781 sec (=   0.130 min)  96.0 %
                             ****ORCA TERMINATED NORMALLY****
TOTAL RUN TIME: 0 days 0 hours 0 minutes 8 seconds 471 msec
