
                                 *****************
                                 * O   R   C   A *
                                 *****************

           --- An Ab Initio, DFT and Semiempirical electronic structure package ---

                  #######################################################
                  #                        -***-                        #
                  #  Department of molecular theory and spectroscopy    #
                  #              Directorship: Frank Neese              #
                  # Max Planck Institute for Chemical Energy Conversion #
                  #                  D-45470 Muelheim/Ruhr              #
                  #                       Germany                       #
                  #                                                     #
                  #                  All rights reserved                #
                  #                        -***-                        #
                  #######################################################


                         Program Version 4.0.0.2 - RELEASE -


 With contributions from (in alphabetic order):
   Daniel Aravena         : Magnetic Properties
   Michael Atanasov       : Ab Initio Ligand Field Theory
   Ute Becker             : Parallelization
   Martin Brehm           : Molecular dynamics
   Dmytro Bykov           : SCF Hessian
   Vijay G. Chilkuri      : MRCI spin determinant printing
   Dipayan Datta          : RHF DLPNO-CCSD density
   Achintya Kumar Dutta   : EOM-CC, STEOM-CC
   Dmitry Ganyushin       : Spin-Orbit,Spin-Spin,Magnetic field MRCI
   Yang Guo               : DLPNO-NEVPT2, CIM, IAO-localization
   Andreas Hansen         : Spin unrestricted coupled pair/coupled cluster methods
   Lee Huntington         : MR-EOM, pCC
   Robert Izsak           : Overlap fitted RIJCOSX, COSX-SCS-MP3, EOM
   Christian Kollmar      : KDIIS, OOCD, Brueckner-CCSD(T), CCSD density
   Simone Kossmann        : Meta GGA functionals, TD-DFT gradient, OOMP2, MP2 Hessian
   Martin Krupicka        : AUTO-CI
   Dagmar Lenk            : GEPOL surface
   Dimitrios Liakos       : Extrapolation schemes; parallel MDCI
   Dimitrios Manganas     : ROCIS; embedding schemes
   Dimitrios Pantazis     : SARC Basis sets
   Taras Petrenko         : DFT Hessian,TD-DFT gradient, ASA, ECA, R-Raman, ABS, FL, XAS/XES, NRVS
   Peter Pinski           : DLPNO-MP2
   Christoph Reimann      : Effective Core Potentials
   Marius Retegan         : Local ZFS, SOC
   Christoph Riplinger    : Optimizer, TS searches, QM/MM, DLPNO-CCSD(T), (RO)-DLPNO pert. Triples
   Tobias Risthaus        : Range-separated hybrids, TD-DFT gradient, RPA, STAB
   Michael Roemelt        : Restricted open shell CIS
   Masaaki Saitow         : Open-shell DLPNO
   Barbara Sandhoefer     : DKH picture change effects
   Kantharuban Sivalingam : CASSCF convergence, NEVPT2, FIC-MRCI
   Georgi Stoychev        : AutoAux
   Boris Wezisla          : Elementary symmetry handling
   Frank Wennmohs         : Technical directorship


 We gratefully acknowledge several colleagues who have allowed us to
 interface, adapt or use parts of their codes:
   Stefan Grimme, W. Hujo, H. Kruse,             : VdW corrections, initial TS optimization,
                  C. Bannwarth                     DFT functionals, gCP, sTDA/sTD-DF
   Ed Valeev                                     : LibInt (2-el integral package), F12 methods
   Garnet Chan, S. Sharma, J. Yang, R. Olivares  : DMRG
   Ulf Ekstrom                                   : XCFun DFT Library
   Mihaly Kallay                                 : mrcc  (arbitrary order and MRCC methods)
   Jiri Pittner, Ondrej Demel                    : Mk-CCSD
   Frank Weinhold                                : gennbo (NPA and NBO analysis)
   Christopher J. Cramer and Donald G. Truhlar   : smd solvation model


 Your calculation uses the libint2 library for the computation of 2-el integrals
 For citations please refer to: http://libint.valeyev.net

 This ORCA versions uses:
   CBLAS   interface :  Fast vector & matrix operations
   LAPACKE interface :  Fast linear algebra routines
   SCALAPACK package :  Parallel linear algebra routines


Your calculation utilizes the atom-pairwise dispersion correction
with the zero-damping scheme (D30)
Cite in your paper:
S.Grimme, J.Antony, S.Ehrlich and H.Krieg, J.Chem.Phys., 132, (2010), 154104 
   

XCFun DFT library Copyright 2009-2010 Ulf Ekstrom and contributors.
See http://admol.org/xcfun for more information. This is free soft-
ware; see the source code for copying conditions. There is ABSOLUTELY
NO WARRANTY; not even for MERCHANTABILITY or FITNESS FOR A PARTICULAR
PURPOSE. For details see the documentation. Scientific users of this 
library should cite U. Ekstrom, L. Visscher, R. Bast, A. J. Thorvald-
sen and K. Ruud; J.Chem.Theor.Comp. 2010, DOI: 10.1021/ct100117s
XCFun Version 0.99 
Your calculation utilizes the basis: 6-31G(d)
   H-He, Li-Ne : W. J. Hehre, R. Ditchfield and J.A. Pople, J. Chem. Phys. 56, 2257 (1972).
                 Note: He and Ne are unpublished basis sets taken from the Gaussian program.
                 Note: Li and B from J. D. Dill and J. A. Pople, J. Chem. Phys. 62, 2921 (1975).
   Na - Ar     : M. M. Francl, W. J. Pietro, W. J. Hehre, J. S. Binkley, M. S. Gordon, 
                 D. J. DeFrees and J. A. Pople, J. Chem. Phys. 77, 3654 (1982).
   K - Zn      : V. A. Rassolov, J. A. Pople, M. A. Ratner, and T. L. Windus, J. Chem. Phys. 109, 1223 (1998).

================================================================================
                                        WARNINGS
                       Please study these warnings very carefully!
================================================================================

Warning: TCutStore was < 0. Adjusted to Thresh (uncritical)

INFO   : the flag for use of LIBINT has been found!

================================================================================
                                       INPUT FILE
================================================================================
NAME = initial36.inp
|  1> ! WB97X-D3 6-31G(d) VerySlowConv
|  2> ! KDIIS NOSOSCF
|  3> %base "Scan_36"
|  4> 
|  5> %scf
|  6> maxiter 999
|  7> end
|  8> 
|  9> * xyz 0 1
| 10> C         -2.169199521302    1.613610000000   -0.000000000000
| 11> O          1.910159521302    1.613610000000   -0.000000000000
| 12> **                         ****END OF INPUT****
================================================================================

                       ****************************
                       * Single Point Calculation *
                       ****************************

---------------------------------
CARTESIAN COORDINATES (ANGSTROEM)
---------------------------------
  C     -2.169200    1.613610   -0.000000
  O      1.910160    1.613610   -0.000000

----------------------------
CARTESIAN COORDINATES (A.U.)
----------------------------
  NO LB      ZA    FRAG     MASS         X           Y           Z
   0 C     6.0000    0    12.011   -4.099193    3.049281   -0.000000
   1 O     8.0000    0    15.999    3.609678    3.049281   -0.000000

--------------------------------
INTERNAL COORDINATES (ANGSTROEM)
--------------------------------
 C      0   0   0     0.000000000000     0.00000000     0.00000000
 O      1   0   0     4.079359042604     0.00000000     0.00000000

---------------------------
INTERNAL COORDINATES (A.U.)
---------------------------
 C      0   0   0     0.000000000000     0.00000000     0.00000000
 O      1   0   0     7.708871392457     0.00000000     0.00000000

---------------------
BASIS SET INFORMATION
---------------------
There are 2 groups of distinct atoms

 Group   1 Type C   : 10s4p1d contracted to 3s2p1d pattern {631/31/1}
 Group   2 Type O   : 10s4p1d contracted to 3s2p1d pattern {631/31/1}

Atom   0C    basis set group =>   1
Atom   1O    basis set group =>   2
------------------------------------------------------------------------------
                           ORCA GTO INTEGRAL CALCULATION
------------------------------------------------------------------------------

                         BASIS SET STATISTICS AND STARTUP INFO

 # of primitive gaussian shells          ...   30
 # of primitive gaussian functions       ...   54
 # of contracted shells                  ...   12
 # of contracted basis functions         ...   28
 Highest angular momentum                ...    2
 Maximum contraction depth               ...    6
 Integral package used                   ... LIBINT
 Integral threshhold            Thresh   ...  1.000e-10
 Primitive cut-off              TCut     ...  1.000e-11


------------------------------ INTEGRAL EVALUATION ----------------------------


 * One electron integrals 
 Pre-screening matrix                    ... done
 Shell pair data                         ... done (   0.000 sec)

-------------------------------------------------------------------------------
                                 ORCA SCF
-------------------------------------------------------------------------------

------------
SCF SETTINGS
------------
Hamiltonian:
 Density Functional     Method          .... DFT(GTOs)
 Exchange Functional    Exchange        .... WB97X-D3
 Correlation Functional Correlation     .... WB97X-D3
 Gradients option       PostSCFGGA      .... off
 Hybrid DFT is turned on
   Fraction HF Exchange ScalHFX         ....  0.195728
   Scaling of DF-GGA-X  ScalDFX         ....  0.000000
   Scaling of DF-GGA-C  ScalDFC         ....  1.000000
   Scaling of DF-LDA-C  ScalLDAC        ....  1.000000
   Perturbative correction              ....  0.000000
 Long-range corrected/Screened/Range-Separated Hybrid DFT is turned on
   Amount of maximum screened exact exchange              ....  0.804272
   Range separation parameter mu (erf(mu*r12)/r12)        ....  0.250000


General Settings:
 Integral files         IntName         .... Scan_36
 Hartree-Fock type      HFTyp           .... RHF
 Total Charge           Charge          ....    0
 Multiplicity           Mult            ....    1
 Number of Electrons    NEL             ....   14
 Basis Dimension        Dim             ....   28
 Nuclear Repulsion      ENuc            ....      6.2265923968 Eh

Convergence Acceleration:
 DIIS                   CNVDIIS         .... on
   Start iteration      DIISMaxIt       ....     0
   Startup error        DIISStart       ....  0.200000
   # of expansion vecs  DIISMaxEq       ....     5
   Bias factor          DIISBfac        ....   1.050
   Max. coefficient     DIISMaxC        ....  10.000
 Newton-Raphson         CNVNR           .... off
 SOSCF                  CNVSOSCF        .... off
 Level Shifting         CNVShift        .... off
 Zerner damping         CNVZerner       .... off
 Static damping         CNVDamp         .... off
 Fernandez-Rico         CNVRico         .... off

SCF Procedure:
 Maximum # iterations   MaxIter         ....   999
 SCF integral mode      SCFMode         .... Direct
   Integral package                     .... LIBINT
 Reset frequeny         DirectResetFreq ....    20
 Integral Threshold     Thresh          ....  1.000e-10 Eh
 Primitive CutOff       TCut            ....  1.000e-11 Eh

Convergence Tolerance:
 Convergence Check Mode ConvCheckMode   .... All-Criteria
 Convergence forced     ConvForced      .... 0
 Energy Change          TolE            ....  1.000e-06 Eh
 Max Density Change     TolMaxP         ....  1.000e-05
 RMS Density Change     TolRMSP         ....  1.000e-06
 DIIS Error             TolErr          ....  1.000e-06


Diagonalization of the overlap matrix:
Smallest eigenvalue                        ... 1.869e-01
Time for diagonalization                   ...    0.001 sec
Threshold for overlap eigenvalues          ... 1.000e-08
Number of eigenvalues below threshold      ... 0
Time for construction of square roots      ...    0.007 sec
Total time needed                          ...    0.007 sec

-------------------
DFT GRID GENERATION
-------------------

General Integration Accuracy     IntAcc      ...  4.340
Radial Grid Type                 RadialGrid  ... Gauss-Chebyshev
Angular Grid (max. acc.)         AngularGrid ... Lebedev-110
Angular grid pruning method      GridPruning ... 3 (G Style)
Weight generation scheme         WeightScheme... Becke
Basis function cutoff            BFCut       ...    1.0000e-10
Integration weight cutoff        WCut        ...    1.0000e-14
Grids for H and He will be reduced by one unit

# of grid points (after initial pruning)     ...   3372 (   0.0 sec)
# of grid points (after weights+screening)   ...   3361 (   0.0 sec)
nearest neighbour list constructed           ...    0.0 sec
Grid point re-assignment to atoms done       ...    0.0 sec
Grid point division into batches done        ...    0.0 sec
Reduced shell lists constructed in    0.0 sec

Total number of grid points                  ...     3361
Total number of batches                      ...       54
Average number of points per batch           ...       62
Average number of grid points per atom       ...     1680
Average number of shells per batch           ...     8.29 (69.09%)
Average number of basis functions per batch  ...    19.35 (69.09%)
Average number of large shells per batch     ...     6.62 (79.82%)
Average number of large basis fcns per batch ...    15.93 (82.33%)
Maximum spatial batch extension              ...  19.27, 27.48, 31.36 au
Average spatial batch extension              ...   6.07,  7.37,  8.10 au

Time for grid setup =    0.021 sec

------------------------------
INITIAL GUESS: MODEL POTENTIAL
------------------------------
Loading Hartree-Fock densities                     ... done
Calculating cut-offs                               ... done
Setting up the integral package                    ... done
Initializing the effective Hamiltonian             ... done
Starting the Coulomb interaction                   ... done (   0.0 sec)
Reading the grid                                   ... done
Mapping shells                                     ... done
Starting the XC term evaluation                    ... done (   0.0 sec)
  promolecular density results
     # of electrons  =     13.999841847
     EX              =    -12.943358419
     EC              =     -0.402756001
     EX+EC           =    -13.346114420
Transforming the Hamiltonian                       ... done (   0.0 sec)
Diagonalizing the Hamiltonian                      ... done (   0.0 sec)
Back transforming the eigenvectors                 ... done (   0.0 sec)
Now organizing SCF variables                       ... done
                      ------------------
                      INITIAL GUESS DONE (   0.1 sec)
                      ------------------
--------------
SCF ITERATIONS
--------------
ITER       Energy         Delta-E        Max-DP      RMS-DP      [F,P]   Gradient Norm
               ***  Starting incremental Fock matrix formation  ***
                             ****Resetting KDIIS****
                             ****Turning on KDIIS(Cayley)****
  0   -111.1123874043   0.000000000000 0.05987378  0.00620798  0.3719382   0.286735515
  1   -111.2388486096  -0.126461205311 0.11003108  0.01127467  0.3199399   0.246484900
  2   -111.4246965068  -0.185847897193 0.19579244  0.01696549  0.2201747   0.171575953
  3   -111.5703762853  -0.145679778553 0.36870887  0.02797506  0.1018747   0.089593841
  4   -111.6388506620  -0.068474376664 0.16373115  0.01763396  0.0968006   0.075722264
  5   -111.6154852277   0.023365434301 0.13562608  0.01021497  0.1165834   0.080181130
  6   -111.6131016093   0.002383618364 0.07689010  0.00783367  0.1068113   0.075850398
  7   -111.6376900808  -0.024588471446 0.65625571  0.06665561  0.0770034   0.054438587
  8   -111.8041134621  -0.166423381306 0.45142653  0.03704507  0.1264840   0.084177644
  9   -111.9640498667  -0.159936404670 0.21910132  0.02194342  0.1915768   0.105663255
 10   -112.2158611905  -0.251811323765 0.21078865  0.02048460  0.1605115   0.107035880
 11   -112.3123411218  -0.096479931299 0.02329892  0.00174597  0.1720299   0.102554490
 12   -112.3255494645  -0.013208342652 0.18339721  0.01493232  0.1620455   0.098755812
 13   -112.2650368655   0.060512598998 0.26998361  0.02143817  0.2741777   0.146386794
 14   -112.0861187921   0.178918073375 0.25898787  0.02729802  0.2170920   0.125259559
 15   -112.3469647774  -0.260845985334 0.13778242  0.00862910  0.2068724   0.112479037
 16   -112.4193662444  -0.072401467007 0.05206279  0.00447715  0.1824199   0.099316971
 17   -112.4247083867  -0.005342142242 0.31977898  0.02409982  0.1724024   0.094374716
 18   -112.3520166042   0.072691782505 0.37787116  0.03507391  0.1599091   0.098129285
 19   -112.4763687932  -0.124352189044 0.18031782  0.01454242  0.1222289   0.112050236
               *** Restarting incremental Fock matrix formation ***
                             ****Resetting KDIIS****
 20   -112.4873225400  -0.010953746808 0.01682861  0.00167373  0.1469597   0.081325101
 21   -112.5099064090  -0.022583869034 0.02978228  0.00346336  0.1187644   0.065605890
 22   -112.5427515489  -0.032845139889 0.05588140  0.00626382  0.0599431   0.040771712
 23   -112.5504164762  -0.007664927234 0.09705717  0.00766232  0.0670119   0.063644440
 24   -112.5440444650   0.006372011119 0.02431172  0.00246348  0.0876839   0.047707700
 25   -112.5557102587  -0.011665793699 0.04382647  0.00530182  0.0731513   0.039414300
 26   -112.5727612650  -0.017051006232 0.03478195  0.00413305  0.0253114   0.013815016
 27   -112.5736110010  -0.000849735972 0.01917256  0.00202774  0.0160027   0.009533156
 28   -112.5696000058   0.004010995183 0.04979213  0.00493068  0.0372586   0.020783610
 29   -112.5756036495  -0.006003643693 0.01169084  0.00128636  0.0030476   0.002692418
 30   -112.5757262424  -0.000122592916 0.00474451  0.00056173  0.0038519   0.002222729
 31   -112.5758095011  -0.000083258738 0.00161772  0.00011136  0.0002999   0.000264397
 32   -112.5758118634  -0.000002362302 0.00041569  0.00003241  0.0001044   0.000076545
                          ***Energy convergence achieved***
 33   -112.5758121580  -0.000000294544 0.00036639  0.00003004  0.0000612   0.000050817
 34   -112.5758123938  -0.000000235858 0.00027413  0.00002129  0.0000628   0.000034461
 35   -112.5758125562  -0.000000162369 0.01080485  0.00083770  0.0000626   0.000034450
 36   -112.5758183883  -0.000005832161 0.00026688  0.00002057  0.0000769   0.000036596
                          ***Energy convergence achieved***
 37   -112.5758185258  -0.000000137480 0.01846286  0.00142708  0.0000817   0.000036762
 38   -112.5758256106  -0.000007084747 0.02161181  0.00166658  0.0002041   0.000140279
 39   -112.5758296913  -0.000004080728 0.03215459  0.00248144  0.0003033   0.000190630
               *** Restarting incremental Fock matrix formation ***
                             ****Resetting KDIIS****
 40   -112.5758215569   0.000008134364 0.00015111  0.00001424  0.0004205   0.000258195
                          ***Energy convergence achieved***
 41   -112.5758219591  -0.000000402154 0.00003077  0.00000311  0.0001275   0.000078631

            ***Energy convergence in two consecutive cycles with***
                    ***'reasonable' density convergence***
                       *** signaling convergence ***

                    *** KDIIS BlockDiag ( 0.000 sec) ***

               *****************************************************
               *                     SUCCESS                       *
               *           SCF CONVERGED AFTER  42 CYCLES          *
               *****************************************************

Setting up the final grid:

General Integration Accuracy     IntAcc      ...  4.670
Radial Grid Type                 RadialGrid  ... Gauss-Chebyshev
Angular Grid (max. acc.)         AngularGrid ... Lebedev-302
Angular grid pruning method      GridPruning ... 3 (G Style)
Weight generation scheme         WeightScheme... Becke
Basis function cutoff            BFCut       ...    1.0000e-10
Integration weight cutoff        WCut        ...    1.0000e-14
Grids for H and He will be reduced by one unit

# of grid points (after initial pruning)     ...  12424 (   0.0 sec)
# of grid points (after weights+screening)   ...  12412 (   0.0 sec)
nearest neighbour list constructed           ...    0.0 sec
Grid point re-assignment to atoms done       ...    0.0 sec
Grid point division into batches done        ...    0.1 sec
Reduced shell lists constructed in    0.1 sec

Total number of grid points                  ...    12412
Total number of batches                      ...      195
Average number of points per batch           ...       63
Average number of grid points per atom       ...     6206
Average number of shells per batch           ...     6.97 (58.08%)
Average number of basis functions per batch  ...    16.41 (58.60%)
Average number of large shells per batch     ...     5.82 (83.46%)
Average number of large basis fcns per batch ...    13.85 (84.39%)
Maximum spatial batch extension              ...  17.91, 20.64, 18.61 au
Average spatial batch extension              ...   4.30,  4.50,  4.34 au

Final grid set up in    0.1 sec
Final integration                            ... done (   0.1 sec)
Change in XC energy                          ...    -0.000339680
Integrated number of electrons               ...    14.000009744
Previous integrated no of electrons          ...    13.999895536

----------------
TOTAL SCF ENERGY
----------------

Total Energy       :         -112.57616167 Eh           -3063.35310 eV

Components:
Nuclear Repulsion  :            6.22659240 Eh             169.43419 eV
Electronic Energy  :         -118.80275406 Eh           -3232.78729 eV
One Electron Energy:         -166.24247704 Eh           -4523.68778 eV
Two Electron Energy:           47.43972297 Eh            1290.90049 eV

Virial components:
Potential Energy   :         -224.55204495 Eh           -6110.37179 eV
Kinetic Energy     :          111.97588328 Eh            3047.01869 eV
Virial Ratio       :            2.00536078


DFT components:
N(Alpha)           :        7.000004871806 electrons
N(Beta)            :        7.000004871806 electrons
N(Total)           :       14.000009743613 electrons
E(XC)              :       -9.455548672407 Eh       

---------------
SCF CONVERGENCE
---------------

  Last Energy change         ...   -2.9011e-08  Tolerance :   1.0000e-06
  Last MAX-Density change    ...    7.4806e-05  Tolerance :   1.0000e-05
  Last RMS-Density change    ...    6.5756e-06  Tolerance :   1.0000e-06
  Last DIIS Error            ...    1.0733e-04  Tolerance :   1.0000e-06

             **** THE GBW FILE WAS UPDATED (Scan_36.gbw) ****
             **** DENSITY FILE WAS UPDATED (Scan_36.scfp.tmp) ****
             **** ENERGY FILE WAS UPDATED (Scan_36.en.tmp) ****
----------------
ORBITAL ENERGIES
----------------

  NO   OCC          E(Eh)            E(eV) 
   0   2.0000     -19.285589      -524.7875 
   1   2.0000     -10.537873      -286.7501 
   2   2.0000      -0.959663       -26.1138 
   3   2.0000      -0.722811       -19.6687 
   4   2.0000      -0.364006        -9.9051 
   5   2.0000      -0.300493        -8.1768 
   6   2.0000      -0.300487        -8.1767 
   7   0.0000      -0.173258        -4.7146 
   8   0.0000      -0.173257        -4.7146 
   9   0.0000      -0.108791        -2.9603 
  10   0.0000       0.577899        15.7254 
  11   0.0000       0.577900        15.7255 
  12   0.0000       0.585407        15.9297 
  13   0.0000       0.629183        17.1209 
  14   0.0000       1.018818        27.7235 
  15   0.0000       1.018822        27.7235 
  16   0.0000       1.030726        28.0475 
  17   0.0000       1.124428        30.5972 
  18   0.0000       1.682700        45.7886 
  19   0.0000       1.682705        45.7887 
  20   0.0000       1.682920        45.7946 
  21   0.0000       1.692639        46.0591 
  22   0.0000       1.692656        46.0595 
  23   0.0000       1.921477        52.2860 
  24   0.0000       1.921479        52.2861 
  25   0.0000       1.940878        52.8140 
  26   0.0000       1.940888        52.8142 
  27   0.0000       1.947157        52.9848 

                    ********************************
                    * MULLIKEN POPULATION ANALYSIS *
                    ********************************

-----------------------
MULLIKEN ATOMIC CHARGES
-----------------------
   0 C :    0.249891
   1 O :   -0.249891
Sum of atomic charges:   -0.0000000

--------------------------------
MULLIKEN REDUCED ORBITAL CHARGES
--------------------------------
  0 C s       :     3.999915  s :     3.999915
      pz      :     0.873821  p :     1.750177
      px      :     0.002518
      py      :     0.873839
      dz2     :     0.000002  d :     0.000016
      dxz     :     0.000004
      dyz     :     0.000000
      dx2y2   :     0.000006
      dxy     :     0.000004
  1 O s       :     3.999897  s :     3.999897
      pz      :     1.126127  p :     4.249901
      px      :     1.997586
      py      :     1.126188
      dz2     :     0.000019  d :     0.000094
      dxz     :     0.000009
      dyz     :     0.000000
      dx2y2   :     0.000057
      dxy     :     0.000009


                     *******************************
                     * LOEWDIN POPULATION ANALYSIS *
                     *******************************

----------------------
LOEWDIN ATOMIC CHARGES
----------------------
   0 C :    0.249912
   1 O :   -0.249912

-------------------------------
LOEWDIN REDUCED ORBITAL CHARGES
-------------------------------
  0 C s       :     3.999892  s :     3.999892
      pz      :     0.873830  p :     1.750180
      px      :     0.002503
      py      :     0.873848
      dz2     :     0.000002  d :     0.000016
      dxz     :     0.000004
      dyz     :     0.000000
      dx2y2   :     0.000006
      dxy     :     0.000004
  1 O s       :     3.999893  s :     3.999893
      pz      :     1.126118  p :     4.249925
      px      :     1.997628
      py      :     1.126179
      dz2     :     0.000019  d :     0.000094
      dxz     :     0.000009
      dyz     :     0.000000
      dx2y2   :     0.000057
      dxy     :     0.000009


                      *****************************
                      * MAYER POPULATION ANALYSIS *
                      *****************************

  NA   - Mulliken gross atomic population
  ZA   - Total nuclear charge
  QA   - Mulliken gross atomic charge
  VA   - Mayer's total valence
  BVA  - Mayer's bonded valence
  FA   - Mayer's free valence

  ATOM       NA         ZA         QA         VA         BVA        FA
  0 C      5.7501     6.0000     0.2499     1.9731     1.9731     0.0000
  1 O      8.2499     8.0000    -0.2499     1.9731     1.9731    -0.0000

  Mayer bond orders larger than 0.1
B(  0-C ,  1-O ) :   1.9731 

-------
TIMINGS
-------

Total SCF time: 0 days 0 hours 0 min 11 sec 

Total time                  ....      11.856 sec
Sum of individual times     ....      11.352 sec  ( 95.8%)

Fock matrix formation       ....      11.096 sec  ( 93.6%)
  XC integration            ....       1.931 sec  ( 17.4% of F)
    Basis function eval.    ....       0.327 sec  ( 17.0% of XC)
    Density eval.           ....       0.079 sec  (  4.1% of XC)
    XC-Functional eval.     ....       0.460 sec  ( 23.8% of XC)
    XC-Potential eval.      ....       0.036 sec  (  1.9% of XC)
Diagonalization             ....       0.014 sec  (  0.1%)
Density matrix formation    ....       0.000 sec  (  0.0%)
Population analysis         ....       0.011 sec  (  0.1%)
Initial guess               ....       0.108 sec  (  0.9%)
Orbital Transformation      ....       0.000 sec  (  0.0%)
Orbital Orthonormalization  ....       0.000 sec  (  0.0%)
DIIS solution               ....       0.000 sec  (  0.0%)
Grid generation             ....       0.123 sec  (  1.0%)


-------------------------------------------------------------------------------
                          DFT DISPERSION CORRECTION                            
                                                                               
                              DFTD3 V3.1  Rev 1                                
                              USING zero damping                               
-------------------------------------------------------------------------------
The omegaB97X-D3 functional is recognized. Fit by Chai et al.
Active option DFTDOPT                   ...         3   

molecular C6(AA) [au] = 117.463256 


            DFT-D V3
 parameters
 s6 scaling factor         :     1.0000 
 rs6 scaling factor        :     1.2810 
 s8 scaling factor         :     1.0000 
 rs8 scaling factor        :     1.0940 
 Damping factor alpha6     :    14.0000 
 Damping factor alpha8     :    16.0000 
 ad hoc parameters k1-k3   :    16.0000     1.3333    -4.0000 

 Edisp/kcal,au: -0.092809742444  -0.000147901723 
 E6   /kcal   :  -0.061078002 
 E8   /kcal   :  -0.031731741 
 % E8         :  34.190096844 

-------------------------   ----------------
Dispersion correction           -0.000147902
-------------------------   ----------------


-------------------------   --------------------
FINAL SINGLE POINT ENERGY      -112.576309569356
-------------------------   --------------------


                            ***************************************
                            *     ORCA property calculations      *
                            ***************************************

                                    ---------------------
                                    Active property flags
                                    ---------------------
   (+) Dipole Moment


------------------------------------------------------------------------------
                       ORCA ELECTRIC PROPERTIES CALCULATION
------------------------------------------------------------------------------

Dipole Moment Calculation                       ... on
Quadrupole Moment Calculation                   ... off
Polarizability Calculation                      ... off
GBWName                                         ... Scan_36.gbw
Electron density file                           ... Scan_36.scfp.tmp

-------------
DIPOLE MOMENT
-------------
                                X             Y             Z
Electronic contribution:     -1.91181      -0.00000      -0.00000
Nuclear contribution   :      0.02587      -0.00000       0.00000
                        -----------------------------------------
Total Dipole Moment    :     -1.88594      -0.00000      -0.00000
                        -----------------------------------------
Magnitude (a.u.)       :      1.88594
Magnitude (Debye)      :      4.79367


Timings for individual modules:

Sum of individual times         ...       12.207 sec (=   0.203 min)
GTO integral calculation        ...        0.324 sec (=   0.005 min)   2.7 %
SCF iterations                  ...       11.883 sec (=   0.198 min)  97.3 %
                             ****ORCA TERMINATED NORMALLY****
TOTAL RUN TIME: 0 days 0 hours 0 minutes 12 seconds 544 msec
