
                                 *****************
                                 * O   R   C   A *
                                 *****************

           --- An Ab Initio, DFT and Semiempirical electronic structure package ---

                  #######################################################
                  #                        -***-                        #
                  #  Department of molecular theory and spectroscopy    #
                  #              Directorship: Frank Neese              #
                  # Max Planck Institute for Chemical Energy Conversion #
                  #                  D-45470 Muelheim/Ruhr              #
                  #                       Germany                       #
                  #                                                     #
                  #                  All rights reserved                #
                  #                        -***-                        #
                  #######################################################


                         Program Version 4.0.0.2 - RELEASE -


 With contributions from (in alphabetic order):
   Daniel Aravena         : Magnetic Properties
   Michael Atanasov       : Ab Initio Ligand Field Theory
   Ute Becker             : Parallelization
   Martin Brehm           : Molecular dynamics
   Dmytro Bykov           : SCF Hessian
   Vijay G. Chilkuri      : MRCI spin determinant printing
   Dipayan Datta          : RHF DLPNO-CCSD density
   Achintya Kumar Dutta   : EOM-CC, STEOM-CC
   Dmitry Ganyushin       : Spin-Orbit,Spin-Spin,Magnetic field MRCI
   Yang Guo               : DLPNO-NEVPT2, CIM, IAO-localization
   Andreas Hansen         : Spin unrestricted coupled pair/coupled cluster methods
   Lee Huntington         : MR-EOM, pCC
   Robert Izsak           : Overlap fitted RIJCOSX, COSX-SCS-MP3, EOM
   Christian Kollmar      : KDIIS, OOCD, Brueckner-CCSD(T), CCSD density
   Simone Kossmann        : Meta GGA functionals, TD-DFT gradient, OOMP2, MP2 Hessian
   Martin Krupicka        : AUTO-CI
   Dagmar Lenk            : GEPOL surface
   Dimitrios Liakos       : Extrapolation schemes; parallel MDCI
   Dimitrios Manganas     : ROCIS; embedding schemes
   Dimitrios Pantazis     : SARC Basis sets
   Taras Petrenko         : DFT Hessian,TD-DFT gradient, ASA, ECA, R-Raman, ABS, FL, XAS/XES, NRVS
   Peter Pinski           : DLPNO-MP2
   Christoph Reimann      : Effective Core Potentials
   Marius Retegan         : Local ZFS, SOC
   Christoph Riplinger    : Optimizer, TS searches, QM/MM, DLPNO-CCSD(T), (RO)-DLPNO pert. Triples
   Tobias Risthaus        : Range-separated hybrids, TD-DFT gradient, RPA, STAB
   Michael Roemelt        : Restricted open shell CIS
   Masaaki Saitow         : Open-shell DLPNO
   Barbara Sandhoefer     : DKH picture change effects
   Kantharuban Sivalingam : CASSCF convergence, NEVPT2, FIC-MRCI
   Georgi Stoychev        : AutoAux
   Boris Wezisla          : Elementary symmetry handling
   Frank Wennmohs         : Technical directorship


 We gratefully acknowledge several colleagues who have allowed us to
 interface, adapt or use parts of their codes:
   Stefan Grimme, W. Hujo, H. Kruse,             : VdW corrections, initial TS optimization,
                  C. Bannwarth                     DFT functionals, gCP, sTDA/sTD-DF
   Ed Valeev                                     : LibInt (2-el integral package), F12 methods
   Garnet Chan, S. Sharma, J. Yang, R. Olivares  : DMRG
   Ulf Ekstrom                                   : XCFun DFT Library
   Mihaly Kallay                                 : mrcc  (arbitrary order and MRCC methods)
   Jiri Pittner, Ondrej Demel                    : Mk-CCSD
   Frank Weinhold                                : gennbo (NPA and NBO analysis)
   Christopher J. Cramer and Donald G. Truhlar   : smd solvation model


 Your calculation uses the libint2 library for the computation of 2-el integrals
 For citations please refer to: http://libint.valeyev.net

 This ORCA versions uses:
   CBLAS   interface :  Fast vector & matrix operations
   LAPACKE interface :  Fast linear algebra routines
   SCALAPACK package :  Parallel linear algebra routines


Your calculation utilizes the atom-pairwise dispersion correction
with the zero-damping scheme (D30)
Cite in your paper:
S.Grimme, J.Antony, S.Ehrlich and H.Krieg, J.Chem.Phys., 132, (2010), 154104 
   

XCFun DFT library Copyright 2009-2010 Ulf Ekstrom and contributors.
See http://admol.org/xcfun for more information. This is free soft-
ware; see the source code for copying conditions. There is ABSOLUTELY
NO WARRANTY; not even for MERCHANTABILITY or FITNESS FOR A PARTICULAR
PURPOSE. For details see the documentation. Scientific users of this 
library should cite U. Ekstrom, L. Visscher, R. Bast, A. J. Thorvald-
sen and K. Ruud; J.Chem.Theor.Comp. 2010, DOI: 10.1021/ct100117s
XCFun Version 0.99 
Your calculation utilizes the basis: 6-31G(d)
   H-He, Li-Ne : W. J. Hehre, R. Ditchfield and J.A. Pople, J. Chem. Phys. 56, 2257 (1972).
                 Note: He and Ne are unpublished basis sets taken from the Gaussian program.
                 Note: Li and B from J. D. Dill and J. A. Pople, J. Chem. Phys. 62, 2921 (1975).
   Na - Ar     : M. M. Francl, W. J. Pietro, W. J. Hehre, J. S. Binkley, M. S. Gordon, 
                 D. J. DeFrees and J. A. Pople, J. Chem. Phys. 77, 3654 (1982).
   K - Zn      : V. A. Rassolov, J. A. Pople, M. A. Ratner, and T. L. Windus, J. Chem. Phys. 109, 1223 (1998).

================================================================================
                                        WARNINGS
                       Please study these warnings very carefully!
================================================================================

Warning: TCutStore was < 0. Adjusted to Thresh (uncritical)

INFO   : the flag for use of LIBINT has been found!

================================================================================
                                       INPUT FILE
================================================================================
NAME = initial37.inp
|  1> ! WB97X-D3 6-31G(d) VerySlowConv
|  2> ! KDIIS NOSOSCF
|  3> %base "Scan_37"
|  4> 
|  5> %scf
|  6> maxiter 999
|  7> end
|  8> 
|  9> * xyz 0 1
| 10> C         -2.220343973425    1.613610000000   -0.000000000000
| 11> O          1.961303973424    1.613610000000   -0.000000000000
| 12> **                         ****END OF INPUT****
================================================================================

                       ****************************
                       * Single Point Calculation *
                       ****************************

---------------------------------
CARTESIAN COORDINATES (ANGSTROEM)
---------------------------------
  C     -2.220344    1.613610   -0.000000
  O      1.961304    1.613610   -0.000000

----------------------------
CARTESIAN COORDINATES (A.U.)
----------------------------
  NO LB      ZA    FRAG     MASS         X           Y           Z
   0 C     6.0000    0    12.011   -4.195842    3.049281   -0.000000
   1 O     8.0000    0    15.999    3.706327    3.049281   -0.000000

--------------------------------
INTERNAL COORDINATES (ANGSTROEM)
--------------------------------
 C      0   0   0     0.000000000000     0.00000000     0.00000000
 O      1   0   0     4.181647946849     0.00000000     0.00000000

---------------------------
INTERNAL COORDINATES (A.U.)
---------------------------
 C      0   0   0     0.000000000000     0.00000000     0.00000000
 O      1   0   0     7.902169408019     0.00000000     0.00000000

---------------------
BASIS SET INFORMATION
---------------------
There are 2 groups of distinct atoms

 Group   1 Type C   : 10s4p1d contracted to 3s2p1d pattern {631/31/1}
 Group   2 Type O   : 10s4p1d contracted to 3s2p1d pattern {631/31/1}

Atom   0C    basis set group =>   1
Atom   1O    basis set group =>   2
------------------------------------------------------------------------------
                           ORCA GTO INTEGRAL CALCULATION
------------------------------------------------------------------------------

                         BASIS SET STATISTICS AND STARTUP INFO

 # of primitive gaussian shells          ...   30
 # of primitive gaussian functions       ...   54
 # of contracted shells                  ...   12
 # of contracted basis functions         ...   28
 Highest angular momentum                ...    2
 Maximum contraction depth               ...    6
 Integral package used                   ... LIBINT
 Integral threshhold            Thresh   ...  1.000e-10
 Primitive cut-off              TCut     ...  1.000e-11


------------------------------ INTEGRAL EVALUATION ----------------------------


 * One electron integrals 
 Pre-screening matrix                    ... done
 Shell pair data                         ... done (   0.000 sec)

-------------------------------------------------------------------------------
                                 ORCA SCF
-------------------------------------------------------------------------------

------------
SCF SETTINGS
------------
Hamiltonian:
 Density Functional     Method          .... DFT(GTOs)
 Exchange Functional    Exchange        .... WB97X-D3
 Correlation Functional Correlation     .... WB97X-D3
 Gradients option       PostSCFGGA      .... off
 Hybrid DFT is turned on
   Fraction HF Exchange ScalHFX         ....  0.195728
   Scaling of DF-GGA-X  ScalDFX         ....  0.000000
   Scaling of DF-GGA-C  ScalDFC         ....  1.000000
   Scaling of DF-LDA-C  ScalLDAC        ....  1.000000
   Perturbative correction              ....  0.000000
 Long-range corrected/Screened/Range-Separated Hybrid DFT is turned on
   Amount of maximum screened exact exchange              ....  0.804272
   Range separation parameter mu (erf(mu*r12)/r12)        ....  0.250000


General Settings:
 Integral files         IntName         .... Scan_37
 Hartree-Fock type      HFTyp           .... RHF
 Total Charge           Charge          ....    0
 Multiplicity           Mult            ....    1
 Number of Electrons    NEL             ....   14
 Basis Dimension        Dim             ....   28
 Nuclear Repulsion      ENuc            ....      6.0742813171 Eh

Convergence Acceleration:
 DIIS                   CNVDIIS         .... on
   Start iteration      DIISMaxIt       ....     0
   Startup error        DIISStart       ....  0.200000
   # of expansion vecs  DIISMaxEq       ....     5
   Bias factor          DIISBfac        ....   1.050
   Max. coefficient     DIISMaxC        ....  10.000
 Newton-Raphson         CNVNR           .... off
 SOSCF                  CNVSOSCF        .... off
 Level Shifting         CNVShift        .... off
 Zerner damping         CNVZerner       .... off
 Static damping         CNVDamp         .... off
 Fernandez-Rico         CNVRico         .... off

SCF Procedure:
 Maximum # iterations   MaxIter         ....   999
 SCF integral mode      SCFMode         .... Direct
   Integral package                     .... LIBINT
 Reset frequeny         DirectResetFreq ....    20
 Integral Threshold     Thresh          ....  1.000e-10 Eh
 Primitive CutOff       TCut            ....  1.000e-11 Eh

Convergence Tolerance:
 Convergence Check Mode ConvCheckMode   .... All-Criteria
 Convergence forced     ConvForced      .... 0
 Energy Change          TolE            ....  1.000e-06 Eh
 Max Density Change     TolMaxP         ....  1.000e-05
 RMS Density Change     TolRMSP         ....  1.000e-06
 DIIS Error             TolErr          ....  1.000e-06


Diagonalization of the overlap matrix:
Smallest eigenvalue                        ... 1.869e-01
Time for diagonalization                   ...    0.001 sec
Threshold for overlap eigenvalues          ... 1.000e-08
Number of eigenvalues below threshold      ... 0
Time for construction of square roots      ...    0.009 sec
Total time needed                          ...    0.010 sec

-------------------
DFT GRID GENERATION
-------------------

General Integration Accuracy     IntAcc      ...  4.340
Radial Grid Type                 RadialGrid  ... Gauss-Chebyshev
Angular Grid (max. acc.)         AngularGrid ... Lebedev-110
Angular grid pruning method      GridPruning ... 3 (G Style)
Weight generation scheme         WeightScheme... Becke
Basis function cutoff            BFCut       ...    1.0000e-10
Integration weight cutoff        WCut        ...    1.0000e-14
Grids for H and He will be reduced by one unit

# of grid points (after initial pruning)     ...   3372 (   0.0 sec)
# of grid points (after weights+screening)   ...   3362 (   0.0 sec)
nearest neighbour list constructed           ...    0.0 sec
Grid point re-assignment to atoms done       ...    0.0 sec
Grid point division into batches done        ...    0.0 sec
Reduced shell lists constructed in    0.0 sec

Total number of grid points                  ...     3362
Total number of batches                      ...       54
Average number of points per batch           ...       62
Average number of grid points per atom       ...     1681
Average number of shells per batch           ...     8.15 (67.88%)
Average number of basis functions per batch  ...    19.16 (68.44%)
Average number of large shells per batch     ...     6.53 (80.13%)
Average number of large basis fcns per batch ...    15.76 (82.26%)
Maximum spatial batch extension              ...  19.46, 27.48, 31.36 au
Average spatial batch extension              ...   6.05,  6.79,  7.57 au

Time for grid setup =    0.093 sec

------------------------------
INITIAL GUESS: MODEL POTENTIAL
------------------------------
Loading Hartree-Fock densities                     ... done
Calculating cut-offs                               ... done
Setting up the integral package                    ... done
Initializing the effective Hamiltonian             ... done
Starting the Coulomb interaction                   ... done (   0.0 sec)
Reading the grid                                   ... done
Mapping shells                                     ... done
Starting the XC term evaluation                    ... done (   0.0 sec)
  promolecular density results
     # of electrons  =     13.999856156
     EX              =    -12.943355346
     EC              =     -0.402745452
     EX+EC           =    -13.346100798
Transforming the Hamiltonian                       ... done (   0.0 sec)
Diagonalizing the Hamiltonian                      ... done (   0.0 sec)
Back transforming the eigenvectors                 ... done (   0.0 sec)
Now organizing SCF variables                       ... done
                      ------------------
                      INITIAL GUESS DONE (   0.3 sec)
                      ------------------
--------------
SCF ITERATIONS
--------------
ITER       Energy         Delta-E        Max-DP      RMS-DP      [F,P]   Gradient Norm
               ***  Starting incremental Fock matrix formation  ***
                             ****Resetting KDIIS****
                             ****Turning on KDIIS(Cayley)****
  0   -111.0988323036   0.000000000000 0.05735432  0.00605701  0.3731446   0.286647781
  1   -111.2232767739  -0.124444470290 0.11104385  0.01067293  0.3192796   0.246538825
  2   -111.3977387189  -0.174461945019 0.18401410  0.01574071  0.2249545   0.174096355
  3   -111.5433587747  -0.145620055726 0.33242809  0.02452737  0.1001856   0.080764152
  4   -111.5762309799  -0.032872205242 0.18400246  0.01396581  0.1221750   0.085073212
  5   -111.5857068530  -0.009475873103 0.11108875  0.00799809  0.0919482   0.061534727
  6   -111.5896995778  -0.003992724838 0.06719077  0.00701601  0.0951830   0.062224423
  7   -111.6194895885  -0.029790010615 0.15721349  0.01607439  0.0724855   0.051857366
  8   -111.6812791850  -0.061789596593 0.62704389  0.04893092  0.0884076   0.070477873
  9   -111.6576624549   0.023616730128 0.02132258  0.00246685  0.0833268   0.050299609
 10   -111.6514999719   0.006162482987 0.13435734  0.01347264  0.0833724   0.047234197
 11   -111.6625269935  -0.011027021616 0.58459431  0.03812443  0.0612795   0.028123529
 12   -111.6794453153  -0.016918321778 0.08314346  0.00794308  0.0526343   0.047669676
 13   -111.6910043054  -0.011558990110 0.16772678  0.01525419  0.0276504   0.020097191
 14   -111.7005638588  -0.009559553316 0.29551133  0.02165789  0.0500693   0.022315514
 15   -111.6940855104   0.006478348311 0.07341127  0.00778994  0.0474319   0.037935929
 16   -111.6886399857   0.005445524693 0.35107355  0.02133716  0.0411579   0.026158623
 17   -111.7447170353  -0.056077049563 0.25350471  0.01954107  0.0968229   0.047833538
 18   -111.6903536263   0.054363409041 0.10047332  0.00954164  0.0203578   0.017729442
 19   -111.6940913988  -0.003737772485 0.03865889  0.00251111  0.0106988   0.008362636
               *** Restarting incremental Fock matrix formation ***
                             ****Resetting KDIIS****
 20   -111.6954144656  -0.001323066854 0.01750999  0.00117716  0.0234544   0.013403235
 21   -111.6974685514  -0.002054085803 0.02463699  0.00177765  0.0296935   0.015889278
 22   -111.6971896435   0.000278907876 0.03315237  0.00326341  0.0252713   0.014705190
 23   -111.6963076977   0.000881945823 0.04662407  0.00433629  0.0136799   0.010189592
 24   -111.6964746171  -0.000166919372 0.04597669  0.00427822  0.0109380   0.006759124
 25   -111.6980703926  -0.001595775472 0.02259139  0.00205706  0.0132238   0.006762618
 26   -111.6964832833   0.001587109282 0.04144108  0.00264939  0.0110715   0.006454393
 27   -111.6950838911   0.001399392218 0.07591056  0.00621866  0.0066929   0.005041759
 28   -111.6956875413  -0.000603650265 0.02823994  0.00259890  0.0081690   0.006843446
 29   -111.6961565672  -0.000469025841 0.00160744  0.00017474  0.0054358   0.004645069
 30   -111.6962419179  -0.000085350775 0.03961720  0.00341159  0.0057178   0.005383735
 31   -111.6965590077  -0.000317089776 0.01547029  0.00126164  0.0057950   0.003676886
 32   -111.6968460934  -0.000287085665 0.02154749  0.00143190  0.0103627   0.005469308
 33   -111.6967036174   0.000142475953 0.00229219  0.00023084  0.0040744   0.003554601
 34   -111.6967008916   0.000002725863 0.02521561  0.00230505  0.0042207   0.003516540
 35   -111.6972274269  -0.000526535327 0.01322203  0.00108162  0.0059542   0.003806821
 36   -111.6969002379   0.000327188952 0.02796295  0.00235403  0.0040711   0.003758780
 37   -111.6976608683  -0.000760630365 0.03602333  0.00254655  0.0067734   0.006035625
 38   -111.6967921606   0.000868707674 0.02083876  0.00171231  0.0033712   0.002354070
 39   -111.6970702672  -0.000278106562 0.00877750  0.00058072  0.0060336   0.003344109
               *** Restarting incremental Fock matrix formation ***
                             ****Resetting KDIIS****
 40   -111.6969195091   0.000150758118 0.00300749  0.00025762  0.0034555   0.002501524
 41   -111.6969688691  -0.000049360064 0.00459233  0.00041128  0.0043937   0.002588361
 42   -111.6970044861  -0.000035616998 0.00802134  0.00067029  0.0044620   0.002466425
 43   -111.6970096355  -0.000005149316 0.04112815  0.00322995  0.0028945   0.001851432
 44   -111.6972640734  -0.000254437905 0.03539575  0.00275203  0.0050555   0.002472248
 45   -111.6972426568   0.000021416591 0.01026760  0.00079307  0.0016045   0.000725572
 46   -111.6972666729  -0.000024016106 0.00915044  0.00075854  0.0019497   0.001079949
 47   -111.6972503470   0.000016325826 0.01951923  0.00153879  0.0016077   0.000957825
 48   -111.6972131233   0.000037223738 0.00173296  0.00013237  0.0017556   0.001351418
                          ***Energy convergence achieved***
 49   -111.6972139873  -0.000000864036 0.00706302  0.00057521  0.0018731   0.001422721
 50   -111.6972232294  -0.000009242091 0.00647523  0.00065734  0.0013252   0.000994892
 51   -111.6972751414  -0.000051911929 0.00722087  0.00057021  0.0021236   0.001085894
 52   -111.6972443082   0.000030833172 0.00528491  0.00042275  0.0018064   0.001341020
 53   -111.6972307732   0.000013534984 0.02467415  0.00187756  0.0015832   0.001208044
 54   -111.6972220729   0.000008700297 0.00936377  0.00071445  0.0013202   0.001406979
                          ***Energy convergence achieved***
 55   -111.6972214061   0.000000666784 0.00315503  0.00036152  0.0011857   0.001204242
 56   -111.6972435487  -0.000022142566 0.02463267  0.00199009  0.0028713   0.001527942
 57   -111.6973712482  -0.000127699468 0.01570879  0.00122940  0.0033541   0.003166289
 58   -111.6972480921   0.000123156022 0.01232194  0.00068728  0.0029331   0.002780194
 59   -111.6972614170  -0.000013324887 0.00720032  0.00063231  0.0018181   0.000928818
               *** Restarting incremental Fock matrix formation ***
                             ****Resetting KDIIS****
 60   -111.6972436833   0.000017733684 0.00133946  0.00007635  0.0015986   0.001095178
 61   -111.6972548350  -0.000011151682 0.00190239  0.00013182  0.0020141   0.001169240
 62   -111.6972591481  -0.000004313111 0.00220596  0.00016327  0.0018161   0.001093833
 63   -111.6972640377  -0.000004889573 0.01218909  0.00072506  0.0019259   0.000934733
 64   -111.6972029222   0.000061115471 0.00343816  0.00031274  0.0018698   0.000911305
 65   -111.6971812097   0.000021712496 0.00469706  0.00035952  0.0005390   0.000317406
 66   -111.6971853844  -0.000004174658 0.00213319  0.00017154  0.0004002   0.000278291
 67   -111.6971899062  -0.000004521823 0.00699101  0.00053418  0.0005626   0.000470444
                          ***Energy convergence achieved***
 68   -111.6971891969   0.000000709352 0.00137287  0.00011111  0.0007973   0.000636740
 69   -111.6971915278  -0.000002330974 0.00231917  0.00019492  0.0006204   0.000389062
 70   -111.6971901827   0.000001345132 0.00149847  0.00012950  0.0005221   0.000282105
                          ***Energy convergence achieved***
 71   -111.6971893129   0.000000869782 0.00366794  0.00027625  0.0005762   0.000275919
 72   -111.6972023739  -0.000013060920 0.00377925  0.00022776  0.0020773   0.000830940
 73   -111.6971913633   0.000011010577 0.00086689  0.00007253  0.0004529   0.000405523
 74   -111.6971895923   0.000001770955 0.00125386  0.00009189  0.0002782   0.000293939
                          ***Energy convergence achieved***
 75   -111.6971894188   0.000000173534 0.00095528  0.00007658  0.0001856   0.000179969
 76   -111.6971901499  -0.000000731109 0.00037850  0.00002734  0.0003178   0.000172917
 77   -111.6971897693   0.000000380616 0.00375636  0.00028797  0.0001598   0.000108571
 78   -111.6971908154  -0.000001046134 0.00142979  0.00011006  0.0002961   0.000122370
                          ***Energy convergence achieved***
 79   -111.6971903965   0.000000418951 0.00003298  0.00000278  0.0001956   0.000092608
               *** Restarting incremental Fock matrix formation ***
                             ****Resetting KDIIS****
 80   -111.6971903899   0.000000006534 0.00013251  0.00000942  0.0001958   0.000093174
 81   -111.6971904787  -0.000000088805 0.00015345  0.00001392  0.0002469   0.000105434
 82   -111.6971904846  -0.000000005832 0.00030078  0.00002427  0.0002224   0.000097536
 83   -111.6971904545   0.000000030037 0.00248305  0.00018778  0.0001387   0.000066835
 84   -111.6971907297  -0.000000275206 0.00039110  0.00003218  0.0001217   0.000058810
 85   -111.6971906750   0.000000054759 0.00013348  0.00001136  0.0000286   0.000012767
 86   -111.6971906920  -0.000000017046 0.00009959  0.00001013  0.0000387   0.000022155
 87   -111.6971906787   0.000000013361 0.00024654  0.00002197  0.0000299   0.000017059

            ***Energy convergence in two consecutive cycles with***
                    ***'reasonable' density convergence***
                       *** signaling convergence ***

                    *** KDIIS BlockDiag ( 0.000 sec) ***

               *****************************************************
               *                     SUCCESS                       *
               *           SCF CONVERGED AFTER  88 CYCLES          *
               *****************************************************

Setting up the final grid:

General Integration Accuracy     IntAcc      ...  4.670
Radial Grid Type                 RadialGrid  ... Gauss-Chebyshev
Angular Grid (max. acc.)         AngularGrid ... Lebedev-302
Angular grid pruning method      GridPruning ... 3 (G Style)
Weight generation scheme         WeightScheme... Becke
Basis function cutoff            BFCut       ...    1.0000e-10
Integration weight cutoff        WCut        ...    1.0000e-14
Grids for H and He will be reduced by one unit

# of grid points (after initial pruning)     ...  12424 (   0.0 sec)
# of grid points (after weights+screening)   ...  12412 (   0.0 sec)
nearest neighbour list constructed           ...    0.0 sec
Grid point re-assignment to atoms done       ...    0.0 sec
Grid point division into batches done        ...    0.2 sec
Reduced shell lists constructed in    0.2 sec

Total number of grid points                  ...    12412
Total number of batches                      ...      195
Average number of points per batch           ...       63
Average number of grid points per atom       ...     6206
Average number of shells per batch           ...     6.93 (57.74%)
Average number of basis functions per batch  ...    16.31 (58.24%)
Average number of large shells per batch     ...     5.81 (83.87%)
Average number of large basis fcns per batch ...    13.82 (84.76%)
Maximum spatial batch extension              ...  18.10, 20.64, 18.61 au
Average spatial batch extension              ...   4.25,  4.48,  4.34 au

Final grid set up in    0.3 sec
Final integration                            ... done (   0.1 sec)
Change in XC energy                          ...    -0.000974687
Integrated number of electrons               ...    14.000040066
Previous integrated no of electrons          ...    13.999201721

----------------
TOTAL SCF ENERGY
----------------

Total Energy       :         -111.69816535 Eh           -3039.46160 eV

Components:
Nuclear Repulsion  :            6.07428132 Eh             165.28960 eV
Electronic Energy  :         -117.77244666 Eh           -3204.75120 eV
One Electron Energy:         -165.91343546 Eh           -4514.73410 eV
Two Electron Energy:           48.14098880 Eh            1309.98290 eV

Virial components:
Potential Energy   :         -223.50604550 Eh           -6081.90870 eV
Kinetic Energy     :          111.80788016 Eh            3042.44709 eV
Virial Ratio       :            1.99901872


DFT components:
N(Alpha)           :        7.000020032949 electrons
N(Beta)            :        7.000020032949 electrons
N(Total)           :       14.000040065898 electrons
E(XC)              :       -9.430331242742 Eh       

---------------
SCF CONVERGENCE
---------------

  Last Energy change         ...    2.0251e-08  Tolerance :   1.0000e-06
  Last MAX-Density change    ...    1.2341e-05  Tolerance :   1.0000e-05
  Last RMS-Density change    ...    1.0316e-06  Tolerance :   1.0000e-06
  Last DIIS Error            ...    1.9011e-05  Tolerance :   1.0000e-06

             **** THE GBW FILE WAS UPDATED (Scan_37.gbw) ****
             **** DENSITY FILE WAS UPDATED (Scan_37.scfp.tmp) ****
             **** ENERGY FILE WAS UPDATED (Scan_37.en.tmp) ****
----------------
ORBITAL ENERGIES
----------------

  NO   OCC          E(Eh)            E(eV) 
   0   2.0000     -18.826394      -512.2922 
   1   2.0000     -11.179024      -304.1967 
   2   2.0000      -1.161835       -31.6151 
   3   2.0000      -0.555538       -15.1170 
   4   2.0000       0.024962         0.6792 
   5   2.0000       0.024962         0.6792 
   6   2.0000       0.064340         1.7508 
   7   0.0000      -0.537703       -14.6316 
   8   0.0000      -0.537703       -14.6316 
   9   0.0000      -0.536214       -14.5911 
  10   0.0000       0.208886         5.6841 
  11   0.0000       0.259581         7.0636 
  12   0.0000       0.259581         7.0636 
  13   0.0000       0.308554         8.3962 
  14   0.0000       1.223245        33.2862 
  15   0.0000       1.223263        33.2867 
  16   0.0000       1.240831        33.7647 
  17   0.0000       1.240831        33.7647 
  18   0.0000       1.243665        33.8418 
  19   0.0000       1.348010        36.6812 
  20   0.0000       1.362215        37.0677 
  21   0.0000       1.362215        37.0677 
  22   0.0000       1.467177        39.9239 
  23   0.0000       2.303288        62.6757 
  24   0.0000       2.309925        62.8562 
  25   0.0000       2.309925        62.8562 
  26   0.0000       2.329672        63.3936 
  27   0.0000       2.329673        63.3936 

                    ********************************
                    * MULLIKEN POPULATION ANALYSIS *
                    ********************************

-----------------------
MULLIKEN ATOMIC CHARGES
-----------------------
   0 C :    1.234163
   1 O :   -1.234163
Sum of atomic charges:   -0.0000000

--------------------------------
MULLIKEN REDUCED ORBITAL CHARGES
--------------------------------
  0 C s       :     3.999818  s :     3.999818
      pz      :     0.000205  p :     0.765943
      px      :     0.765532
      py      :     0.000205
      dz2     :     0.000019  d :     0.000077
      dxz     :     0.000000
      dyz     :     0.000000
      dx2y2   :     0.000058
      dxy     :     0.000000
  1 O s       :     4.000174  s :     4.000174
      pz      :     1.999767  p :     5.233760
      px      :     1.234226
      py      :     1.999767
      dz2     :     0.000043  d :     0.000229
      dxz     :     0.000028
      dyz     :     0.000000
      dx2y2   :     0.000130
      dxy     :     0.000028


                     *******************************
                     * LOEWDIN POPULATION ANALYSIS *
                     *******************************

----------------------
LOEWDIN ATOMIC CHARGES
----------------------
   0 C :    1.237232
   1 O :   -1.237232

-------------------------------
LOEWDIN REDUCED ORBITAL CHARGES
-------------------------------
  0 C s       :     3.999894  s :     3.999894
      pz      :     0.000200  p :     0.762797
      px      :     0.762396
      py      :     0.000200
      dz2     :     0.000019  d :     0.000077
      dxz     :     0.000000
      dyz     :     0.000000
      dx2y2   :     0.000058
      dxy     :     0.000000
  1 O s       :     4.000164  s :     4.000164
      pz      :     1.999772  p :     5.236835
      px      :     1.237292
      py      :     1.999772
      dz2     :     0.000044  d :     0.000233
      dxz     :     0.000028
      dyz     :     0.000000
      dx2y2   :     0.000133
      dxy     :     0.000028


                      *****************************
                      * MAYER POPULATION ANALYSIS *
                      *****************************

  NA   - Mulliken gross atomic population
  ZA   - Total nuclear charge
  QA   - Mulliken gross atomic charge
  VA   - Mayer's total valence
  BVA  - Mayer's bonded valence
  FA   - Mayer's free valence

  ATOM       NA         ZA         QA         VA         BVA        FA
  0 C      4.7658     6.0000     1.2342     0.9460     0.9460    -0.0000
  1 O      9.2342     8.0000    -1.2342     0.9460     0.9460    -0.0000

  Mayer bond orders larger than 0.1
B(  0-C ,  1-O ) :   0.9460 

-------
TIMINGS
-------

Total SCF time: 0 days 0 hours 0 min 53 sec 

Total time                  ....      53.683 sec
Sum of individual times     ....      51.551 sec  ( 96.0%)

Fock matrix formation       ....      50.801 sec  ( 94.6%)
  XC integration            ....       8.734 sec  ( 17.2% of F)
    Basis function eval.    ....       1.042 sec  ( 11.9% of XC)
    Density eval.           ....       0.336 sec  (  3.8% of XC)
    XC-Functional eval.     ....       1.610 sec  ( 18.4% of XC)
    XC-Potential eval.      ....       0.100 sec  (  1.1% of XC)
Diagonalization             ....       0.201 sec  (  0.4%)
Density matrix formation    ....       0.001 sec  (  0.0%)
Population analysis         ....       0.018 sec  (  0.0%)
Initial guess               ....       0.187 sec  (  0.3%)
Orbital Transformation      ....       0.000 sec  (  0.0%)
Orbital Orthonormalization  ....       0.000 sec  (  0.0%)
DIIS solution               ....       0.000 sec  (  0.0%)
Grid generation             ....       0.343 sec  (  0.6%)


-------------------------------------------------------------------------------
                          DFT DISPERSION CORRECTION                            
                                                                               
                              DFTD3 V3.1  Rev 1                                
                              USING zero damping                               
-------------------------------------------------------------------------------
The omegaB97X-D3 functional is recognized. Fit by Chai et al.
Active option DFTDOPT                   ...         3   

molecular C6(AA) [au] = 117.463322 


            DFT-D V3
 parameters
 s6 scaling factor         :     1.0000 
 rs6 scaling factor        :     1.2810 
 s8 scaling factor         :     1.0000 
 rs8 scaling factor        :     1.0940 
 Damping factor alpha6     :    14.0000 
 Damping factor alpha8     :    16.0000 
 ad hoc parameters k1-k3   :    16.0000     1.3333    -4.0000 

 Edisp/kcal,au: -0.082598123681  -0.000131628475 
 E6   /kcal   :  -0.056438730 
 E8   /kcal   :  -0.026159394 
 % E8         :  31.670687658 

-------------------------   ----------------
Dispersion correction           -0.000131628
-------------------------   ----------------


-------------------------   --------------------
FINAL SINGLE POINT ENERGY      -111.698296974131
-------------------------   --------------------


                            ***************************************
                            *     ORCA property calculations      *
                            ***************************************

                                    ---------------------
                                    Active property flags
                                    ---------------------
   (+) Dipole Moment


------------------------------------------------------------------------------
                       ORCA ELECTRIC PROPERTIES CALCULATION
------------------------------------------------------------------------------

Dipole Moment Calculation                       ... on
Quadrupole Moment Calculation                   ... off
Polarizability Calculation                      ... off
GBWName                                         ... Scan_37.gbw
Electron density file                           ... Scan_37.scfp.tmp

-------------
DIPOLE MOMENT
-------------
                                X             Y             Z
Electronic contribution:     -9.59763      -0.00000       0.00000
Nuclear contribution   :      0.02652      -0.00000       0.00000
                        -----------------------------------------
Total Dipole Moment    :     -9.57111      -0.00000       0.00000
                        -----------------------------------------
Magnitude (a.u.)       :      9.57111
Magnitude (Debye)      :     24.32782


Timings for individual modules:

Sum of individual times         ...       54.367 sec (=   0.906 min)
GTO integral calculation        ...        0.661 sec (=   0.011 min)   1.2 %
SCF iterations                  ...       53.706 sec (=   0.895 min)  98.8 %
                             ****ORCA TERMINATED NORMALLY****
TOTAL RUN TIME: 0 days 0 hours 0 minutes 55 seconds 402 msec
