
                                 *****************
                                 * O   R   C   A *
                                 *****************

           --- An Ab Initio, DFT and Semiempirical electronic structure package ---

                  #######################################################
                  #                        -***-                        #
                  #  Department of molecular theory and spectroscopy    #
                  #              Directorship: Frank Neese              #
                  # Max Planck Institute for Chemical Energy Conversion #
                  #                  D-45470 Muelheim/Ruhr              #
                  #                       Germany                       #
                  #                                                     #
                  #                  All rights reserved                #
                  #                        -***-                        #
                  #######################################################


                         Program Version 4.0.0.2 - RELEASE -


 With contributions from (in alphabetic order):
   Daniel Aravena         : Magnetic Properties
   Michael Atanasov       : Ab Initio Ligand Field Theory
   Ute Becker             : Parallelization
   Martin Brehm           : Molecular dynamics
   Dmytro Bykov           : SCF Hessian
   Vijay G. Chilkuri      : MRCI spin determinant printing
   Dipayan Datta          : RHF DLPNO-CCSD density
   Achintya Kumar Dutta   : EOM-CC, STEOM-CC
   Dmitry Ganyushin       : Spin-Orbit,Spin-Spin,Magnetic field MRCI
   Yang Guo               : DLPNO-NEVPT2, CIM, IAO-localization
   Andreas Hansen         : Spin unrestricted coupled pair/coupled cluster methods
   Lee Huntington         : MR-EOM, pCC
   Robert Izsak           : Overlap fitted RIJCOSX, COSX-SCS-MP3, EOM
   Christian Kollmar      : KDIIS, OOCD, Brueckner-CCSD(T), CCSD density
   Simone Kossmann        : Meta GGA functionals, TD-DFT gradient, OOMP2, MP2 Hessian
   Martin Krupicka        : AUTO-CI
   Dagmar Lenk            : GEPOL surface
   Dimitrios Liakos       : Extrapolation schemes; parallel MDCI
   Dimitrios Manganas     : ROCIS; embedding schemes
   Dimitrios Pantazis     : SARC Basis sets
   Taras Petrenko         : DFT Hessian,TD-DFT gradient, ASA, ECA, R-Raman, ABS, FL, XAS/XES, NRVS
   Peter Pinski           : DLPNO-MP2
   Christoph Reimann      : Effective Core Potentials
   Marius Retegan         : Local ZFS, SOC
   Christoph Riplinger    : Optimizer, TS searches, QM/MM, DLPNO-CCSD(T), (RO)-DLPNO pert. Triples
   Tobias Risthaus        : Range-separated hybrids, TD-DFT gradient, RPA, STAB
   Michael Roemelt        : Restricted open shell CIS
   Masaaki Saitow         : Open-shell DLPNO
   Barbara Sandhoefer     : DKH picture change effects
   Kantharuban Sivalingam : CASSCF convergence, NEVPT2, FIC-MRCI
   Georgi Stoychev        : AutoAux
   Boris Wezisla          : Elementary symmetry handling
   Frank Wennmohs         : Technical directorship


 We gratefully acknowledge several colleagues who have allowed us to
 interface, adapt or use parts of their codes:
   Stefan Grimme, W. Hujo, H. Kruse,             : VdW corrections, initial TS optimization,
                  C. Bannwarth                     DFT functionals, gCP, sTDA/sTD-DF
   Ed Valeev                                     : LibInt (2-el integral package), F12 methods
   Garnet Chan, S. Sharma, J. Yang, R. Olivares  : DMRG
   Ulf Ekstrom                                   : XCFun DFT Library
   Mihaly Kallay                                 : mrcc  (arbitrary order and MRCC methods)
   Jiri Pittner, Ondrej Demel                    : Mk-CCSD
   Frank Weinhold                                : gennbo (NPA and NBO analysis)
   Christopher J. Cramer and Donald G. Truhlar   : smd solvation model


 Your calculation uses the libint2 library for the computation of 2-el integrals
 For citations please refer to: http://libint.valeyev.net

 This ORCA versions uses:
   CBLAS   interface :  Fast vector & matrix operations
   LAPACKE interface :  Fast linear algebra routines
   SCALAPACK package :  Parallel linear algebra routines


Your calculation utilizes the atom-pairwise dispersion correction
with the zero-damping scheme (D30)
Cite in your paper:
S.Grimme, J.Antony, S.Ehrlich and H.Krieg, J.Chem.Phys., 132, (2010), 154104 
   

XCFun DFT library Copyright 2009-2010 Ulf Ekstrom and contributors.
See http://admol.org/xcfun for more information. This is free soft-
ware; see the source code for copying conditions. There is ABSOLUTELY
NO WARRANTY; not even for MERCHANTABILITY or FITNESS FOR A PARTICULAR
PURPOSE. For details see the documentation. Scientific users of this 
library should cite U. Ekstrom, L. Visscher, R. Bast, A. J. Thorvald-
sen and K. Ruud; J.Chem.Theor.Comp. 2010, DOI: 10.1021/ct100117s
XCFun Version 0.99 
Your calculation utilizes the basis: 6-31G(d)
   H-He, Li-Ne : W. J. Hehre, R. Ditchfield and J.A. Pople, J. Chem. Phys. 56, 2257 (1972).
                 Note: He and Ne are unpublished basis sets taken from the Gaussian program.
                 Note: Li and B from J. D. Dill and J. A. Pople, J. Chem. Phys. 62, 2921 (1975).
   Na - Ar     : M. M. Francl, W. J. Pietro, W. J. Hehre, J. S. Binkley, M. S. Gordon, 
                 D. J. DeFrees and J. A. Pople, J. Chem. Phys. 77, 3654 (1982).
   K - Zn      : V. A. Rassolov, J. A. Pople, M. A. Ratner, and T. L. Windus, J. Chem. Phys. 109, 1223 (1998).

================================================================================
                                        WARNINGS
                       Please study these warnings very carefully!
================================================================================

Warning: TCutStore was < 0. Adjusted to Thresh (uncritical)

INFO   : the flag for use of LIBINT has been found!

================================================================================
                                       INPUT FILE
================================================================================
NAME = initial38.inp
|  1> ! WB97X-D3 6-31G(d) VerySlowConv
|  2> ! KDIIS NOSOSCF
|  3> %base "Scan_38"
|  4> 
|  5> %scf
|  6> maxiter 999
|  7> end
|  8> 
|  9> * xyz 0 1
| 10> C         -2.271486918673    1.613610000000   -0.000000000000
| 11> O          2.012446918672    1.613610000000   -0.000000000000
| 12> **                         ****END OF INPUT****
================================================================================

                       ****************************
                       * Single Point Calculation *
                       ****************************

---------------------------------
CARTESIAN COORDINATES (ANGSTROEM)
---------------------------------
  C     -2.271487    1.613610   -0.000000
  O      2.012447    1.613610   -0.000000

----------------------------
CARTESIAN COORDINATES (A.U.)
----------------------------
  NO LB      ZA    FRAG     MASS         X           Y           Z
   0 C     6.0000    0    12.011   -4.292488    3.049281   -0.000000
   1 O     8.0000    0    15.999    3.802974    3.049281   -0.000000

--------------------------------
INTERNAL COORDINATES (ANGSTROEM)
--------------------------------
 C      0   0   0     0.000000000000     0.00000000     0.00000000
 O      1   0   0     4.283933837345     0.00000000     0.00000000

---------------------------
INTERNAL COORDINATES (A.U.)
---------------------------
 C      0   0   0     0.000000000000     0.00000000     0.00000000
 O      1   0   0     8.095461728420     0.00000000     0.00000000

---------------------
BASIS SET INFORMATION
---------------------
There are 2 groups of distinct atoms

 Group   1 Type C   : 10s4p1d contracted to 3s2p1d pattern {631/31/1}
 Group   2 Type O   : 10s4p1d contracted to 3s2p1d pattern {631/31/1}

Atom   0C    basis set group =>   1
Atom   1O    basis set group =>   2
------------------------------------------------------------------------------
                           ORCA GTO INTEGRAL CALCULATION
------------------------------------------------------------------------------

                         BASIS SET STATISTICS AND STARTUP INFO

 # of primitive gaussian shells          ...   30
 # of primitive gaussian functions       ...   54
 # of contracted shells                  ...   12
 # of contracted basis functions         ...   28
 Highest angular momentum                ...    2
 Maximum contraction depth               ...    6
 Integral package used                   ... LIBINT
 Integral threshhold            Thresh   ...  1.000e-10
 Primitive cut-off              TCut     ...  1.000e-11


------------------------------ INTEGRAL EVALUATION ----------------------------


 * One electron integrals 
 Pre-screening matrix                    ... done
 Shell pair data                         ... done (   0.000 sec)

-------------------------------------------------------------------------------
                                 ORCA SCF
-------------------------------------------------------------------------------

------------
SCF SETTINGS
------------
Hamiltonian:
 Density Functional     Method          .... DFT(GTOs)
 Exchange Functional    Exchange        .... WB97X-D3
 Correlation Functional Correlation     .... WB97X-D3
 Gradients option       PostSCFGGA      .... off
 Hybrid DFT is turned on
   Fraction HF Exchange ScalHFX         ....  0.195728
   Scaling of DF-GGA-X  ScalDFX         ....  0.000000
   Scaling of DF-GGA-C  ScalDFC         ....  1.000000
   Scaling of DF-LDA-C  ScalLDAC        ....  1.000000
   Perturbative correction              ....  0.000000
 Long-range corrected/Screened/Range-Separated Hybrid DFT is turned on
   Amount of maximum screened exact exchange              ....  0.804272
   Range separation parameter mu (erf(mu*r12)/r12)        ....  0.250000


General Settings:
 Integral files         IntName         .... Scan_38
 Hartree-Fock type      HFTyp           .... RHF
 Total Charge           Charge          ....    0
 Multiplicity           Mult            ....    1
 Number of Electrons    NEL             ....   14
 Basis Dimension        Dim             ....   28
 Nuclear Repulsion      ENuc            ....      5.9292479676 Eh

Convergence Acceleration:
 DIIS                   CNVDIIS         .... on
   Start iteration      DIISMaxIt       ....     0
   Startup error        DIISStart       ....  0.200000
   # of expansion vecs  DIISMaxEq       ....     5
   Bias factor          DIISBfac        ....   1.050
   Max. coefficient     DIISMaxC        ....  10.000
 Newton-Raphson         CNVNR           .... off
 SOSCF                  CNVSOSCF        .... off
 Level Shifting         CNVShift        .... off
 Zerner damping         CNVZerner       .... off
 Static damping         CNVDamp         .... off
 Fernandez-Rico         CNVRico         .... off

SCF Procedure:
 Maximum # iterations   MaxIter         ....   999
 SCF integral mode      SCFMode         .... Direct
   Integral package                     .... LIBINT
 Reset frequeny         DirectResetFreq ....    20
 Integral Threshold     Thresh          ....  1.000e-10 Eh
 Primitive CutOff       TCut            ....  1.000e-11 Eh

Convergence Tolerance:
 Convergence Check Mode ConvCheckMode   .... All-Criteria
 Convergence forced     ConvForced      .... 0
 Energy Change          TolE            ....  1.000e-06 Eh
 Max Density Change     TolMaxP         ....  1.000e-05
 RMS Density Change     TolRMSP         ....  1.000e-06
 DIIS Error             TolErr          ....  1.000e-06


Diagonalization of the overlap matrix:
Smallest eigenvalue                        ... 1.869e-01
Time for diagonalization                   ...    0.001 sec
Threshold for overlap eigenvalues          ... 1.000e-08
Number of eigenvalues below threshold      ... 0
Time for construction of square roots      ...    0.008 sec
Total time needed                          ...    0.009 sec

-------------------
DFT GRID GENERATION
-------------------

General Integration Accuracy     IntAcc      ...  4.340
Radial Grid Type                 RadialGrid  ... Gauss-Chebyshev
Angular Grid (max. acc.)         AngularGrid ... Lebedev-110
Angular grid pruning method      GridPruning ... 3 (G Style)
Weight generation scheme         WeightScheme... Becke
Basis function cutoff            BFCut       ...    1.0000e-10
Integration weight cutoff        WCut        ...    1.0000e-14
Grids for H and He will be reduced by one unit

# of grid points (after initial pruning)     ...   3372 (   0.0 sec)
# of grid points (after weights+screening)   ...   3362 (   0.0 sec)
nearest neighbour list constructed           ...    0.0 sec
Grid point re-assignment to atoms done       ...    0.0 sec
Grid point division into batches done        ...    0.0 sec
Reduced shell lists constructed in    0.0 sec

Total number of grid points                  ...     3362
Total number of batches                      ...       54
Average number of points per batch           ...       62
Average number of grid points per atom       ...     1681
Average number of shells per batch           ...     8.00 (66.67%)
Average number of basis functions per batch  ...    18.76 (67.01%)
Average number of large shells per batch     ...     6.35 (79.32%)
Average number of large basis fcns per batch ...    15.18 (80.91%)
Maximum spatial batch extension              ...  20.26, 27.48, 31.36 au
Average spatial batch extension              ...   6.54,  6.77,  7.49 au

Time for grid setup =    0.022 sec

------------------------------
INITIAL GUESS: MODEL POTENTIAL
------------------------------
Loading Hartree-Fock densities                     ... done
Calculating cut-offs                               ... done
Setting up the integral package                    ... done
Initializing the effective Hamiltonian             ... done
Starting the Coulomb interaction                   ... done (   0.0 sec)
Reading the grid                                   ... done
Mapping shells                                     ... done
Starting the XC term evaluation                    ... done (   0.0 sec)
  promolecular density results
     # of electrons  =     13.999936018
     EX              =    -12.943391416
     EC              =     -0.402741309
     EX+EC           =    -13.346132725
Transforming the Hamiltonian                       ... done (   0.0 sec)
Diagonalizing the Hamiltonian                      ... done (   0.0 sec)
Back transforming the eigenvectors                 ... done (   0.0 sec)
Now organizing SCF variables                       ... done
                      ------------------
                      INITIAL GUESS DONE (   0.3 sec)
                      ------------------
--------------
SCF ITERATIONS
--------------
ITER       Energy         Delta-E        Max-DP      RMS-DP      [F,P]   Gradient Norm
               ***  Starting incremental Fock matrix formation  ***
                             ****Resetting KDIIS****
                             ****Turning on KDIIS(Cayley)****
  0   -111.0861873771   0.000000000000 0.05605209  0.00588644  0.3744196   0.286576070
  1   -111.2082574772  -0.122070100093 0.10304959  0.01074968  0.3219400   0.246871054
  2   -111.3876446331  -0.179387155957 0.17369873  0.01054491  0.2214267   0.172404469
  3   -111.4801683953  -0.092523762192 0.29068220  0.01583080  0.1703718   0.128946803
  4   -111.5721877666  -0.092019371234 0.08480243  0.00784963  0.1171695   0.068041178
  5   -111.5468619944   0.025325772176 0.05687156  0.00548938  0.1519406   0.109259803
  6   -111.5450092198   0.001852774585 0.25231824  0.02224725  0.2087756   0.138999914
  7   -111.7880349731  -0.243025753306 0.13371639  0.01189868  0.2949803   0.115039329
  8   -111.8799477637  -0.091912790635 0.09310875  0.00907247  0.3286677   0.127783404
  9   -111.8630950575   0.016852706233 0.08057073  0.00945119  0.3217308   0.124883361
 10   -111.8674899657  -0.004394908237 0.03052215  0.00239064  0.3265758   0.126912186
 11   -111.8782254694  -0.010735503705 0.04980151  0.00617534  0.3291461   0.128624591
 12   -111.8559942810   0.022231188420 0.42739348  0.03402119  0.3218045   0.124560256
 13   -111.9220409748  -0.066046693765 0.20947275  0.02171752  0.2834078   0.128822749
 14   -112.0243646393  -0.102323664549 0.40278435  0.03182611  0.2762414   0.123329957
 15   -112.1498391304  -0.125474491103 0.31607570  0.03330518  0.3255884   0.130085027
 16   -111.9106341454   0.239204985083 0.08514503  0.00991370  0.2466411   0.111423676
 17   -112.0300632887  -0.119429143360 0.15797938  0.02097810  0.2819857   0.114649854
 18   -112.2618072896  -0.231744000880 0.16830167  0.01415179  0.3273234   0.128271397
 19   -112.4310903712  -0.169283081589 0.09708716  0.01043343  0.1881191   0.091887138
               *** Restarting incremental Fock matrix formation ***
                             ****Resetting KDIIS****
 20   -112.2606113780   0.170478993187 0.01857792  0.00235764  0.2378489   0.112060289
 21   -112.2982070650  -0.037595686961 0.03319751  0.00420249  0.2324394   0.108826719
 22   -112.3630568328  -0.064849767830 0.11804841  0.01228924  0.2170351   0.101441476
 23   -112.5214624371  -0.158405604297 0.34040592  0.03112590  0.1401659   0.069076241
 24   -112.5690000312  -0.047537594077 0.04869060  0.00567872  0.1411240   0.092826334
 25   -112.5940109433  -0.025010912137 0.12644801  0.01186656  0.1119316   0.065495371
 26   -112.6137758029  -0.019764859591 0.15925902  0.01262706  0.0410129   0.024537105
 27   -112.6137653178   0.000010485141 0.19332061  0.01488379  0.0846751   0.049815822
 28   -112.6270074829  -0.013242165151 0.12688728  0.01173539  0.0759043   0.030639130
 29   -112.6625877411  -0.035580258207 0.11221704  0.01046417  0.0410030   0.023171903
 30   -112.6923497888  -0.029762047687 0.09109794  0.00776268  0.0209773   0.012218694
 31   -112.6992856323  -0.006935843518 0.02154848  0.00159548  0.0021962   0.001974593
 32   -112.6993452552  -0.000059622874 0.00398192  0.00037874  0.0029295   0.001990885
 33   -112.6994279709  -0.000082715700 0.01479425  0.00090441  0.0014673   0.001095591
 34   -112.6995111447  -0.000083173785 0.00703622  0.00040792  0.0004791   0.000407834
 35   -112.6995174851  -0.000006340466 0.00143046  0.00008520  0.0001231   0.000102794
                          ***Energy convergence achieved***
 36   -112.6995176013  -0.000000116179 0.00078216  0.00004463  0.0000665   0.000049767
 37   -112.6995176799  -0.000000078581 0.00011115  0.00000651  0.0000130   0.000009904
                           ***RMSP convergence achieved***
                           ***MAXP convergence achieved***
                    *** KDIIS BlockDiag ( 0.000 sec) ***

               *****************************************************
               *                     SUCCESS                       *
               *           SCF CONVERGED AFTER  38 CYCLES          *
               *****************************************************

Setting up the final grid:

General Integration Accuracy     IntAcc      ...  4.670
Radial Grid Type                 RadialGrid  ... Gauss-Chebyshev
Angular Grid (max. acc.)         AngularGrid ... Lebedev-302
Angular grid pruning method      GridPruning ... 3 (G Style)
Weight generation scheme         WeightScheme... Becke
Basis function cutoff            BFCut       ...    1.0000e-10
Integration weight cutoff        WCut        ...    1.0000e-14
Grids for H and He will be reduced by one unit

# of grid points (after initial pruning)     ...  12424 (   0.0 sec)
# of grid points (after weights+screening)   ...  12413 (   0.0 sec)
nearest neighbour list constructed           ...    0.0 sec
Grid point re-assignment to atoms done       ...    0.0 sec
Grid point division into batches done        ...    0.1 sec
Reduced shell lists constructed in    0.1 sec

Total number of grid points                  ...    12413
Total number of batches                      ...      195
Average number of points per batch           ...       63
Average number of grid points per atom       ...     6206
Average number of shells per batch           ...     6.89 (57.40%)
Average number of basis functions per batch  ...    16.16 (57.73%)
Average number of large shells per batch     ...     5.71 (82.96%)
Average number of large basis fcns per batch ...    13.61 (84.22%)
Maximum spatial batch extension              ...  18.49, 20.64, 18.61 au
Average spatial batch extension              ...   4.30,  4.45,  4.34 au

Final grid set up in    0.1 sec
Final integration                            ... done (   0.1 sec)
Change in XC energy                          ...     0.000413827
Integrated number of electrons               ...    14.000037753
Previous integrated no of electrons          ...    13.999325678

----------------
TOTAL SCF ENERGY
----------------

Total Energy       :         -112.69910386 Eh           -3066.69852 eV

Components:
Nuclear Repulsion  :            5.92924797 Eh             161.34304 eV
Electronic Energy  :         -118.62835182 Eh           -3228.04156 eV
One Electron Energy:         -165.42128747 Eh           -4501.34208 eV
Two Electron Energy:           46.79293565 Eh            1273.30051 eV

Virial components:
Potential Energy   :         -224.75742127 Eh           -6115.96036 eV
Kinetic Energy     :          112.05831742 Eh            3049.26184 eV
Virial Ratio       :            2.00571833


DFT components:
N(Alpha)           :        7.000018876548 electrons
N(Beta)            :        7.000018876548 electrons
N(Total)           :       14.000037753096 electrons
E(XC)              :       -9.522358490455 Eh       

---------------
SCF CONVERGENCE
---------------

  Last Energy change         ...   -2.3534e-09  Tolerance :   1.0000e-06
  Last MAX-Density change    ...    5.1753e-06  Tolerance :   1.0000e-05
  Last RMS-Density change    ...    3.2602e-07  Tolerance :   1.0000e-06
  Last DIIS Error            ...    1.1080e-06  Tolerance :   1.0000e-06

             **** THE GBW FILE WAS UPDATED (Scan_38.gbw) ****
             **** DENSITY FILE WAS UPDATED (Scan_38.scfp.tmp) ****
             **** ENERGY FILE WAS UPDATED (Scan_38.en.tmp) ****
----------------
ORBITAL ENERGIES
----------------

  NO   OCC          E(Eh)            E(eV) 
   0   2.0000     -19.378394      -527.3129 
   1   2.0000     -10.438166      -284.0369 
   2   2.0000      -1.034160       -28.1409 
   3   2.0000      -0.644740       -17.5443 
   4   2.0000      -0.441172       -12.0049 
   5   2.0000      -0.441172       -12.0049 
   6   2.0000      -0.299684        -8.1548 
   7   0.0000      -0.152145        -4.1401 
   8   0.0000      -0.040326        -1.0973 
   9   0.0000      -0.040326        -1.0973 
  10   0.0000       0.637988        17.3605 
  11   0.0000       0.645775        17.5724 
  12   0.0000       0.645775        17.5724 
  13   0.0000       0.690665        18.7940 
  14   0.0000       0.966633        26.3034 
  15   0.0000       0.966633        26.3034 
  16   0.0000       0.969162        26.3722 
  17   0.0000       1.066778        29.0285 
  18   0.0000       1.752826        47.6968 
  19   0.0000       1.753647        47.7192 
  20   0.0000       1.773072        48.2477 
  21   0.0000       1.773072        48.2477 
  22   0.0000       1.793317        48.7986 
  23   0.0000       1.843166        50.1551 
  24   0.0000       1.846022        50.2328 
  25   0.0000       1.846022        50.2328 
  26   0.0000       1.889322        51.4111 
  27   0.0000       1.889341        51.4116 

                    ********************************
                    * MULLIKEN POPULATION ANALYSIS *
                    ********************************

-----------------------
MULLIKEN ATOMIC CHARGES
-----------------------
   0 C :    0.027645
   1 O :   -0.027645
Sum of atomic charges:    0.0000000

--------------------------------
MULLIKEN REDUCED ORBITAL CHARGES
--------------------------------
  0 C s       :     3.999810  s :     3.999810
      pz      :     0.000003  p :     1.972436
      px      :     1.972431
      py      :     0.000003
      dz2     :     0.000027  d :     0.000108
      dxz     :     0.000000
      dyz     :     0.000000
      dx2y2   :     0.000081
      dxy     :     0.000000
  1 O s       :     3.999788  s :     3.999788
      pz      :     1.999997  p :     4.027625
      px      :     0.027630
      py      :     1.999997
      dz2     :     0.000058  d :     0.000232
      dxz     :     0.000000
      dyz     :     0.000000
      dx2y2   :     0.000174
      dxy     :     0.000000


                     *******************************
                     * LOEWDIN POPULATION ANALYSIS *
                     *******************************

----------------------
LOEWDIN ATOMIC CHARGES
----------------------
   0 C :    0.027633
   1 O :   -0.027633

-------------------------------
LOEWDIN REDUCED ORBITAL CHARGES
-------------------------------
  0 C s       :     3.999808  s :     3.999808
      pz      :     0.000002  p :     1.972451
      px      :     1.972446
      py      :     0.000002
      dz2     :     0.000027  d :     0.000108
      dxz     :     0.000000
      dyz     :     0.000000
      dx2y2   :     0.000081
      dxy     :     0.000000
  1 O s       :     3.999782  s :     3.999782
      pz      :     1.999997  p :     4.027619
      px      :     0.027624
      py      :     1.999997
      dz2     :     0.000058  d :     0.000232
      dxz     :     0.000000
      dyz     :     0.000000
      dx2y2   :     0.000174
      dxy     :     0.000000


                      *****************************
                      * MAYER POPULATION ANALYSIS *
                      *****************************

  NA   - Mulliken gross atomic population
  ZA   - Total nuclear charge
  QA   - Mulliken gross atomic charge
  VA   - Mayer's total valence
  BVA  - Mayer's bonded valence
  FA   - Mayer's free valence

  ATOM       NA         ZA         QA         VA         BVA        FA
  0 C      5.9724     6.0000     0.0276     0.0546     0.0546    -0.0000
  1 O      8.0276     8.0000    -0.0276     0.0546     0.0546     0.0000

  Mayer bond orders larger than 0.1


-------
TIMINGS
-------

Total SCF time: 0 days 0 hours 0 min 24 sec 

Total time                  ....      24.989 sec
Sum of individual times     ....      24.068 sec  ( 96.3%)

Fock matrix formation       ....      23.357 sec  ( 93.5%)
  XC integration            ....       4.437 sec  ( 19.0% of F)
    Basis function eval.    ....       0.396 sec  (  8.9% of XC)
    Density eval.           ....       0.230 sec  (  5.2% of XC)
    XC-Functional eval.     ....       0.789 sec  ( 17.8% of XC)
    XC-Potential eval.      ....       0.046 sec  (  1.0% of XC)
Diagonalization             ....       0.244 sec  (  1.0%)
Density matrix formation    ....       0.000 sec  (  0.0%)
Population analysis         ....       0.021 sec  (  0.1%)
Initial guess               ....       0.282 sec  (  1.1%)
Orbital Transformation      ....       0.000 sec  (  0.0%)
Orbital Orthonormalization  ....       0.000 sec  (  0.0%)
DIIS solution               ....       0.000 sec  (  0.0%)
Grid generation             ....       0.164 sec  (  0.7%)


-------------------------------------------------------------------------------
                          DFT DISPERSION CORRECTION                            
                                                                               
                              DFTD3 V3.1  Rev 1                                
                              USING zero damping                               
-------------------------------------------------------------------------------
The omegaB97X-D3 functional is recognized. Fit by Chai et al.
Active option DFTDOPT                   ...         3   

molecular C6(AA) [au] = 117.463375 


            DFT-D V3
 parameters
 s6 scaling factor         :     1.0000 
 rs6 scaling factor        :     1.2810 
 s8 scaling factor         :     1.0000 
 rs8 scaling factor        :     1.0940 
 Damping factor alpha6     :    14.0000 
 Damping factor alpha8     :    16.0000 
 ad hoc parameters k1-k3   :    16.0000     1.3333    -4.0000 

 Edisp/kcal,au: -0.073018740644  -0.000116362758 
 E6   /kcal   :  -0.051386184 
 E8   /kcal   :  -0.021632557 
 % E8         :  29.626034069 

-------------------------   ----------------
Dispersion correction           -0.000116363
-------------------------   ----------------


-------------------------   --------------------
FINAL SINGLE POINT ENERGY      -112.699220217817
-------------------------   --------------------


                            ***************************************
                            *     ORCA property calculations      *
                            ***************************************

                                    ---------------------
                                    Active property flags
                                    ---------------------
   (+) Dipole Moment


------------------------------------------------------------------------------
                       ORCA ELECTRIC PROPERTIES CALCULATION
------------------------------------------------------------------------------

Dipole Moment Calculation                       ... on
Quadrupole Moment Calculation                   ... off
Polarizability Calculation                      ... off
GBWName                                         ... Scan_38.gbw
Electron density file                           ... Scan_38.scfp.tmp

-------------
DIPOLE MOMENT
-------------
                                X             Y             Z
Electronic contribution:     -0.25746      -0.00000      -0.00000
Nuclear contribution   :      0.02717      -0.00000       0.00000
                        -----------------------------------------
Total Dipole Moment    :     -0.23029      -0.00000      -0.00000
                        -----------------------------------------
Magnitude (a.u.)       :      0.23029
Magnitude (Debye)      :      0.58535


Timings for individual modules:

Sum of individual times         ...       25.711 sec (=   0.429 min)
GTO integral calculation        ...        0.684 sec (=   0.011 min)   2.7 %
SCF iterations                  ...       25.026 sec (=   0.417 min)  97.3 %
                             ****ORCA TERMINATED NORMALLY****
TOTAL RUN TIME: 0 days 0 hours 0 minutes 26 seconds 905 msec
