
                                 *****************
                                 * O   R   C   A *
                                 *****************

           --- An Ab Initio, DFT and Semiempirical electronic structure package ---

                  #######################################################
                  #                        -***-                        #
                  #  Department of molecular theory and spectroscopy    #
                  #              Directorship: Frank Neese              #
                  # Max Planck Institute for Chemical Energy Conversion #
                  #                  D-45470 Muelheim/Ruhr              #
                  #                       Germany                       #
                  #                                                     #
                  #                  All rights reserved                #
                  #                        -***-                        #
                  #######################################################


                         Program Version 4.0.0.2 - RELEASE -


 With contributions from (in alphabetic order):
   Daniel Aravena         : Magnetic Properties
   Michael Atanasov       : Ab Initio Ligand Field Theory
   Ute Becker             : Parallelization
   Martin Brehm           : Molecular dynamics
   Dmytro Bykov           : SCF Hessian
   Vijay G. Chilkuri      : MRCI spin determinant printing
   Dipayan Datta          : RHF DLPNO-CCSD density
   Achintya Kumar Dutta   : EOM-CC, STEOM-CC
   Dmitry Ganyushin       : Spin-Orbit,Spin-Spin,Magnetic field MRCI
   Yang Guo               : DLPNO-NEVPT2, CIM, IAO-localization
   Andreas Hansen         : Spin unrestricted coupled pair/coupled cluster methods
   Lee Huntington         : MR-EOM, pCC
   Robert Izsak           : Overlap fitted RIJCOSX, COSX-SCS-MP3, EOM
   Christian Kollmar      : KDIIS, OOCD, Brueckner-CCSD(T), CCSD density
   Simone Kossmann        : Meta GGA functionals, TD-DFT gradient, OOMP2, MP2 Hessian
   Martin Krupicka        : AUTO-CI
   Dagmar Lenk            : GEPOL surface
   Dimitrios Liakos       : Extrapolation schemes; parallel MDCI
   Dimitrios Manganas     : ROCIS; embedding schemes
   Dimitrios Pantazis     : SARC Basis sets
   Taras Petrenko         : DFT Hessian,TD-DFT gradient, ASA, ECA, R-Raman, ABS, FL, XAS/XES, NRVS
   Peter Pinski           : DLPNO-MP2
   Christoph Reimann      : Effective Core Potentials
   Marius Retegan         : Local ZFS, SOC
   Christoph Riplinger    : Optimizer, TS searches, QM/MM, DLPNO-CCSD(T), (RO)-DLPNO pert. Triples
   Tobias Risthaus        : Range-separated hybrids, TD-DFT gradient, RPA, STAB
   Michael Roemelt        : Restricted open shell CIS
   Masaaki Saitow         : Open-shell DLPNO
   Barbara Sandhoefer     : DKH picture change effects
   Kantharuban Sivalingam : CASSCF convergence, NEVPT2, FIC-MRCI
   Georgi Stoychev        : AutoAux
   Boris Wezisla          : Elementary symmetry handling
   Frank Wennmohs         : Technical directorship


 We gratefully acknowledge several colleagues who have allowed us to
 interface, adapt or use parts of their codes:
   Stefan Grimme, W. Hujo, H. Kruse,             : VdW corrections, initial TS optimization,
                  C. Bannwarth                     DFT functionals, gCP, sTDA/sTD-DF
   Ed Valeev                                     : LibInt (2-el integral package), F12 methods
   Garnet Chan, S. Sharma, J. Yang, R. Olivares  : DMRG
   Ulf Ekstrom                                   : XCFun DFT Library
   Mihaly Kallay                                 : mrcc  (arbitrary order and MRCC methods)
   Jiri Pittner, Ondrej Demel                    : Mk-CCSD
   Frank Weinhold                                : gennbo (NPA and NBO analysis)
   Christopher J. Cramer and Donald G. Truhlar   : smd solvation model


 Your calculation uses the libint2 library for the computation of 2-el integrals
 For citations please refer to: http://libint.valeyev.net

 This ORCA versions uses:
   CBLAS   interface :  Fast vector & matrix operations
   LAPACKE interface :  Fast linear algebra routines
   SCALAPACK package :  Parallel linear algebra routines


Your calculation utilizes the atom-pairwise dispersion correction
with the zero-damping scheme (D30)
Cite in your paper:
S.Grimme, J.Antony, S.Ehrlich and H.Krieg, J.Chem.Phys., 132, (2010), 154104 
   

XCFun DFT library Copyright 2009-2010 Ulf Ekstrom and contributors.
See http://admol.org/xcfun for more information. This is free soft-
ware; see the source code for copying conditions. There is ABSOLUTELY
NO WARRANTY; not even for MERCHANTABILITY or FITNESS FOR A PARTICULAR
PURPOSE. For details see the documentation. Scientific users of this 
library should cite U. Ekstrom, L. Visscher, R. Bast, A. J. Thorvald-
sen and K. Ruud; J.Chem.Theor.Comp. 2010, DOI: 10.1021/ct100117s
XCFun Version 0.99 
Your calculation utilizes the basis: 6-31G(d)
   H-He, Li-Ne : W. J. Hehre, R. Ditchfield and J.A. Pople, J. Chem. Phys. 56, 2257 (1972).
                 Note: He and Ne are unpublished basis sets taken from the Gaussian program.
                 Note: Li and B from J. D. Dill and J. A. Pople, J. Chem. Phys. 62, 2921 (1975).
   Na - Ar     : M. M. Francl, W. J. Pietro, W. J. Hehre, J. S. Binkley, M. S. Gordon, 
                 D. J. DeFrees and J. A. Pople, J. Chem. Phys. 77, 3654 (1982).
   K - Zn      : V. A. Rassolov, J. A. Pople, M. A. Ratner, and T. L. Windus, J. Chem. Phys. 109, 1223 (1998).

================================================================================
                                        WARNINGS
                       Please study these warnings very carefully!
================================================================================

Warning: TCutStore was < 0. Adjusted to Thresh (uncritical)

INFO   : the flag for use of LIBINT has been found!

================================================================================
                                       INPUT FILE
================================================================================
NAME = initial39.inp
|  1> ! WB97X-D3 6-31G(d) VerySlowConv
|  2> ! KDIIS NOSOSCF
|  3> %base "Scan_39"
|  4> 
|  5> %scf
|  6> maxiter 999
|  7> end
|  8> 
|  9> * xyz 0 1
| 10> C         -2.322629030503    1.613610000000   -0.000000000000
| 11> O          2.063589030502    1.613610000000   -0.000000000000
| 12> **                         ****END OF INPUT****
================================================================================

                       ****************************
                       * Single Point Calculation *
                       ****************************

---------------------------------
CARTESIAN COORDINATES (ANGSTROEM)
---------------------------------
  C     -2.322629    1.613610   -0.000000
  O      2.063589    1.613610   -0.000000

----------------------------
CARTESIAN COORDINATES (A.U.)
----------------------------
  NO LB      ZA    FRAG     MASS         X           Y           Z
   0 C     6.0000    0    12.011   -4.389133    3.049281   -0.000000
   1 O     8.0000    0    15.999    3.899618    3.049281   -0.000000

--------------------------------
INTERNAL COORDINATES (ANGSTROEM)
--------------------------------
 C      0   0   0     0.000000000000     0.00000000     0.00000000
 O      1   0   0     4.386218061005     0.00000000     0.00000000

---------------------------
INTERNAL COORDINATES (A.U.)
---------------------------
 C      0   0   0     0.000000000000     0.00000000     0.00000000
 O      1   0   0     8.288750898959     0.00000000     0.00000000

---------------------
BASIS SET INFORMATION
---------------------
There are 2 groups of distinct atoms

 Group   1 Type C   : 10s4p1d contracted to 3s2p1d pattern {631/31/1}
 Group   2 Type O   : 10s4p1d contracted to 3s2p1d pattern {631/31/1}

Atom   0C    basis set group =>   1
Atom   1O    basis set group =>   2
------------------------------------------------------------------------------
                           ORCA GTO INTEGRAL CALCULATION
------------------------------------------------------------------------------

                         BASIS SET STATISTICS AND STARTUP INFO

 # of primitive gaussian shells          ...   30
 # of primitive gaussian functions       ...   54
 # of contracted shells                  ...   12
 # of contracted basis functions         ...   28
 Highest angular momentum                ...    2
 Maximum contraction depth               ...    6
 Integral package used                   ... LIBINT
 Integral threshhold            Thresh   ...  1.000e-10
 Primitive cut-off              TCut     ...  1.000e-11


------------------------------ INTEGRAL EVALUATION ----------------------------


 * One electron integrals 
 Pre-screening matrix                    ... done
 Shell pair data                         ... done (   0.000 sec)

-------------------------------------------------------------------------------
                                 ORCA SCF
-------------------------------------------------------------------------------

------------
SCF SETTINGS
------------
Hamiltonian:
 Density Functional     Method          .... DFT(GTOs)
 Exchange Functional    Exchange        .... WB97X-D3
 Correlation Functional Correlation     .... WB97X-D3
 Gradients option       PostSCFGGA      .... off
 Hybrid DFT is turned on
   Fraction HF Exchange ScalHFX         ....  0.195728
   Scaling of DF-GGA-X  ScalDFX         ....  0.000000
   Scaling of DF-GGA-C  ScalDFC         ....  1.000000
   Scaling of DF-LDA-C  ScalLDAC        ....  1.000000
   Perturbative correction              ....  0.000000
 Long-range corrected/Screened/Range-Separated Hybrid DFT is turned on
   Amount of maximum screened exact exchange              ....  0.804272
   Range separation parameter mu (erf(mu*r12)/r12)        ....  0.250000


General Settings:
 Integral files         IntName         .... Scan_39
 Hartree-Fock type      HFTyp           .... RHF
 Total Charge           Charge          ....    0
 Multiplicity           Mult            ....    1
 Number of Electrons    NEL             ....   14
 Basis Dimension        Dim             ....   28
 Nuclear Repulsion      ENuc            ....      5.7909811243 Eh

Convergence Acceleration:
 DIIS                   CNVDIIS         .... on
   Start iteration      DIISMaxIt       ....     0
   Startup error        DIISStart       ....  0.200000
   # of expansion vecs  DIISMaxEq       ....     5
   Bias factor          DIISBfac        ....   1.050
   Max. coefficient     DIISMaxC        ....  10.000
 Newton-Raphson         CNVNR           .... off
 SOSCF                  CNVSOSCF        .... off
 Level Shifting         CNVShift        .... off
 Zerner damping         CNVZerner       .... off
 Static damping         CNVDamp         .... off
 Fernandez-Rico         CNVRico         .... off

SCF Procedure:
 Maximum # iterations   MaxIter         ....   999
 SCF integral mode      SCFMode         .... Direct
   Integral package                     .... LIBINT
 Reset frequeny         DirectResetFreq ....    20
 Integral Threshold     Thresh          ....  1.000e-10 Eh
 Primitive CutOff       TCut            ....  1.000e-11 Eh

Convergence Tolerance:
 Convergence Check Mode ConvCheckMode   .... All-Criteria
 Convergence forced     ConvForced      .... 0
 Energy Change          TolE            ....  1.000e-06 Eh
 Max Density Change     TolMaxP         ....  1.000e-05
 RMS Density Change     TolRMSP         ....  1.000e-06
 DIIS Error             TolErr          ....  1.000e-06


Diagonalization of the overlap matrix:
Smallest eigenvalue                        ... 1.869e-01
Time for diagonalization                   ...    0.001 sec
Threshold for overlap eigenvalues          ... 1.000e-08
Number of eigenvalues below threshold      ... 0
Time for construction of square roots      ...    0.015 sec
Total time needed                          ...    0.016 sec

-------------------
DFT GRID GENERATION
-------------------

General Integration Accuracy     IntAcc      ...  4.340
Radial Grid Type                 RadialGrid  ... Gauss-Chebyshev
Angular Grid (max. acc.)         AngularGrid ... Lebedev-110
Angular grid pruning method      GridPruning ... 3 (G Style)
Weight generation scheme         WeightScheme... Becke
Basis function cutoff            BFCut       ...    1.0000e-10
Integration weight cutoff        WCut        ...    1.0000e-14
Grids for H and He will be reduced by one unit

# of grid points (after initial pruning)     ...   3372 (   0.0 sec)
# of grid points (after weights+screening)   ...   3363 (   0.0 sec)
nearest neighbour list constructed           ...    0.0 sec
Grid point re-assignment to atoms done       ...    0.0 sec
Grid point division into batches done        ...    0.0 sec
Reduced shell lists constructed in    0.0 sec

Total number of grid points                  ...     3363
Total number of batches                      ...       54
Average number of points per batch           ...       62
Average number of grid points per atom       ...     1682
Average number of shells per batch           ...     8.02 (66.82%)
Average number of basis functions per batch  ...    18.89 (67.47%)
Average number of large shells per batch     ...     6.18 (77.10%)
Average number of large basis fcns per batch ...    14.76 (78.15%)
Maximum spatial batch extension              ...  20.26, 27.48, 31.36 au
Average spatial batch extension              ...   7.11,  6.73,  7.29 au

Time for grid setup =    0.072 sec

------------------------------
INITIAL GUESS: MODEL POTENTIAL
------------------------------
Loading Hartree-Fock densities                     ... done
Calculating cut-offs                               ... done
Setting up the integral package                    ... done
Initializing the effective Hamiltonian             ... done
Starting the Coulomb interaction                   ... done (   0.0 sec)
Reading the grid                                   ... done
Mapping shells                                     ... done
Starting the XC term evaluation                    ... done (   0.0 sec)
  promolecular density results
     # of electrons  =     14.000025579
     EX              =    -12.943414453
     EC              =     -0.402740643
     EX+EC           =    -13.346155096
Transforming the Hamiltonian                       ... done (   0.0 sec)
Diagonalizing the Hamiltonian                      ... done (   0.0 sec)
Back transforming the eigenvectors                 ... done (   0.0 sec)
Now organizing SCF variables                       ... done
                      ------------------
                      INITIAL GUESS DONE (   0.2 sec)
                      ------------------
--------------
SCF ITERATIONS
--------------
ITER       Energy         Delta-E        Max-DP      RMS-DP      [F,P]   Gradient Norm
               ***  Starting incremental Fock matrix formation  ***
                             ****Resetting KDIIS****
                             ****Turning on KDIIS(Cayley)****
  0   -111.0743294378   0.000000000000 0.05589798  0.00574385  0.3752239   0.286512637
  1   -111.1941239854  -0.119794547524 0.10687053  0.01084999  0.3239239   0.247310480
  2   -111.3778575905  -0.183733605161 0.16410801  0.01153189  0.2193615   0.170812403
  3   -111.4706010506  -0.092743460094 0.29002265  0.01946714  0.1893918   0.146502432
  4   -111.6583310621  -0.187730011442 0.07261712  0.00691117  0.2886542   0.154273860
  5   -111.7083857477  -0.050054685679 0.23676470  0.02347340  0.2974208   0.156060072
  6   -111.9264033435  -0.218017595723 0.18009771  0.01574811  0.2344740   0.167088750
  7   -111.9368679255  -0.010464582061 0.08192104  0.00739904  0.2569783   0.148203045
  8   -111.8854273884   0.051440537173 0.39054357  0.03318459  0.2606744   0.140275626
  9   -112.1261582102  -0.240730821827 0.57590514  0.05894365  0.1524890   0.139620811
 10   -112.1246689089   0.001489301246 0.21227968  0.02034841  0.1462059   0.137400383
 11   -112.3463367236  -0.221667814667 0.09335296  0.00588436  0.1205347   0.101365436
 12   -112.3539770891  -0.007640365506 0.28321699  0.03077695  0.0917286   0.099058896
 13   -112.3138865108   0.040090578288 0.30129881  0.03046295  0.2921197   0.226633028
 14   -112.2050053592   0.108881151653 0.12092227  0.00827242  0.3232109   0.214320447
 15   -112.2937455558  -0.088740196634 0.18631342  0.02127612  0.2887233   0.188994584
 16   -112.5373280145  -0.243582458673 0.02419030  0.00261192  0.0154729   0.012782111
 17   -112.5363995988   0.000928415686 0.07183422  0.00694733  0.0325058   0.018673471
 18   -112.4975785521   0.038821046704 0.04359926  0.00410598  0.1128971   0.071193387
 19   -112.5201835593  -0.022605007192 0.01603309  0.00162639  0.0716367   0.044277586
               *** Restarting incremental Fock matrix formation ***
                             ****Resetting KDIIS****
 20   -112.5251162053  -0.004932646048 0.01419582  0.00185226  0.0571989   0.035123895
 21   -112.5326411003  -0.007524895010 0.01134447  0.00104878  0.0162814   0.015892856
 22   -112.5343631985  -0.001722098118 0.01717552  0.00162241  0.0165389   0.012918344
 23   -112.5365275989  -0.002164400470 0.11661938  0.00969806  0.0174399   0.010071646
 24   -112.5323218289   0.004205770001 0.02817386  0.00211423  0.0138617   0.011828751
 25   -112.5327699858  -0.000448156869 0.00192314  0.00015929  0.0041780   0.002969096
 26   -112.5328115586  -0.000041572783 0.00330744  0.00028973  0.0011528   0.000760534
 27   -112.5328101014   0.000001457139 0.00026628  0.00003028  0.0003366   0.000225854
                          ***Energy convergence achieved***
 28   -112.5328102989  -0.000000197416 0.00009703  0.00000910  0.0000234   0.000021662
Warning: badly conditioned DIIS matrix, 1 vectors out of 5 destroyed

            ***Energy convergence in two consecutive cycles with***
                    ***'reasonable' density convergence***
                       *** signaling convergence ***

                    *** KDIIS BlockDiag ( 0.000 sec) ***

               *****************************************************
               *                     SUCCESS                       *
               *           SCF CONVERGED AFTER  29 CYCLES          *
               *****************************************************

Setting up the final grid:

General Integration Accuracy     IntAcc      ...  4.670
Radial Grid Type                 RadialGrid  ... Gauss-Chebyshev
Angular Grid (max. acc.)         AngularGrid ... Lebedev-302
Angular grid pruning method      GridPruning ... 3 (G Style)
Weight generation scheme         WeightScheme... Becke
Basis function cutoff            BFCut       ...    1.0000e-10
Integration weight cutoff        WCut        ...    1.0000e-14
Grids for H and He will be reduced by one unit

# of grid points (after initial pruning)     ...  12424 (   0.0 sec)
# of grid points (after weights+screening)   ...  12413 (   0.0 sec)
nearest neighbour list constructed           ...    0.0 sec
Grid point re-assignment to atoms done       ...    0.0 sec
Grid point division into batches done        ...    0.2 sec
Reduced shell lists constructed in    0.3 sec

Total number of grid points                  ...    12413
Total number of batches                      ...      195
Average number of points per batch           ...       63
Average number of grid points per atom       ...     6206
Average number of shells per batch           ...     6.84 (56.97%)
Average number of basis functions per batch  ...    16.07 (57.40%)
Average number of large shells per batch     ...     5.60 (81.94%)
Average number of large basis fcns per batch ...    13.34 (82.98%)
Maximum spatial batch extension              ...  17.44, 20.64, 18.61 au
Average spatial batch extension              ...   4.25,  4.40,  4.35 au

Final grid set up in    0.3 sec
Final integration                            ... done (   0.2 sec)
Change in XC energy                          ...    -0.000658052
Integrated number of electrons               ...    14.000010867
Previous integrated no of electrons          ...    13.999591850

----------------
TOTAL SCF ENERGY
----------------

Total Energy       :         -112.53346837 Eh           -3062.19135 eV

Components:
Nuclear Repulsion  :            5.79098112 Eh             157.58061 eV
Electronic Energy  :         -118.32444950 Eh           -3219.77196 eV
One Electron Energy:         -165.43085455 Eh           -4501.60241 eV
Two Electron Energy:           47.10640505 Eh            1281.83045 eV

Virial components:
Potential Energy   :         -224.47257056 Eh           -6108.20918 eV
Kinetic Energy     :          111.93910219 Eh            3046.01783 eV
Virial Ratio       :            2.00530973


DFT components:
N(Alpha)           :        7.000005433565 electrons
N(Beta)            :        7.000005433565 electrons
N(Total)           :       14.000010867131 electrons
E(XC)              :       -9.437416015869 Eh       

---------------
SCF CONVERGENCE
---------------

  Last Energy change         ...   -2.1831e-08  Tolerance :   1.0000e-06
  Last MAX-Density change    ...    7.2675e-05  Tolerance :   1.0000e-05
  Last RMS-Density change    ...    5.6215e-06  Tolerance :   1.0000e-06
  Last DIIS Error            ...    2.3761e-05  Tolerance :   1.0000e-06

             **** THE GBW FILE WAS UPDATED (Scan_39.gbw) ****
             **** DENSITY FILE WAS UPDATED (Scan_39.scfp.tmp) ****
             **** ENERGY FILE WAS UPDATED (Scan_39.en.tmp) ****
----------------
ORBITAL ENERGIES
----------------

  NO   OCC          E(Eh)            E(eV) 
   0   2.0000     -19.259318      -524.0727 
   1   2.0000     -10.568849      -287.5930 
   2   2.0000      -0.935590       -25.4587 
   3   2.0000      -0.747935       -20.3523 
   4   2.0000      -0.300898        -8.1879 
   5   2.0000      -0.296554        -8.0696 
   6   2.0000      -0.296554        -8.0696 
   7   0.0000      -0.177803        -4.8383 
   8   0.0000      -0.177803        -4.8383 
   9   0.0000      -0.172876        -4.7042 
  10   0.0000       0.559347        15.2206 
  11   0.0000       0.559347        15.2206 
  12   0.0000       0.560927        15.2636 
  13   0.0000       0.608484        16.5577 
  14   0.0000       1.041344        28.3364 
  15   0.0000       1.041655        28.3449 
  16   0.0000       1.041655        28.3449 
  17   0.0000       1.144401        31.1407 
  18   0.0000       1.660779        45.1921 
  19   0.0000       1.660780        45.1921 
  20   0.0000       1.660931        45.1962 
  21   0.0000       1.661139        45.2019 
  22   0.0000       1.661139        45.2019 
  23   0.0000       1.956950        53.2513 
  24   0.0000       1.957670        53.2709 
  25   0.0000       1.957670        53.2709 
  26   0.0000       1.957716        53.2722 
  27   0.0000       1.957716        53.2722 

                    ********************************
                    * MULLIKEN POPULATION ANALYSIS *
                    ********************************

-----------------------
MULLIKEN ATOMIC CHARGES
-----------------------
   0 C :    0.299049
   1 O :   -0.299049
Sum of atomic charges:   -0.0000000

--------------------------------
MULLIKEN REDUCED ORBITAL CHARGES
--------------------------------
  0 C s       :     3.999662  s :     3.999662
      pz      :     0.571569  p :     1.701271
      px      :     0.558134
      py      :     0.571569
      dz2     :     0.000002  d :     0.000018
      dxz     :     0.000005
      dyz     :     0.000000
      dx2y2   :     0.000006
      dxy     :     0.000005
  1 O s       :     3.999963  s :     3.999963
      pz      :     1.428420  p :     4.299060
      px      :     1.442220
      py      :     1.428420
      dz2     :     0.000003  d :     0.000026
      dxz     :     0.000006
      dyz     :     0.000000
      dx2y2   :     0.000010
      dxy     :     0.000006


                     *******************************
                     * LOEWDIN POPULATION ANALYSIS *
                     *******************************

----------------------
LOEWDIN ATOMIC CHARGES
----------------------
   0 C :    0.299013
   1 O :   -0.299013

-------------------------------
LOEWDIN REDUCED ORBITAL CHARGES
-------------------------------
  0 C s       :     3.999653  s :     3.999653
      pz      :     0.571572  p :     1.701315
      px      :     0.558172
      py      :     0.571572
      dz2     :     0.000002  d :     0.000018
      dxz     :     0.000005
      dyz     :     0.000000
      dx2y2   :     0.000006
      dxy     :     0.000005
  1 O s       :     3.999959  s :     3.999959
      pz      :     1.428417  p :     4.299028
      px      :     1.442194
      py      :     1.428417
      dz2     :     0.000003  d :     0.000026
      dxz     :     0.000006
      dyz     :     0.000000
      dx2y2   :     0.000010
      dxy     :     0.000006


                      *****************************
                      * MAYER POPULATION ANALYSIS *
                      *****************************

  NA   - Mulliken gross atomic population
  ZA   - Total nuclear charge
  QA   - Mulliken gross atomic charge
  VA   - Mayer's total valence
  BVA  - Mayer's bonded valence
  FA   - Mayer's free valence

  ATOM       NA         ZA         QA         VA         BVA        FA
  0 C      5.7010     6.0000     0.2990     2.4374     2.4374    -0.0000
  1 O      8.2990     8.0000    -0.2990     2.4374     2.4374    -0.0000

  Mayer bond orders larger than 0.1
B(  0-C ,  1-O ) :   2.4374 

-------
TIMINGS
-------

Total SCF time: 0 days 0 hours 0 min 20 sec 

Total time                  ....      20.894 sec
Sum of individual times     ....      19.739 sec  ( 94.5%)

Fock matrix formation       ....      18.988 sec  ( 90.9%)
  XC integration            ....       3.686 sec  ( 19.4% of F)
    Basis function eval.    ....       0.512 sec  ( 13.9% of XC)
    Density eval.           ....       0.101 sec  (  2.7% of XC)
    XC-Functional eval.     ....       0.749 sec  ( 20.3% of XC)
    XC-Potential eval.      ....       0.081 sec  (  2.2% of XC)
Diagonalization             ....       0.202 sec  (  1.0%)
Density matrix formation    ....       0.000 sec  (  0.0%)
Population analysis         ....       0.021 sec  (  0.1%)
Initial guess               ....       0.144 sec  (  0.7%)
Orbital Transformation      ....       0.000 sec  (  0.0%)
Orbital Orthonormalization  ....       0.000 sec  (  0.0%)
DIIS solution               ....       0.000 sec  (  0.0%)
Grid generation             ....       0.384 sec  (  1.8%)


-------------------------------------------------------------------------------
                          DFT DISPERSION CORRECTION                            
                                                                               
                              DFTD3 V3.1  Rev 1                                
                              USING zero damping                               
-------------------------------------------------------------------------------
The omegaB97X-D3 functional is recognized. Fit by Chai et al.
Active option DFTDOPT                   ...         3   

molecular C6(AA) [au] = 117.463417 


            DFT-D V3
 parameters
 s6 scaling factor         :     1.0000 
 rs6 scaling factor        :     1.2810 
 s8 scaling factor         :     1.0000 
 rs8 scaling factor        :     1.0940 
 Damping factor alpha6     :    14.0000 
 Damping factor alpha8     :    16.0000 
 ad hoc parameters k1-k3   :    16.0000     1.3333    -4.0000 

 Edisp/kcal,au: -0.064253950278  -0.000102395177 
 E6   /kcal   :  -0.046302824 
 E8   /kcal   :  -0.017951127 
 % E8         :  27.937779020 

-------------------------   ----------------
Dispersion correction           -0.000102395
-------------------------   ----------------


-------------------------   --------------------
FINAL SINGLE POINT ENERGY      -112.533570768333
-------------------------   --------------------


                            ***************************************
                            *     ORCA property calculations      *
                            ***************************************

                                    ---------------------
                                    Active property flags
                                    ---------------------
   (+) Dipole Moment


------------------------------------------------------------------------------
                       ORCA ELECTRIC PROPERTIES CALCULATION
------------------------------------------------------------------------------

Dipole Moment Calculation                       ... on
Quadrupole Moment Calculation                   ... off
Polarizability Calculation                      ... off
GBWName                                         ... Scan_39.gbw
Electron density file                           ... Scan_39.scfp.tmp

-------------
DIPOLE MOMENT
-------------
                                X             Y             Z
Electronic contribution:     -2.46902      -0.00000      -0.00000
Nuclear contribution   :      0.02782      -0.00000       0.00000
                        -----------------------------------------
Total Dipole Moment    :     -2.44121      -0.00000      -0.00000
                        -----------------------------------------
Magnitude (a.u.)       :      2.44121
Magnitude (Debye)      :      6.20506


Timings for individual modules:

Sum of individual times         ...       21.779 sec (=   0.363 min)
GTO integral calculation        ...        0.756 sec (=   0.013 min)   3.5 %
SCF iterations                  ...       21.023 sec (=   0.350 min)  96.5 %
                             ****ORCA TERMINATED NORMALLY****
TOTAL RUN TIME: 0 days 0 hours 0 minutes 22 seconds 630 msec
