
                                 *****************
                                 * O   R   C   A *
                                 *****************

           --- An Ab Initio, DFT and Semiempirical electronic structure package ---

                  #######################################################
                  #                        -***-                        #
                  #  Department of molecular theory and spectroscopy    #
                  #              Directorship: Frank Neese              #
                  # Max Planck Institute for Chemical Energy Conversion #
                  #                  D-45470 Muelheim/Ruhr              #
                  #                       Germany                       #
                  #                                                     #
                  #                  All rights reserved                #
                  #                        -***-                        #
                  #######################################################


                         Program Version 4.0.0.2 - RELEASE -


 With contributions from (in alphabetic order):
   Daniel Aravena         : Magnetic Properties
   Michael Atanasov       : Ab Initio Ligand Field Theory
   Ute Becker             : Parallelization
   Martin Brehm           : Molecular dynamics
   Dmytro Bykov           : SCF Hessian
   Vijay G. Chilkuri      : MRCI spin determinant printing
   Dipayan Datta          : RHF DLPNO-CCSD density
   Achintya Kumar Dutta   : EOM-CC, STEOM-CC
   Dmitry Ganyushin       : Spin-Orbit,Spin-Spin,Magnetic field MRCI
   Yang Guo               : DLPNO-NEVPT2, CIM, IAO-localization
   Andreas Hansen         : Spin unrestricted coupled pair/coupled cluster methods
   Lee Huntington         : MR-EOM, pCC
   Robert Izsak           : Overlap fitted RIJCOSX, COSX-SCS-MP3, EOM
   Christian Kollmar      : KDIIS, OOCD, Brueckner-CCSD(T), CCSD density
   Simone Kossmann        : Meta GGA functionals, TD-DFT gradient, OOMP2, MP2 Hessian
   Martin Krupicka        : AUTO-CI
   Dagmar Lenk            : GEPOL surface
   Dimitrios Liakos       : Extrapolation schemes; parallel MDCI
   Dimitrios Manganas     : ROCIS; embedding schemes
   Dimitrios Pantazis     : SARC Basis sets
   Taras Petrenko         : DFT Hessian,TD-DFT gradient, ASA, ECA, R-Raman, ABS, FL, XAS/XES, NRVS
   Peter Pinski           : DLPNO-MP2
   Christoph Reimann      : Effective Core Potentials
   Marius Retegan         : Local ZFS, SOC
   Christoph Riplinger    : Optimizer, TS searches, QM/MM, DLPNO-CCSD(T), (RO)-DLPNO pert. Triples
   Tobias Risthaus        : Range-separated hybrids, TD-DFT gradient, RPA, STAB
   Michael Roemelt        : Restricted open shell CIS
   Masaaki Saitow         : Open-shell DLPNO
   Barbara Sandhoefer     : DKH picture change effects
   Kantharuban Sivalingam : CASSCF convergence, NEVPT2, FIC-MRCI
   Georgi Stoychev        : AutoAux
   Boris Wezisla          : Elementary symmetry handling
   Frank Wennmohs         : Technical directorship


 We gratefully acknowledge several colleagues who have allowed us to
 interface, adapt or use parts of their codes:
   Stefan Grimme, W. Hujo, H. Kruse,             : VdW corrections, initial TS optimization,
                  C. Bannwarth                     DFT functionals, gCP, sTDA/sTD-DF
   Ed Valeev                                     : LibInt (2-el integral package), F12 methods
   Garnet Chan, S. Sharma, J. Yang, R. Olivares  : DMRG
   Ulf Ekstrom                                   : XCFun DFT Library
   Mihaly Kallay                                 : mrcc  (arbitrary order and MRCC methods)
   Jiri Pittner, Ondrej Demel                    : Mk-CCSD
   Frank Weinhold                                : gennbo (NPA and NBO analysis)
   Christopher J. Cramer and Donald G. Truhlar   : smd solvation model


 Your calculation uses the libint2 library for the computation of 2-el integrals
 For citations please refer to: http://libint.valeyev.net

 This ORCA versions uses:
   CBLAS   interface :  Fast vector & matrix operations
   LAPACKE interface :  Fast linear algebra routines
   SCALAPACK package :  Parallel linear algebra routines


Your calculation utilizes the atom-pairwise dispersion correction
with the zero-damping scheme (D30)
Cite in your paper:
S.Grimme, J.Antony, S.Ehrlich and H.Krieg, J.Chem.Phys., 132, (2010), 154104 
   

XCFun DFT library Copyright 2009-2010 Ulf Ekstrom and contributors.
See http://admol.org/xcfun for more information. This is free soft-
ware; see the source code for copying conditions. There is ABSOLUTELY
NO WARRANTY; not even for MERCHANTABILITY or FITNESS FOR A PARTICULAR
PURPOSE. For details see the documentation. Scientific users of this 
library should cite U. Ekstrom, L. Visscher, R. Bast, A. J. Thorvald-
sen and K. Ruud; J.Chem.Theor.Comp. 2010, DOI: 10.1021/ct100117s
XCFun Version 0.99 
Your calculation utilizes the basis: 6-31G(d)
   H-He, Li-Ne : W. J. Hehre, R. Ditchfield and J.A. Pople, J. Chem. Phys. 56, 2257 (1972).
                 Note: He and Ne are unpublished basis sets taken from the Gaussian program.
                 Note: Li and B from J. D. Dill and J. A. Pople, J. Chem. Phys. 62, 2921 (1975).
   Na - Ar     : M. M. Francl, W. J. Pietro, W. J. Hehre, J. S. Binkley, M. S. Gordon, 
                 D. J. DeFrees and J. A. Pople, J. Chem. Phys. 77, 3654 (1982).
   K - Zn      : V. A. Rassolov, J. A. Pople, M. A. Ratner, and T. L. Windus, J. Chem. Phys. 109, 1223 (1998).

================================================================================
                                        WARNINGS
                       Please study these warnings very carefully!
================================================================================

Warning: TCutStore was < 0. Adjusted to Thresh (uncritical)

INFO   : the flag for use of LIBINT has been found!

================================================================================
                                       INPUT FILE
================================================================================
NAME = initial40.inp
|  1> ! WB97X-D3 6-31G(d) VerySlowConv
|  2> ! KDIIS NOSOSCF
|  3> %base "Scan_40"
|  4> 
|  5> %scf
|  6> maxiter 999
|  7> end
|  8> 
|  9> * xyz 0 1
| 10> C         -2.373770601099    1.613610000000   -0.000000000000
| 11> O          2.114730601099    1.613610000000   -0.000000000000
| 12> **                         ****END OF INPUT****
================================================================================

                       ****************************
                       * Single Point Calculation *
                       ****************************

---------------------------------
CARTESIAN COORDINATES (ANGSTROEM)
---------------------------------
  C     -2.373771    1.613610   -0.000000
  O      2.114731    1.613610   -0.000000

----------------------------
CARTESIAN COORDINATES (A.U.)
----------------------------
  NO LB      ZA    FRAG     MASS         X           Y           Z
   0 C     6.0000    0    12.011   -4.485776    3.049281   -0.000000
   1 O     8.0000    0    15.999    3.996262    3.049281   -0.000000

--------------------------------
INTERNAL COORDINATES (ANGSTROEM)
--------------------------------
 C      0   0   0     0.000000000000     0.00000000     0.00000000
 O      1   0   0     4.488501202198     0.00000000     0.00000000

---------------------------
INTERNAL COORDINATES (A.U.)
---------------------------
 C      0   0   0     0.000000000000     0.00000000     0.00000000
 O      1   0   0     8.482038023931     0.00000000     0.00000000

---------------------
BASIS SET INFORMATION
---------------------
There are 2 groups of distinct atoms

 Group   1 Type C   : 10s4p1d contracted to 3s2p1d pattern {631/31/1}
 Group   2 Type O   : 10s4p1d contracted to 3s2p1d pattern {631/31/1}

Atom   0C    basis set group =>   1
Atom   1O    basis set group =>   2
------------------------------------------------------------------------------
                           ORCA GTO INTEGRAL CALCULATION
------------------------------------------------------------------------------

                         BASIS SET STATISTICS AND STARTUP INFO

 # of primitive gaussian shells          ...   30
 # of primitive gaussian functions       ...   54
 # of contracted shells                  ...   12
 # of contracted basis functions         ...   28
 Highest angular momentum                ...    2
 Maximum contraction depth               ...    6
 Integral package used                   ... LIBINT
 Integral threshhold            Thresh   ...  1.000e-10
 Primitive cut-off              TCut     ...  1.000e-11


------------------------------ INTEGRAL EVALUATION ----------------------------


 * One electron integrals 
 Pre-screening matrix                    ... done
 Shell pair data                         ... done (   0.000 sec)

-------------------------------------------------------------------------------
                                 ORCA SCF
-------------------------------------------------------------------------------

------------
SCF SETTINGS
------------
Hamiltonian:
 Density Functional     Method          .... DFT(GTOs)
 Exchange Functional    Exchange        .... WB97X-D3
 Correlation Functional Correlation     .... WB97X-D3
 Gradients option       PostSCFGGA      .... off
 Hybrid DFT is turned on
   Fraction HF Exchange ScalHFX         ....  0.195728
   Scaling of DF-GGA-X  ScalDFX         ....  0.000000
   Scaling of DF-GGA-C  ScalDFC         ....  1.000000
   Scaling of DF-LDA-C  ScalLDAC        ....  1.000000
   Perturbative correction              ....  0.000000
 Long-range corrected/Screened/Range-Separated Hybrid DFT is turned on
   Amount of maximum screened exact exchange              ....  0.804272
   Range separation parameter mu (erf(mu*r12)/r12)        ....  0.250000


General Settings:
 Integral files         IntName         .... Scan_40
 Hartree-Fock type      HFTyp           .... RHF
 Total Charge           Charge          ....    0
 Multiplicity           Mult            ....    1
 Number of Electrons    NEL             ....   14
 Basis Dimension        Dim             ....   28
 Nuclear Repulsion      ENuc            ....      5.6590173098 Eh

Convergence Acceleration:
 DIIS                   CNVDIIS         .... on
   Start iteration      DIISMaxIt       ....     0
   Startup error        DIISStart       ....  0.200000
   # of expansion vecs  DIISMaxEq       ....     5
   Bias factor          DIISBfac        ....   1.050
   Max. coefficient     DIISMaxC        ....  10.000
 Newton-Raphson         CNVNR           .... off
 SOSCF                  CNVSOSCF        .... off
 Level Shifting         CNVShift        .... off
 Zerner damping         CNVZerner       .... off
 Static damping         CNVDamp         .... off
 Fernandez-Rico         CNVRico         .... off

SCF Procedure:
 Maximum # iterations   MaxIter         ....   999
 SCF integral mode      SCFMode         .... Direct
   Integral package                     .... LIBINT
 Reset frequeny         DirectResetFreq ....    20
 Integral Threshold     Thresh          ....  1.000e-10 Eh
 Primitive CutOff       TCut            ....  1.000e-11 Eh

Convergence Tolerance:
 Convergence Check Mode ConvCheckMode   .... All-Criteria
 Convergence forced     ConvForced      .... 0
 Energy Change          TolE            ....  1.000e-06 Eh
 Max Density Change     TolMaxP         ....  1.000e-05
 RMS Density Change     TolRMSP         ....  1.000e-06
 DIIS Error             TolErr          ....  1.000e-06


Diagonalization of the overlap matrix:
Smallest eigenvalue                        ... 1.869e-01
Time for diagonalization                   ...    0.001 sec
Threshold for overlap eigenvalues          ... 1.000e-08
Number of eigenvalues below threshold      ... 0
Time for construction of square roots      ...    0.018 sec
Total time needed                          ...    0.019 sec

-------------------
DFT GRID GENERATION
-------------------

General Integration Accuracy     IntAcc      ...  4.340
Radial Grid Type                 RadialGrid  ... Gauss-Chebyshev
Angular Grid (max. acc.)         AngularGrid ... Lebedev-110
Angular grid pruning method      GridPruning ... 3 (G Style)
Weight generation scheme         WeightScheme... Becke
Basis function cutoff            BFCut       ...    1.0000e-10
Integration weight cutoff        WCut        ...    1.0000e-14
Grids for H and He will be reduced by one unit

# of grid points (after initial pruning)     ...   3372 (   0.0 sec)
# of grid points (after weights+screening)   ...   3363 (   0.0 sec)
nearest neighbour list constructed           ...    0.0 sec
Grid point re-assignment to atoms done       ...    0.0 sec
Grid point division into batches done        ...    0.0 sec
Reduced shell lists constructed in    0.0 sec

Total number of grid points                  ...     3363
Total number of batches                      ...       54
Average number of points per batch           ...       62
Average number of grid points per atom       ...     1682
Average number of shells per batch           ...     7.96 (66.36%)
Average number of basis functions per batch  ...    18.73 (66.88%)
Average number of large shells per batch     ...     6.16 (77.40%)
Average number of large basis fcns per batch ...    14.71 (78.54%)
Maximum spatial batch extension              ...  20.26, 27.48, 31.36 au
Average spatial batch extension              ...   7.11,  6.75,  7.29 au

Time for grid setup =    0.065 sec

------------------------------
INITIAL GUESS: MODEL POTENTIAL
------------------------------
Loading Hartree-Fock densities                     ... done
Calculating cut-offs                               ... done
Setting up the integral package                    ... done
Initializing the effective Hamiltonian             ... done
Starting the Coulomb interaction                   ... done (   0.0 sec)
Reading the grid                                   ... done
Mapping shells                                     ... done
Starting the XC term evaluation                    ... done (   0.1 sec)
  promolecular density results
     # of electrons  =     14.000068521
     EX              =    -12.943397424
     EC              =     -0.402741153
     EX+EC           =    -13.346138576
Transforming the Hamiltonian                       ... done (   0.0 sec)
Diagonalizing the Hamiltonian                      ... done (   0.0 sec)
Back transforming the eigenvectors                 ... done (   0.0 sec)
Now organizing SCF variables                       ... done
                      ------------------
                      INITIAL GUESS DONE (   0.3 sec)
                      ------------------
--------------
SCF ITERATIONS
--------------
ITER       Energy         Delta-E        Max-DP      RMS-DP      [F,P]   Gradient Norm
               ***  Starting incremental Fock matrix formation  ***
                             ****Resetting KDIIS****
                             ****Turning on KDIIS(Cayley)****
  0   -111.0631459754   0.000000000000 0.05580036  0.00567126  0.3756782   0.286444872
  1   -111.1819862240  -0.118840248594 0.11477842  0.01119199  0.3249541   0.247355468
  2   -111.3731073432  -0.191121119263 0.16609682  0.01323502  0.2129754   0.167087826
  3   -111.5164443832  -0.143337039936 0.30872192  0.02078447  0.1613488   0.109567088
  4   -111.7392967612  -0.222852378011 0.18252690  0.01860708  0.2626265   0.132754696
  5   -111.6126492125   0.126647548656 0.01430484  0.00179149  0.2392614   0.114919621
  6   -111.6269707718  -0.014321559225 0.21877791  0.01773910  0.2439299   0.113683561
  7   -111.8711609563  -0.244190184570 0.09561408  0.01095066  0.3112070   0.133788348
  8   -111.9755147399  -0.104353783580 0.06423299  0.00719809  0.3259359   0.136464529
  9   -112.0305782854  -0.055063545526 0.14666974  0.00937047  0.3298009   0.136411015
 10   -112.1271575700  -0.096579284613 0.11679040  0.01009266  0.3205224   0.135770936
 11   -112.2687401805  -0.141582610465 0.13964840  0.01369321  0.3113127   0.123201923
 12   -112.4371510425  -0.168410862044 0.22763368  0.01770101  0.2615415   0.101225045
 13   -112.6224172739  -0.185266231389 0.02055114  0.00203312  0.0851031   0.051785068
 14   -112.6351479037  -0.012730629727 0.04601413  0.00481176  0.0702356   0.047812912
 15   -112.6584621101  -0.023314206446 0.10425855  0.00975761  0.0562941   0.043097757
 16   -112.6751508133  -0.016688703228 0.08028916  0.00741365  0.0383244   0.017298828
 17   -112.6497981443   0.025352669050 0.02895685  0.00282444  0.0833244   0.032682421
 18   -112.6577337561  -0.007935611806 0.18499796  0.01833023  0.0741779   0.028728145
 19   -112.6819295135  -0.024195757418 0.17773031  0.01697946  0.0311260   0.021066678
               *** Restarting incremental Fock matrix formation ***
                             ****Resetting KDIIS****
 20   -112.6794014675   0.002528045978 0.00489724  0.00065628  0.0210038   0.017914880
 21   -112.6814433508  -0.002041883301 0.01774794  0.00185124  0.0194369   0.016422308
 22   -112.6862921352  -0.004848784327 0.03679622  0.00378178  0.0170907   0.014899092
 23   -112.6940329178  -0.007740782602 0.06572208  0.00580519  0.0103958   0.008830765
 24   -112.6987154529  -0.004682535148 0.00468064  0.00036969  0.0023220   0.001190595
 25   -112.6987725213  -0.000057068390 0.01334576  0.00078608  0.0021247   0.001318699
 26   -112.6988761718  -0.000103650541 0.01343060  0.00077240  0.0010096   0.000498285
 27   -112.6989186011  -0.000042429296 0.00448384  0.00025381  0.0003507   0.000294747
 28   -112.6989234825  -0.000004881332 0.00197062  0.00011102  0.0001098   0.000084343
                          ***Energy convergence achieved***
 29   -112.6989240889  -0.000000606429 0.00036391  0.00002061  0.0000205   0.000014711
 30   -112.6989241107  -0.000000021819 0.00010697  0.00000606  0.0000045   0.000003498
                           ***RMSP convergence achieved***
                           ***MAXP convergence achieved***
                    *** KDIIS BlockDiag ( 0.000 sec) ***

               *****************************************************
               *                     SUCCESS                       *
               *           SCF CONVERGED AFTER  31 CYCLES          *
               *****************************************************

Setting up the final grid:

General Integration Accuracy     IntAcc      ...  4.670
Radial Grid Type                 RadialGrid  ... Gauss-Chebyshev
Angular Grid (max. acc.)         AngularGrid ... Lebedev-302
Angular grid pruning method      GridPruning ... 3 (G Style)
Weight generation scheme         WeightScheme... Becke
Basis function cutoff            BFCut       ...    1.0000e-10
Integration weight cutoff        WCut        ...    1.0000e-14
Grids for H and He will be reduced by one unit

# of grid points (after initial pruning)     ...  12424 (   0.0 sec)
# of grid points (after weights+screening)   ...  12413 (   0.0 sec)
nearest neighbour list constructed           ...    0.0 sec
Grid point re-assignment to atoms done       ...    0.0 sec
Grid point division into batches done        ...    0.1 sec
Reduced shell lists constructed in    0.1 sec

Total number of grid points                  ...    12413
Total number of batches                      ...      195
Average number of points per batch           ...       63
Average number of grid points per atom       ...     6206
Average number of shells per batch           ...     6.74 (56.16%)
Average number of basis functions per batch  ...    15.79 (56.40%)
Average number of large shells per batch     ...     5.50 (81.60%)
Average number of large basis fcns per batch ...    13.04 (82.58%)
Maximum spatial batch extension              ...  17.63, 20.64, 18.61 au
Average spatial batch extension              ...   4.24,  4.44,  4.32 au

Final grid set up in    0.1 sec
Final integration                            ... done (   0.3 sec)
Change in XC energy                          ...     0.000482126
Integrated number of electrons               ...    14.000014204
Previous integrated no of electrons          ...    13.999299084

----------------
TOTAL SCF ENERGY
----------------

Total Energy       :         -112.69844199 Eh           -3066.68051 eV

Components:
Nuclear Repulsion  :            5.65901731 Eh             153.98969 eV
Electronic Energy  :         -118.35745930 Eh           -3220.67020 eV
One Electron Energy:         -164.85978790 Eh           -4486.06290 eV
Two Electron Energy:           46.50232860 Eh            1265.39269 eV

Virial components:
Potential Energy   :         -224.76016307 Eh           -6116.03497 eV
Kinetic Energy     :          112.06172108 Eh            3049.35446 eV
Virial Ratio       :            2.00568188


DFT components:
N(Alpha)           :        7.000007101976 electrons
N(Beta)            :        7.000007101976 electrons
N(Total)           :       14.000014203952 electrons
E(XC)              :       -9.523030489925 Eh       

---------------
SCF CONVERGENCE
---------------

  Last Energy change         ...   -1.1011e-09  Tolerance :   1.0000e-06
  Last MAX-Density change    ...    4.8553e-06  Tolerance :   1.0000e-05
  Last RMS-Density change    ...    2.8091e-07  Tolerance :   1.0000e-06
  Last DIIS Error            ...    3.3403e-07  Tolerance :   1.0000e-06

             **** THE GBW FILE WAS UPDATED (Scan_40.gbw) ****
             **** DENSITY FILE WAS UPDATED (Scan_40.scfp.tmp) ****
             **** ENERGY FILE WAS UPDATED (Scan_40.en.tmp) ****
----------------
ORBITAL ENERGIES
----------------

  NO   OCC          E(Eh)            E(eV) 
   0   2.0000     -19.385199      -527.4981 
   1   2.0000     -10.432093      -283.8717 
   2   2.0000      -1.039927       -28.2979 
   3   2.0000      -0.640147       -17.4193 
   4   2.0000      -0.446936       -12.1617 
   5   2.0000      -0.446936       -12.1617 
   6   2.0000      -0.295797        -8.0490 
   7   0.0000      -0.156593        -4.2611 
   8   0.0000      -0.036131        -0.9832 
   9   0.0000      -0.036131        -0.9832 
  10   0.0000       0.642559        17.4849 
  11   0.0000       0.649520        17.6743 
  12   0.0000       0.649520        17.6743 
  13   0.0000       0.694550        18.8997 
  14   0.0000       0.961955        26.1761 
  15   0.0000       0.961955        26.1761 
  16   0.0000       0.963494        26.2180 
  17   0.0000       1.061778        28.8925 
  18   0.0000       1.757546        47.8253 
  19   0.0000       1.758378        47.8479 
  20   0.0000       1.777955        48.3806 
  21   0.0000       1.777955        48.3806 
  22   0.0000       1.798431        48.9378 
  23   0.0000       1.837760        50.0080 
  24   0.0000       1.840330        50.0779 
  25   0.0000       1.840330        50.0779 
  26   0.0000       1.883954        51.2650 
  27   0.0000       1.883974        51.2655 

                    ********************************
                    * MULLIKEN POPULATION ANALYSIS *
                    ********************************

-----------------------
MULLIKEN ATOMIC CHARGES
-----------------------
   0 C :    0.014850
   1 O :   -0.014850
Sum of atomic charges:   -0.0000000

--------------------------------
MULLIKEN REDUCED ORBITAL CHARGES
--------------------------------
  0 C s       :     3.999854  s :     3.999854
      pz      :     0.000001  p :     1.985185
      px      :     1.985184
      py      :     0.000001
      dz2     :     0.000028  d :     0.000111
      dxz     :     0.000000
      dyz     :     0.000000
      dx2y2   :     0.000083
      dxy     :     0.000000
  1 O s       :     3.999776  s :     3.999776
      pz      :     1.999999  p :     4.014843
      px      :     0.014844
      py      :     1.999999
      dz2     :     0.000058  d :     0.000231
      dxz     :     0.000000
      dyz     :     0.000000
      dx2y2   :     0.000173
      dxy     :     0.000000


                     *******************************
                     * LOEWDIN POPULATION ANALYSIS *
                     *******************************

----------------------
LOEWDIN ATOMIC CHARGES
----------------------
   0 C :    0.014844
   1 O :   -0.014844

-------------------------------
LOEWDIN REDUCED ORBITAL CHARGES
-------------------------------
  0 C s       :     3.999853  s :     3.999853
      pz      :     0.000001  p :     1.985192
      px      :     1.985190
      py      :     0.000001
      dz2     :     0.000028  d :     0.000111
      dxz     :     0.000000
      dyz     :     0.000000
      dx2y2   :     0.000083
      dxy     :     0.000000
  1 O s       :     3.999774  s :     3.999774
      pz      :     1.999999  p :     4.014839
      px      :     0.014841
      py      :     1.999999
      dz2     :     0.000058  d :     0.000231
      dxz     :     0.000000
      dyz     :     0.000000
      dx2y2   :     0.000173
      dxy     :     0.000000


                      *****************************
                      * MAYER POPULATION ANALYSIS *
                      *****************************

  NA   - Mulliken gross atomic population
  ZA   - Total nuclear charge
  QA   - Mulliken gross atomic charge
  VA   - Mayer's total valence
  BVA  - Mayer's bonded valence
  FA   - Mayer's free valence

  ATOM       NA         ZA         QA         VA         BVA        FA
  0 C      5.9852     6.0000     0.0148     0.0295     0.0295    -0.0000
  1 O      8.0148     8.0000    -0.0148     0.0295     0.0295    -0.0000

  Mayer bond orders larger than 0.1


-------
TIMINGS
-------

Total SCF time: 0 days 0 hours 0 min 20 sec 

Total time                  ....      20.756 sec
Sum of individual times     ....      19.429 sec  ( 93.6%)

Fock matrix formation       ....      18.878 sec  ( 91.0%)
  XC integration            ....       4.938 sec  ( 26.2% of F)
    Basis function eval.    ....       0.461 sec  (  9.3% of XC)
    Density eval.           ....       0.163 sec  (  3.3% of XC)
    XC-Functional eval.     ....       0.991 sec  ( 20.1% of XC)
    XC-Potential eval.      ....       0.030 sec  (  0.6% of XC)
Diagonalization             ....       0.055 sec  (  0.3%)
Density matrix formation    ....       0.000 sec  (  0.0%)
Population analysis         ....       0.041 sec  (  0.2%)
Initial guess               ....       0.248 sec  (  1.2%)
Orbital Transformation      ....       0.000 sec  (  0.0%)
Orbital Orthonormalization  ....       0.000 sec  (  0.0%)
DIIS solution               ....       0.000 sec  (  0.0%)
Grid generation             ....       0.207 sec  (  1.0%)


-------------------------------------------------------------------------------
                          DFT DISPERSION CORRECTION                            
                                                                               
                              DFTD3 V3.1  Rev 1                                
                              USING zero damping                               
-------------------------------------------------------------------------------
The omegaB97X-D3 functional is recognized. Fit by Chai et al.
Active option DFTDOPT                   ...         3   

molecular C6(AA) [au] = 117.463452 


            DFT-D V3
 parameters
 s6 scaling factor         :     1.0000 
 rs6 scaling factor        :     1.2810 
 s8 scaling factor         :     1.0000 
 rs8 scaling factor        :     1.0940 
 Damping factor alpha6     :    14.0000 
 Damping factor alpha8     :    16.0000 
 ad hoc parameters k1-k3   :    16.0000     1.3333    -4.0000 

 Edisp/kcal,au: -0.056385099552  -0.000089855366 
 E6   /kcal   :  -0.041434731 
 E8   /kcal   :  -0.014950369 
 % E8         :  26.514750968 

-------------------------   ----------------
Dispersion correction           -0.000089855
-------------------------   ----------------


-------------------------   --------------------
FINAL SINGLE POINT ENERGY      -112.698531841630
-------------------------   --------------------


                            ***************************************
                            *     ORCA property calculations      *
                            ***************************************

                                    ---------------------
                                    Active property flags
                                    ---------------------
   (+) Dipole Moment


------------------------------------------------------------------------------
                       ORCA ELECTRIC PROPERTIES CALCULATION
------------------------------------------------------------------------------

Dipole Moment Calculation                       ... on
Quadrupole Moment Calculation                   ... off
Polarizability Calculation                      ... off
GBWName                                         ... Scan_40.gbw
Electron density file                           ... Scan_40.scfp.tmp

-------------
DIPOLE MOMENT
-------------
                                X             Y             Z
Electronic contribution:     -0.16045       0.00000      -0.00000
Nuclear contribution   :      0.02847      -0.00000       0.00000
                        -----------------------------------------
Total Dipole Moment    :     -0.13198       0.00000      -0.00000
                        -----------------------------------------
Magnitude (a.u.)       :      0.13198
Magnitude (Debye)      :      0.33547


Timings for individual modules:

Sum of individual times         ...       21.775 sec (=   0.363 min)
GTO integral calculation        ...        0.940 sec (=   0.016 min)   4.3 %
SCF iterations                  ...       20.835 sec (=   0.347 min)  95.7 %
                             ****ORCA TERMINATED NORMALLY****
TOTAL RUN TIME: 0 days 0 hours 0 minutes 22 seconds 737 msec
