
                                 *****************
                                 * O   R   C   A *
                                 *****************

           --- An Ab Initio, DFT and Semiempirical electronic structure package ---

                  #######################################################
                  #                        -***-                        #
                  #  Department of molecular theory and spectroscopy    #
                  #              Directorship: Frank Neese              #
                  # Max Planck Institute for Chemical Energy Conversion #
                  #                  D-45470 Muelheim/Ruhr              #
                  #                       Germany                       #
                  #                                                     #
                  #                  All rights reserved                #
                  #                        -***-                        #
                  #######################################################


                         Program Version 4.0.0.2 - RELEASE -


 With contributions from (in alphabetic order):
   Daniel Aravena         : Magnetic Properties
   Michael Atanasov       : Ab Initio Ligand Field Theory
   Ute Becker             : Parallelization
   Martin Brehm           : Molecular dynamics
   Dmytro Bykov           : SCF Hessian
   Vijay G. Chilkuri      : MRCI spin determinant printing
   Dipayan Datta          : RHF DLPNO-CCSD density
   Achintya Kumar Dutta   : EOM-CC, STEOM-CC
   Dmitry Ganyushin       : Spin-Orbit,Spin-Spin,Magnetic field MRCI
   Yang Guo               : DLPNO-NEVPT2, CIM, IAO-localization
   Andreas Hansen         : Spin unrestricted coupled pair/coupled cluster methods
   Lee Huntington         : MR-EOM, pCC
   Robert Izsak           : Overlap fitted RIJCOSX, COSX-SCS-MP3, EOM
   Christian Kollmar      : KDIIS, OOCD, Brueckner-CCSD(T), CCSD density
   Simone Kossmann        : Meta GGA functionals, TD-DFT gradient, OOMP2, MP2 Hessian
   Martin Krupicka        : AUTO-CI
   Dagmar Lenk            : GEPOL surface
   Dimitrios Liakos       : Extrapolation schemes; parallel MDCI
   Dimitrios Manganas     : ROCIS; embedding schemes
   Dimitrios Pantazis     : SARC Basis sets
   Taras Petrenko         : DFT Hessian,TD-DFT gradient, ASA, ECA, R-Raman, ABS, FL, XAS/XES, NRVS
   Peter Pinski           : DLPNO-MP2
   Christoph Reimann      : Effective Core Potentials
   Marius Retegan         : Local ZFS, SOC
   Christoph Riplinger    : Optimizer, TS searches, QM/MM, DLPNO-CCSD(T), (RO)-DLPNO pert. Triples
   Tobias Risthaus        : Range-separated hybrids, TD-DFT gradient, RPA, STAB
   Michael Roemelt        : Restricted open shell CIS
   Masaaki Saitow         : Open-shell DLPNO
   Barbara Sandhoefer     : DKH picture change effects
   Kantharuban Sivalingam : CASSCF convergence, NEVPT2, FIC-MRCI
   Georgi Stoychev        : AutoAux
   Boris Wezisla          : Elementary symmetry handling
   Frank Wennmohs         : Technical directorship


 We gratefully acknowledge several colleagues who have allowed us to
 interface, adapt or use parts of their codes:
   Stefan Grimme, W. Hujo, H. Kruse,             : VdW corrections, initial TS optimization,
                  C. Bannwarth                     DFT functionals, gCP, sTDA/sTD-DF
   Ed Valeev                                     : LibInt (2-el integral package), F12 methods
   Garnet Chan, S. Sharma, J. Yang, R. Olivares  : DMRG
   Ulf Ekstrom                                   : XCFun DFT Library
   Mihaly Kallay                                 : mrcc  (arbitrary order and MRCC methods)
   Jiri Pittner, Ondrej Demel                    : Mk-CCSD
   Frank Weinhold                                : gennbo (NPA and NBO analysis)
   Christopher J. Cramer and Donald G. Truhlar   : smd solvation model


 Your calculation uses the libint2 library for the computation of 2-el integrals
 For citations please refer to: http://libint.valeyev.net

 This ORCA versions uses:
   CBLAS   interface :  Fast vector & matrix operations
   LAPACKE interface :  Fast linear algebra routines
   SCALAPACK package :  Parallel linear algebra routines


Your calculation utilizes the atom-pairwise dispersion correction
with the zero-damping scheme (D30)
Cite in your paper:
S.Grimme, J.Antony, S.Ehrlich and H.Krieg, J.Chem.Phys., 132, (2010), 154104 
   

XCFun DFT library Copyright 2009-2010 Ulf Ekstrom and contributors.
See http://admol.org/xcfun for more information. This is free soft-
ware; see the source code for copying conditions. There is ABSOLUTELY
NO WARRANTY; not even for MERCHANTABILITY or FITNESS FOR A PARTICULAR
PURPOSE. For details see the documentation. Scientific users of this 
library should cite U. Ekstrom, L. Visscher, R. Bast, A. J. Thorvald-
sen and K. Ruud; J.Chem.Theor.Comp. 2010, DOI: 10.1021/ct100117s
XCFun Version 0.99 
Your calculation utilizes the basis: 6-31G(d)
   H-He, Li-Ne : W. J. Hehre, R. Ditchfield and J.A. Pople, J. Chem. Phys. 56, 2257 (1972).
                 Note: He and Ne are unpublished basis sets taken from the Gaussian program.
                 Note: Li and B from J. D. Dill and J. A. Pople, J. Chem. Phys. 62, 2921 (1975).
   Na - Ar     : M. M. Francl, W. J. Pietro, W. J. Hehre, J. S. Binkley, M. S. Gordon, 
                 D. J. DeFrees and J. A. Pople, J. Chem. Phys. 77, 3654 (1982).
   K - Zn      : V. A. Rassolov, J. A. Pople, M. A. Ratner, and T. L. Windus, J. Chem. Phys. 109, 1223 (1998).

================================================================================
                                        WARNINGS
                       Please study these warnings very carefully!
================================================================================

Warning: TCutStore was < 0. Adjusted to Thresh (uncritical)

INFO   : the flag for use of LIBINT has been found!

================================================================================
                                       INPUT FILE
================================================================================
NAME = initial41.inp
|  1> ! WB97X-D3 6-31G(d) VerySlowConv
|  2> ! KDIIS NOSOSCF
|  3> %base "Scan_41"
|  4> 
|  5> %scf
|  6> maxiter 999
|  7> end
|  8> 
|  9> * xyz 0 1
| 10> C         -2.424911824998    1.613610000000   -0.000000000000
| 11> O          2.165871824998    1.613610000000   -0.000000000000
| 12> **                         ****END OF INPUT****
================================================================================

                       ****************************
                       * Single Point Calculation *
                       ****************************

---------------------------------
CARTESIAN COORDINATES (ANGSTROEM)
---------------------------------
  C     -2.424912    1.613610   -0.000000
  O      2.165872    1.613610   -0.000000

----------------------------
CARTESIAN COORDINATES (A.U.)
----------------------------
  NO LB      ZA    FRAG     MASS         X           Y           Z
   0 C     6.0000    0    12.011   -4.582419    3.049281   -0.000000
   1 O     8.0000    0    15.999    4.092905    3.049281   -0.000000

--------------------------------
INTERNAL COORDINATES (ANGSTROEM)
--------------------------------
 C      0   0   0     0.000000000000     0.00000000     0.00000000
 O      1   0   0     4.590783649996     0.00000000     0.00000000

---------------------------
INTERNAL COORDINATES (A.U.)
---------------------------
 C      0   0   0     0.000000000000     0.00000000     0.00000000
 O      1   0   0     8.675323838576     0.00000000     0.00000000

---------------------
BASIS SET INFORMATION
---------------------
There are 2 groups of distinct atoms

 Group   1 Type C   : 10s4p1d contracted to 3s2p1d pattern {631/31/1}
 Group   2 Type O   : 10s4p1d contracted to 3s2p1d pattern {631/31/1}

Atom   0C    basis set group =>   1
Atom   1O    basis set group =>   2
------------------------------------------------------------------------------
                           ORCA GTO INTEGRAL CALCULATION
------------------------------------------------------------------------------

                         BASIS SET STATISTICS AND STARTUP INFO

 # of primitive gaussian shells          ...   30
 # of primitive gaussian functions       ...   54
 # of contracted shells                  ...   12
 # of contracted basis functions         ...   28
 Highest angular momentum                ...    2
 Maximum contraction depth               ...    6
 Integral package used                   ... LIBINT
 Integral threshhold            Thresh   ...  1.000e-10
 Primitive cut-off              TCut     ...  1.000e-11


------------------------------ INTEGRAL EVALUATION ----------------------------


 * One electron integrals 
 Pre-screening matrix                    ... done
 Shell pair data                         ... done (   0.000 sec)

-------------------------------------------------------------------------------
                                 ORCA SCF
-------------------------------------------------------------------------------

------------
SCF SETTINGS
------------
Hamiltonian:
 Density Functional     Method          .... DFT(GTOs)
 Exchange Functional    Exchange        .... WB97X-D3
 Correlation Functional Correlation     .... WB97X-D3
 Gradients option       PostSCFGGA      .... off
 Hybrid DFT is turned on
   Fraction HF Exchange ScalHFX         ....  0.195728
   Scaling of DF-GGA-X  ScalDFX         ....  0.000000
   Scaling of DF-GGA-C  ScalDFC         ....  1.000000
   Scaling of DF-LDA-C  ScalLDAC        ....  1.000000
   Perturbative correction              ....  0.000000
 Long-range corrected/Screened/Range-Separated Hybrid DFT is turned on
   Amount of maximum screened exact exchange              ....  0.804272
   Range separation parameter mu (erf(mu*r12)/r12)        ....  0.250000


General Settings:
 Integral files         IntName         .... Scan_41
 Hartree-Fock type      HFTyp           .... RHF
 Total Charge           Charge          ....    0
 Multiplicity           Mult            ....    1
 Number of Electrons    NEL             ....   14
 Basis Dimension        Dim             ....   28
 Nuclear Repulsion      ENuc            ....      5.5329346654 Eh

Convergence Acceleration:
 DIIS                   CNVDIIS         .... on
   Start iteration      DIISMaxIt       ....     0
   Startup error        DIISStart       ....  0.200000
   # of expansion vecs  DIISMaxEq       ....     5
   Bias factor          DIISBfac        ....   1.050
   Max. coefficient     DIISMaxC        ....  10.000
 Newton-Raphson         CNVNR           .... off
 SOSCF                  CNVSOSCF        .... off
 Level Shifting         CNVShift        .... off
 Zerner damping         CNVZerner       .... off
 Static damping         CNVDamp         .... off
 Fernandez-Rico         CNVRico         .... off

SCF Procedure:
 Maximum # iterations   MaxIter         ....   999
 SCF integral mode      SCFMode         .... Direct
   Integral package                     .... LIBINT
 Reset frequeny         DirectResetFreq ....    20
 Integral Threshold     Thresh          ....  1.000e-10 Eh
 Primitive CutOff       TCut            ....  1.000e-11 Eh

Convergence Tolerance:
 Convergence Check Mode ConvCheckMode   .... All-Criteria
 Convergence forced     ConvForced      .... 0
 Energy Change          TolE            ....  1.000e-06 Eh
 Max Density Change     TolMaxP         ....  1.000e-05
 RMS Density Change     TolRMSP         ....  1.000e-06
 DIIS Error             TolErr          ....  1.000e-06


Diagonalization of the overlap matrix:
Smallest eigenvalue                        ... 1.869e-01
Time for diagonalization                   ...    0.001 sec
Threshold for overlap eigenvalues          ... 1.000e-08
Number of eigenvalues below threshold      ... 0
Time for construction of square roots      ...    0.033 sec
Total time needed                          ...    0.034 sec

-------------------
DFT GRID GENERATION
-------------------

General Integration Accuracy     IntAcc      ...  4.340
Radial Grid Type                 RadialGrid  ... Gauss-Chebyshev
Angular Grid (max. acc.)         AngularGrid ... Lebedev-110
Angular grid pruning method      GridPruning ... 3 (G Style)
Weight generation scheme         WeightScheme... Becke
Basis function cutoff            BFCut       ...    1.0000e-10
Integration weight cutoff        WCut        ...    1.0000e-14
Grids for H and He will be reduced by one unit

# of grid points (after initial pruning)     ...   3372 (   0.0 sec)
# of grid points (after weights+screening)   ...   3363 (   0.0 sec)
nearest neighbour list constructed           ...    0.0 sec
Grid point re-assignment to atoms done       ...    0.0 sec
Grid point division into batches done        ...    0.0 sec
Reduced shell lists constructed in    0.0 sec

Total number of grid points                  ...     3363
Total number of batches                      ...       54
Average number of points per batch           ...       62
Average number of grid points per atom       ...     1682
Average number of shells per batch           ...     7.85 (65.45%)
Average number of basis functions per batch  ...    18.44 (65.84%)
Average number of large shells per batch     ...     5.95 (75.69%)
Average number of large basis fcns per batch ...    14.24 (77.22%)
Maximum spatial batch extension              ...  20.38, 27.48, 31.36 au
Average spatial batch extension              ...   7.09,  6.76,  7.31 au

Time for grid setup =    0.047 sec

------------------------------
INITIAL GUESS: MODEL POTENTIAL
------------------------------
Loading Hartree-Fock densities                     ... done
Calculating cut-offs                               ... done
Setting up the integral package                    ... done
Initializing the effective Hamiltonian             ... done
Starting the Coulomb interaction                   ... done (   0.0 sec)
Reading the grid                                   ... done
Mapping shells                                     ... done
Starting the XC term evaluation                    ... done (   0.0 sec)
  promolecular density results
     # of electrons  =     14.000053908
     EX              =    -12.943357120
     EC              =     -0.402734830
     EX+EC           =    -13.346091950
Transforming the Hamiltonian                       ... done (   0.0 sec)
Diagonalizing the Hamiltonian                      ... done (   0.0 sec)
Back transforming the eigenvectors                 ... done (   0.0 sec)
Now organizing SCF variables                       ... done
                      ------------------
                      INITIAL GUESS DONE (   0.4 sec)
                      ------------------
--------------
SCF ITERATIONS
--------------
ITER       Energy         Delta-E        Max-DP      RMS-DP      [F,P]   Gradient Norm
               ***  Starting incremental Fock matrix formation  ***
                             ****Resetting KDIIS****
                             ****Turning on KDIIS(Cayley)****
  0   -111.0525257837   0.000000000000 0.05573960  0.00561640  0.3759004   0.286377000
  1   -111.1705228632  -0.117997079490 0.12242949  0.01155419  0.3256327   0.247439025
  2   -111.3680413397  -0.197518476496 0.16111620  0.01499467  0.2070322   0.163504745
  3   -111.5253626143  -0.157321274600 0.30116264  0.01579211  0.1424613   0.082014818
  4   -111.6156917044  -0.090329090139 0.09149596  0.00903472  0.1930305   0.091447286
  5   -111.5735617922   0.042129912256 0.07634593  0.00797675  0.1820513   0.077604528
  6   -111.5722986678   0.001263124312 0.21068706  0.01722890  0.2244783   0.112054412
  7   -111.7659372661  -0.193638598226 0.03694242  0.00361415  0.3028170   0.118759557
  8   -111.8175790633  -0.051641797238 0.04027775  0.00456471  0.3244879   0.125989246
  9   -111.8148401252   0.002738938060 0.02310169  0.00285932  0.3281652   0.127192556
 10   -111.8199156913  -0.005075566067 0.27050070  0.02804217  0.3277792   0.126833399
 11   -111.8543381390  -0.034422447657 0.04385073  0.00449323  0.3034393   0.123627845
 12   -111.8728076432  -0.018469504234 0.29343592  0.03051871  0.3078793   0.122170333
 13   -112.1688177863  -0.296010143118 0.46426654  0.03206566  0.3420233   0.136033164
 14   -112.5769036280  -0.408085841715 0.08589568  0.00973547  0.0911946   0.071895132
 15   -112.6406197948  -0.063716166735 0.20852884  0.01710676  0.0595024   0.047726165
 16   -112.6876043687  -0.046984573958 0.09168228  0.00859174  0.0424024   0.029417384
 17   -112.6954735027  -0.007869133970 0.04121934  0.00375954  0.0273007   0.019241285
 18   -112.6977829550  -0.002309452277 0.02609430  0.00215313  0.0069238   0.005253471
 19   -112.6984107854  -0.000627830462 0.00438071  0.00026779  0.0030485   0.001927974
               *** Restarting incremental Fock matrix formation ***
                             ****Resetting KDIIS****
 20   -112.6984718305  -0.000061045024 0.00079376  0.00006175  0.0026564   0.001768746
 21   -112.6984868952  -0.000015064771 0.00270734  0.00016331  0.0025318   0.001531836
 22   -112.6985198574  -0.000032962168 0.00994798  0.00057466  0.0022992   0.001419024
 23   -112.6986137311  -0.000093873723 0.02117903  0.00121005  0.0015595   0.000902222
 24   -112.6987105235  -0.000096792389 0.01355828  0.00076333  0.0004321   0.000320666
 25   -112.6987205870  -0.000010063507 0.00226339  0.00012778  0.0000904   0.000045083
                          ***Energy convergence achieved***
 26   -112.6987212019  -0.000000614907 0.00019784  0.00001125  0.0000306   0.000023376
 27   -112.6987212192  -0.000000017323 0.00030700  0.00001728  0.0000130   0.000010538
Warning: badly conditioned DIIS matrix, 1 vectors out of 5 destroyed

            ***Energy convergence in two consecutive cycles with***
                    ***'reasonable' density convergence***
                       *** signaling convergence ***

                    *** KDIIS BlockDiag ( 0.000 sec) ***

               *****************************************************
               *                     SUCCESS                       *
               *           SCF CONVERGED AFTER  28 CYCLES          *
               *****************************************************

Setting up the final grid:

General Integration Accuracy     IntAcc      ...  4.670
Radial Grid Type                 RadialGrid  ... Gauss-Chebyshev
Angular Grid (max. acc.)         AngularGrid ... Lebedev-302
Angular grid pruning method      GridPruning ... 3 (G Style)
Weight generation scheme         WeightScheme... Becke
Basis function cutoff            BFCut       ...    1.0000e-10
Integration weight cutoff        WCut        ...    1.0000e-14
Grids for H and He will be reduced by one unit

# of grid points (after initial pruning)     ...  12424 (   0.0 sec)
# of grid points (after weights+screening)   ...  12413 (   0.0 sec)
nearest neighbour list constructed           ...    0.0 sec
Grid point re-assignment to atoms done       ...    0.0 sec
Grid point division into batches done        ...    0.1 sec
Reduced shell lists constructed in    0.1 sec

Total number of grid points                  ...    12413
Total number of batches                      ...      195
Average number of points per batch           ...       63
Average number of grid points per atom       ...     6206
Average number of shells per batch           ...     6.70 (55.87%)
Average number of basis functions per batch  ...    15.76 (56.27%)
Average number of large shells per batch     ...     5.45 (81.35%)
Average number of large basis fcns per batch ...    13.01 (82.55%)
Maximum spatial batch extension              ...  17.52, 20.64, 18.61 au
Average spatial batch extension              ...   4.25,  4.47,  4.39 au

Final grid set up in    0.1 sec
Final integration                            ... done (   0.1 sec)
Change in XC energy                          ...     0.000489038
Integrated number of electrons               ...    14.000002888
Previous integrated no of electrons          ...    13.999246761

----------------
TOTAL SCF ENERGY
----------------

Total Energy       :         -112.69823219 Eh           -3066.67480 eV

Components:
Nuclear Repulsion  :            5.53293467 Eh             150.55881 eV
Electronic Energy  :         -118.23116686 Eh           -3217.23361 eV
One Electron Energy:         -164.59899967 Eh           -4478.96649 eV
Two Electron Energy:           46.36783281 Eh            1261.73288 eV

Virial components:
Potential Energy   :         -224.76102355 Eh           -6116.05839 eV
Kinetic Energy     :          112.06279135 Eh            3049.38358 eV
Virial Ratio       :            2.00567040


DFT components:
N(Alpha)           :        7.000001443771 electrons
N(Beta)            :        7.000001443771 electrons
N(Total)           :       14.000002887541 electrons
E(XC)              :       -9.523260899767 Eh       

---------------
SCF CONVERGENCE
---------------

  Last Energy change         ...   -1.0285e-08  Tolerance :   1.0000e-06
  Last MAX-Density change    ...    3.7647e-05  Tolerance :   1.0000e-05
  Last RMS-Density change    ...    2.1156e-06  Tolerance :   1.0000e-06
  Last DIIS Error            ...    1.7133e-06  Tolerance :   1.0000e-06

             **** THE GBW FILE WAS UPDATED (Scan_41.gbw) ****
             **** DENSITY FILE WAS UPDATED (Scan_41.scfp.tmp) ****
             **** ENERGY FILE WAS UPDATED (Scan_41.en.tmp) ****
----------------
ORBITAL ENERGIES
----------------

  NO   OCC          E(Eh)            E(eV) 
   0   2.0000     -19.387933      -527.5725 
   1   2.0000     -10.429731      -283.8074 
   2   2.0000      -1.042233       -28.3606 
   3   2.0000      -0.638331       -17.3699 
   4   2.0000      -0.449252       -12.2248 
   5   2.0000      -0.449252       -12.2248 
   6   2.0000      -0.294276        -8.0076 
   7   0.0000      -0.158344        -4.3088 
   8   0.0000      -0.034472        -0.9380 
   9   0.0000      -0.034472        -0.9380 
  10   0.0000       0.644306        17.5325 
  11   0.0000       0.651009        17.7149 
  12   0.0000       0.651009        17.7149 
  13   0.0000       0.696066        18.9409 
  14   0.0000       0.960063        26.1247 
  15   0.0000       0.960063        26.1247 
  16   0.0000       0.961392        26.1608 
  17   0.0000       1.059824        28.8393 
  18   0.0000       1.759406        47.8759 
  19   0.0000       1.760242        47.8986 
  20   0.0000       1.779881        48.4330 
  21   0.0000       1.779881        48.4330 
  22   0.0000       1.800552        48.9955 
  23   0.0000       1.835650        49.9506 
  24   0.0000       1.838045        50.0158 
  25   0.0000       1.838045        50.0158 
  26   0.0000       1.881798        51.2063 
  27   0.0000       1.881819        51.2069 

                    ********************************
                    * MULLIKEN POPULATION ANALYSIS *
                    ********************************

-----------------------
MULLIKEN ATOMIC CHARGES
-----------------------
   0 C :    0.009886
   1 O :   -0.009886
Sum of atomic charges:   -0.0000000

--------------------------------
MULLIKEN REDUCED ORBITAL CHARGES
--------------------------------
  0 C s       :     3.999867  s :     3.999867
      pz      :     0.000000  p :     1.990136
      px      :     1.990135
      py      :     0.000000
      dz2     :     0.000028  d :     0.000112
      dxz     :     0.000000
      dyz     :     0.000000
      dx2y2   :     0.000084
      dxy     :     0.000000
  1 O s       :     3.999773  s :     3.999773
      pz      :     2.000000  p :     4.009882
      px      :     0.009883
      py      :     2.000000
      dz2     :     0.000058  d :     0.000230
      dxz     :     0.000000
      dyz     :     0.000000
      dx2y2   :     0.000173
      dxy     :     0.000000


                     *******************************
                     * LOEWDIN POPULATION ANALYSIS *
                     *******************************

----------------------
LOEWDIN ATOMIC CHARGES
----------------------
   0 C :    0.009882
   1 O :   -0.009882

-------------------------------
LOEWDIN REDUCED ORBITAL CHARGES
-------------------------------
  0 C s       :     3.999866  s :     3.999866
      pz      :     0.000000  p :     1.990140
      px      :     1.990139
      py      :     0.000000
      dz2     :     0.000028  d :     0.000112
      dxz     :     0.000000
      dyz     :     0.000000
      dx2y2   :     0.000084
      dxy     :     0.000000
  1 O s       :     3.999772  s :     3.999772
      pz      :     2.000000  p :     4.009879
      px      :     0.009880
      py      :     2.000000
      dz2     :     0.000058  d :     0.000230
      dxz     :     0.000000
      dyz     :     0.000000
      dx2y2   :     0.000173
      dxy     :     0.000000


                      *****************************
                      * MAYER POPULATION ANALYSIS *
                      *****************************

  NA   - Mulliken gross atomic population
  ZA   - Total nuclear charge
  QA   - Mulliken gross atomic charge
  VA   - Mayer's total valence
  BVA  - Mayer's bonded valence
  FA   - Mayer's free valence

  ATOM       NA         ZA         QA         VA         BVA        FA
  0 C      5.9901     6.0000     0.0099     0.0197     0.0197    -0.0000
  1 O      8.0099     8.0000    -0.0099     0.0197     0.0197     0.0000

  Mayer bond orders larger than 0.1


-------
TIMINGS
-------

Total SCF time: 0 days 0 hours 0 min 20 sec 

Total time                  ....      20.032 sec
Sum of individual times     ....      18.805 sec  ( 93.9%)

Fock matrix formation       ....      18.120 sec  ( 90.5%)
  XC integration            ....       4.120 sec  ( 22.7% of F)
    Basis function eval.    ....       0.259 sec  (  6.3% of XC)
    Density eval.           ....       0.185 sec  (  4.5% of XC)
    XC-Functional eval.     ....       0.851 sec  ( 20.7% of XC)
    XC-Potential eval.      ....       0.076 sec  (  1.9% of XC)
Diagonalization             ....       0.057 sec  (  0.3%)
Density matrix formation    ....       0.000 sec  (  0.0%)
Population analysis         ....       0.066 sec  (  0.3%)
Initial guess               ....       0.371 sec  (  1.9%)
Orbital Transformation      ....       0.000 sec  (  0.0%)
Orbital Orthonormalization  ....       0.000 sec  (  0.0%)
DIIS solution               ....       0.000 sec  (  0.0%)
Grid generation             ....       0.190 sec  (  0.9%)


-------------------------------------------------------------------------------
                          DFT DISPERSION CORRECTION                            
                                                                               
                              DFTD3 V3.1  Rev 1                                
                              USING zero damping                               
-------------------------------------------------------------------------------
The omegaB97X-D3 functional is recognized. Fit by Chai et al.
Active option DFTDOPT                   ...         3   

molecular C6(AA) [au] = 117.463480 


            DFT-D V3
 parameters
 s6 scaling factor         :     1.0000 
 rs6 scaling factor        :     1.2810 
 s8 scaling factor         :     1.0000 
 rs8 scaling factor        :     1.0940 
 Damping factor alpha6     :    14.0000 
 Damping factor alpha8     :    16.0000 
 ad hoc parameters k1-k3   :    16.0000     1.3333    -4.0000 

 Edisp/kcal,au: -0.049416102287  -0.000078749563 
 E6   /kcal   :  -0.036919004 
 E8   /kcal   :  -0.012497098 
 % E8         :  25.289526789 

-------------------------   ----------------
Dispersion correction           -0.000078750
-------------------------   ----------------


-------------------------   --------------------
FINAL SINGLE POINT ENERGY      -112.698310941384
-------------------------   --------------------


                            ***************************************
                            *     ORCA property calculations      *
                            ***************************************

                                    ---------------------
                                    Active property flags
                                    ---------------------
   (+) Dipole Moment


------------------------------------------------------------------------------
                       ORCA ELECTRIC PROPERTIES CALCULATION
------------------------------------------------------------------------------

Dipole Moment Calculation                       ... on
Quadrupole Moment Calculation                   ... off
Polarizability Calculation                      ... off
GBWName                                         ... Scan_41.gbw
Electron density file                           ... Scan_41.scfp.tmp

-------------
DIPOLE MOMENT
-------------
                                X             Y             Z
Electronic contribution:     -0.12072       0.00000       0.00000
Nuclear contribution   :      0.02911      -0.00000       0.00000
                        -----------------------------------------
Total Dipole Moment    :     -0.09160       0.00000       0.00000
                        -----------------------------------------
Magnitude (a.u.)       :      0.09160
Magnitude (Debye)      :      0.23283


Timings for individual modules:

Sum of individual times         ...       20.769 sec (=   0.346 min)
GTO integral calculation        ...        0.697 sec (=   0.012 min)   3.4 %
SCF iterations                  ...       20.072 sec (=   0.335 min)  96.6 %
                             ****ORCA TERMINATED NORMALLY****
TOTAL RUN TIME: 0 days 0 hours 0 minutes 21 seconds 822 msec
