
                                 *****************
                                 * O   R   C   A *
                                 *****************

           --- An Ab Initio, DFT and Semiempirical electronic structure package ---

                  #######################################################
                  #                        -***-                        #
                  #  Department of molecular theory and spectroscopy    #
                  #              Directorship: Frank Neese              #
                  # Max Planck Institute for Chemical Energy Conversion #
                  #                  D-45470 Muelheim/Ruhr              #
                  #                       Germany                       #
                  #                                                     #
                  #                  All rights reserved                #
                  #                        -***-                        #
                  #######################################################


                         Program Version 4.0.0.2 - RELEASE -


 With contributions from (in alphabetic order):
   Daniel Aravena         : Magnetic Properties
   Michael Atanasov       : Ab Initio Ligand Field Theory
   Ute Becker             : Parallelization
   Martin Brehm           : Molecular dynamics
   Dmytro Bykov           : SCF Hessian
   Vijay G. Chilkuri      : MRCI spin determinant printing
   Dipayan Datta          : RHF DLPNO-CCSD density
   Achintya Kumar Dutta   : EOM-CC, STEOM-CC
   Dmitry Ganyushin       : Spin-Orbit,Spin-Spin,Magnetic field MRCI
   Yang Guo               : DLPNO-NEVPT2, CIM, IAO-localization
   Andreas Hansen         : Spin unrestricted coupled pair/coupled cluster methods
   Lee Huntington         : MR-EOM, pCC
   Robert Izsak           : Overlap fitted RIJCOSX, COSX-SCS-MP3, EOM
   Christian Kollmar      : KDIIS, OOCD, Brueckner-CCSD(T), CCSD density
   Simone Kossmann        : Meta GGA functionals, TD-DFT gradient, OOMP2, MP2 Hessian
   Martin Krupicka        : AUTO-CI
   Dagmar Lenk            : GEPOL surface
   Dimitrios Liakos       : Extrapolation schemes; parallel MDCI
   Dimitrios Manganas     : ROCIS; embedding schemes
   Dimitrios Pantazis     : SARC Basis sets
   Taras Petrenko         : DFT Hessian,TD-DFT gradient, ASA, ECA, R-Raman, ABS, FL, XAS/XES, NRVS
   Peter Pinski           : DLPNO-MP2
   Christoph Reimann      : Effective Core Potentials
   Marius Retegan         : Local ZFS, SOC
   Christoph Riplinger    : Optimizer, TS searches, QM/MM, DLPNO-CCSD(T), (RO)-DLPNO pert. Triples
   Tobias Risthaus        : Range-separated hybrids, TD-DFT gradient, RPA, STAB
   Michael Roemelt        : Restricted open shell CIS
   Masaaki Saitow         : Open-shell DLPNO
   Barbara Sandhoefer     : DKH picture change effects
   Kantharuban Sivalingam : CASSCF convergence, NEVPT2, FIC-MRCI
   Georgi Stoychev        : AutoAux
   Boris Wezisla          : Elementary symmetry handling
   Frank Wennmohs         : Technical directorship


 We gratefully acknowledge several colleagues who have allowed us to
 interface, adapt or use parts of their codes:
   Stefan Grimme, W. Hujo, H. Kruse,             : VdW corrections, initial TS optimization,
                  C. Bannwarth                     DFT functionals, gCP, sTDA/sTD-DF
   Ed Valeev                                     : LibInt (2-el integral package), F12 methods
   Garnet Chan, S. Sharma, J. Yang, R. Olivares  : DMRG
   Ulf Ekstrom                                   : XCFun DFT Library
   Mihaly Kallay                                 : mrcc  (arbitrary order and MRCC methods)
   Jiri Pittner, Ondrej Demel                    : Mk-CCSD
   Frank Weinhold                                : gennbo (NPA and NBO analysis)
   Christopher J. Cramer and Donald G. Truhlar   : smd solvation model


 Your calculation uses the libint2 library for the computation of 2-el integrals
 For citations please refer to: http://libint.valeyev.net

 This ORCA versions uses:
   CBLAS   interface :  Fast vector & matrix operations
   LAPACKE interface :  Fast linear algebra routines
   SCALAPACK package :  Parallel linear algebra routines


Your calculation utilizes the atom-pairwise dispersion correction
with the zero-damping scheme (D30)
Cite in your paper:
S.Grimme, J.Antony, S.Ehrlich and H.Krieg, J.Chem.Phys., 132, (2010), 154104 
   

XCFun DFT library Copyright 2009-2010 Ulf Ekstrom and contributors.
See http://admol.org/xcfun for more information. This is free soft-
ware; see the source code for copying conditions. There is ABSOLUTELY
NO WARRANTY; not even for MERCHANTABILITY or FITNESS FOR A PARTICULAR
PURPOSE. For details see the documentation. Scientific users of this 
library should cite U. Ekstrom, L. Visscher, R. Bast, A. J. Thorvald-
sen and K. Ruud; J.Chem.Theor.Comp. 2010, DOI: 10.1021/ct100117s
XCFun Version 0.99 
Your calculation utilizes the basis: 6-31G(d)
   H-He, Li-Ne : W. J. Hehre, R. Ditchfield and J.A. Pople, J. Chem. Phys. 56, 2257 (1972).
                 Note: He and Ne are unpublished basis sets taken from the Gaussian program.
                 Note: Li and B from J. D. Dill and J. A. Pople, J. Chem. Phys. 62, 2921 (1975).
   Na - Ar     : M. M. Francl, W. J. Pietro, W. J. Hehre, J. S. Binkley, M. S. Gordon, 
                 D. J. DeFrees and J. A. Pople, J. Chem. Phys. 77, 3654 (1982).
   K - Zn      : V. A. Rassolov, J. A. Pople, M. A. Ratner, and T. L. Windus, J. Chem. Phys. 109, 1223 (1998).

================================================================================
                                        WARNINGS
                       Please study these warnings very carefully!
================================================================================

Warning: TCutStore was < 0. Adjusted to Thresh (uncritical)

INFO   : the flag for use of LIBINT has been found!

================================================================================
                                       INPUT FILE
================================================================================
NAME = initial43.inp
|  1> ! WB97X-D3 6-31G(d) VerySlowConv
|  2> ! KDIIS NOSOSCF
|  3> %base "Scan_43"
|  4> 
|  5> %scf
|  6> maxiter 999
|  7> end
|  8> 
|  9> * xyz 0 1
| 10> C         -2.527193313060    1.613610000000    0.000000000000
| 11> O          2.268153313060    1.613610000000    0.000000000000
| 12> **                         ****END OF INPUT****
================================================================================

                       ****************************
                       * Single Point Calculation *
                       ****************************

---------------------------------
CARTESIAN COORDINATES (ANGSTROEM)
---------------------------------
  C     -2.527193    1.613610    0.000000
  O      2.268153    1.613610    0.000000

----------------------------
CARTESIAN COORDINATES (A.U.)
----------------------------
  NO LB      ZA    FRAG     MASS         X           Y           Z
   0 C     6.0000    0    12.011   -4.775703    3.049281    0.000000
   1 O     8.0000    0    15.999    4.286189    3.049281    0.000000

--------------------------------
INTERNAL COORDINATES (ANGSTROEM)
--------------------------------
 C      0   0   0     0.000000000000     0.00000000     0.00000000
 O      1   0   0     4.795346626120     0.00000000     0.00000000

---------------------------
INTERNAL COORDINATES (A.U.)
---------------------------
 C      0   0   0     0.000000000000     0.00000000     0.00000000
 O      1   0   0     9.061891840590     0.00000000     0.00000000

---------------------
BASIS SET INFORMATION
---------------------
There are 2 groups of distinct atoms

 Group   1 Type C   : 10s4p1d contracted to 3s2p1d pattern {631/31/1}
 Group   2 Type O   : 10s4p1d contracted to 3s2p1d pattern {631/31/1}

Atom   0C    basis set group =>   1
Atom   1O    basis set group =>   2
------------------------------------------------------------------------------
                           ORCA GTO INTEGRAL CALCULATION
------------------------------------------------------------------------------

                         BASIS SET STATISTICS AND STARTUP INFO

 # of primitive gaussian shells          ...   30
 # of primitive gaussian functions       ...   54
 # of contracted shells                  ...   12
 # of contracted basis functions         ...   28
 Highest angular momentum                ...    2
 Maximum contraction depth               ...    6
 Integral package used                   ... LIBINT
 Integral threshhold            Thresh   ...  1.000e-10
 Primitive cut-off              TCut     ...  1.000e-11


------------------------------ INTEGRAL EVALUATION ----------------------------


 * One electron integrals 
 Pre-screening matrix                    ... done
 Shell pair data                         ... done (   0.000 sec)

-------------------------------------------------------------------------------
                                 ORCA SCF
-------------------------------------------------------------------------------

------------
SCF SETTINGS
------------
Hamiltonian:
 Density Functional     Method          .... DFT(GTOs)
 Exchange Functional    Exchange        .... WB97X-D3
 Correlation Functional Correlation     .... WB97X-D3
 Gradients option       PostSCFGGA      .... off
 Hybrid DFT is turned on
   Fraction HF Exchange ScalHFX         ....  0.195728
   Scaling of DF-GGA-X  ScalDFX         ....  0.000000
   Scaling of DF-GGA-C  ScalDFC         ....  1.000000
   Scaling of DF-LDA-C  ScalLDAC        ....  1.000000
   Perturbative correction              ....  0.000000
 Long-range corrected/Screened/Range-Separated Hybrid DFT is turned on
   Amount of maximum screened exact exchange              ....  0.804272
   Range separation parameter mu (erf(mu*r12)/r12)        ....  0.250000


General Settings:
 Integral files         IntName         .... Scan_43
 Hartree-Fock type      HFTyp           .... RHF
 Total Charge           Charge          ....    0
 Multiplicity           Mult            ....    1
 Number of Electrons    NEL             ....   14
 Basis Dimension        Dim             ....   28
 Nuclear Repulsion      ENuc            ....      5.2969071850 Eh

Convergence Acceleration:
 DIIS                   CNVDIIS         .... on
   Start iteration      DIISMaxIt       ....     0
   Startup error        DIISStart       ....  0.200000
   # of expansion vecs  DIISMaxEq       ....     5
   Bias factor          DIISBfac        ....   1.050
   Max. coefficient     DIISMaxC        ....  10.000
 Newton-Raphson         CNVNR           .... off
 SOSCF                  CNVSOSCF        .... off
 Level Shifting         CNVShift        .... off
 Zerner damping         CNVZerner       .... off
 Static damping         CNVDamp         .... off
 Fernandez-Rico         CNVRico         .... off

SCF Procedure:
 Maximum # iterations   MaxIter         ....   999
 SCF integral mode      SCFMode         .... Direct
   Integral package                     .... LIBINT
 Reset frequeny         DirectResetFreq ....    20
 Integral Threshold     Thresh          ....  1.000e-10 Eh
 Primitive CutOff       TCut            ....  1.000e-11 Eh

Convergence Tolerance:
 Convergence Check Mode ConvCheckMode   .... All-Criteria
 Convergence forced     ConvForced      .... 0
 Energy Change          TolE            ....  1.000e-06 Eh
 Max Density Change     TolMaxP         ....  1.000e-05
 RMS Density Change     TolRMSP         ....  1.000e-06
 DIIS Error             TolErr          ....  1.000e-06


Diagonalization of the overlap matrix:
Smallest eigenvalue                        ... 1.869e-01
Time for diagonalization                   ...    0.001 sec
Threshold for overlap eigenvalues          ... 1.000e-08
Number of eigenvalues below threshold      ... 0
Time for construction of square roots      ...    0.007 sec
Total time needed                          ...    0.008 sec

-------------------
DFT GRID GENERATION
-------------------

General Integration Accuracy     IntAcc      ...  4.340
Radial Grid Type                 RadialGrid  ... Gauss-Chebyshev
Angular Grid (max. acc.)         AngularGrid ... Lebedev-110
Angular grid pruning method      GridPruning ... 3 (G Style)
Weight generation scheme         WeightScheme... Becke
Basis function cutoff            BFCut       ...    1.0000e-10
Integration weight cutoff        WCut        ...    1.0000e-14
Grids for H and He will be reduced by one unit

# of grid points (after initial pruning)     ...   3372 (   0.0 sec)
# of grid points (after weights+screening)   ...   3363 (   0.0 sec)
nearest neighbour list constructed           ...    0.0 sec
Grid point re-assignment to atoms done       ...    0.0 sec
Grid point division into batches done        ...    0.0 sec
Reduced shell lists constructed in    0.0 sec

Total number of grid points                  ...     3363
Total number of batches                      ...       54
Average number of points per batch           ...       62
Average number of grid points per atom       ...     1682
Average number of shells per batch           ...     7.71 (64.24%)
Average number of basis functions per batch  ...    18.22 (65.06%)
Average number of large shells per batch     ...     5.89 (76.42%)
Average number of large basis fcns per batch ...    14.04 (77.05%)
Maximum spatial batch extension              ...  20.02, 27.48, 31.36 au
Average spatial batch extension              ...   6.87,  6.84,  7.39 au

Time for grid setup =    0.019 sec

------------------------------
INITIAL GUESS: MODEL POTENTIAL
------------------------------
Loading Hartree-Fock densities                     ... done
Calculating cut-offs                               ... done
Setting up the integral package                    ... done
Initializing the effective Hamiltonian             ... done
Starting the Coulomb interaction                   ... done (   0.0 sec)
Reading the grid                                   ... done
Mapping shells                                     ... done
Starting the XC term evaluation                    ... done (   0.0 sec)
  promolecular density results
     # of electrons  =     14.000001558
     EX              =    -12.943327172
     EC              =     -0.402730237
     EX+EC           =    -13.346057410
Transforming the Hamiltonian                       ... done (   0.0 sec)
Diagonalizing the Hamiltonian                      ... done (   0.0 sec)
Back transforming the eigenvectors                 ... done (   0.0 sec)
Now organizing SCF variables                       ... done
                      ------------------
                      INITIAL GUESS DONE (   0.1 sec)
                      ------------------
--------------
SCF ITERATIONS
--------------
ITER       Energy         Delta-E        Max-DP      RMS-DP      [F,P]   Gradient Norm
               ***  Starting incremental Fock matrix formation  ***
                             ****Resetting KDIIS****
                             ****Turning on KDIIS(Cayley)****
  0   -111.0327067758   0.000000000000 0.05568199  0.00556945  0.3760381   0.286294808
  1   -111.1500247795  -0.117318003693 0.13602090  0.01229766  0.3261587   0.247428903
  2   -111.3575777817  -0.207553002191 0.16155453  0.01578026  0.1956644   0.156824592
  3   -111.5110755334  -0.153497751650 0.28990250  0.01596757  0.1374020   0.071733834
  4   -111.6017762817  -0.090700748328 0.10180726  0.00910052  0.2059155   0.089608781
  5   -111.5610681277   0.040708153959 0.11529594  0.01155427  0.1832778   0.071715542
  6   -111.5555481234   0.005520004319 0.17804479  0.01768789  0.2382952   0.118670471
  7   -111.5897860637  -0.034237940320 0.09236416  0.00806878  0.2066377   0.087048726
  8   -111.7205813974  -0.130795333618 0.03427607  0.00314132  0.3089508   0.119353837
  9   -111.6611713499   0.059410047429 0.05699754  0.00699787  0.2731109   0.106124573
 10   -111.7030752027  -0.041903852768 0.05993642  0.00739733  0.2926548   0.113345530
 11   -111.7774300573  -0.074354854569 0.09773985  0.01435218  0.3109509   0.124539837
 12   -111.9053145777  -0.127884520475 0.17307153  0.01544524  0.3773079   0.146843064
 13   -111.6498484812   0.255466096538 0.41464278  0.03546299  0.2590612   0.101618218
 14   -111.8035429371  -0.153694455911 0.33326682  0.03852897  0.3233648   0.125526294
 15   -112.1081545357  -0.304611598576 0.62530078  0.05206455  0.3458406   0.135716086
 16   -112.1104677608  -0.002313225072 0.09521800  0.01107161  0.1915566   0.158648416
 17   -112.1356991085  -0.025231347774 0.04557669  0.00384013  0.1588398   0.123201933
 18   -112.1487705121  -0.013071403541 0.53526093  0.04734375  0.1539507   0.135981581
 19   -112.3746134350  -0.225842922928 0.07785737  0.00644753  0.2286543   0.101346848
               *** Restarting incremental Fock matrix formation ***
                             ****Resetting KDIIS****
 20   -112.4296814793  -0.055068044306 0.01808927  0.00198865  0.1971135   0.094265928
 21   -112.4544283688  -0.024746889508 0.08306958  0.00765152  0.1829360   0.088532078
 22   -112.5369586823  -0.082530313467 0.12142753  0.01193006  0.1195883   0.068768790
 23   -112.6067237943  -0.069765112012 0.12304571  0.00833264  0.0618354   0.051634113
 24   -112.5850182392   0.021705555075 0.08394439  0.00754289  0.1034130   0.039375265
 25   -112.5318956608   0.053122578448 0.01829822  0.00184392  0.1705894   0.067534421
 26   -112.5124856254   0.019410035333 0.12932779  0.01212549  0.1919886   0.076509072
 27   -112.6075080619  -0.095022436428 0.15721631  0.01869282  0.0678399   0.030272748
 28   -112.5750459357   0.032462126213 0.21247579  0.02426886  0.1283486   0.063414546
 29   -112.5914133046  -0.016367368968 0.11681205  0.01147020  0.0774266   0.071661099
 30   -112.5743943246   0.017018979978 0.04400833  0.00402244  0.0479991   0.038860950
 31   -112.5594590533   0.014935271374 0.36407333  0.03776883  0.0442958   0.037876658
 32   -112.6913814759  -0.131922422623 0.12093315  0.00937511  0.0215606   0.018801493
 33   -112.6843857076   0.006995768270 0.05169000  0.00523362  0.0209503   0.017261276
 34   -112.6640294234   0.020356284247 0.01583553  0.00135334  0.0388061   0.027705041
 35   -112.6593448851   0.004684538319 0.25673801  0.01883230  0.0407448   0.029115820
 36   -112.6976762934  -0.038331408308 0.01762245  0.00140301  0.0128832   0.008727558
 37   -112.6973856426   0.000290650728 0.03496178  0.00216260  0.0153522   0.010465575
 38   -112.6958065504   0.001579092276 0.08140965  0.00505230  0.0243617   0.016773912
 39   -112.6984019420  -0.002595391683 0.00395058  0.00032911  0.0022631   0.001672940
               *** Restarting incremental Fock matrix formation ***
                             ****Resetting KDIIS****
 40   -112.6984350844  -0.000033142324 0.00022030  0.00001802  0.0007490   0.000576894
 41   -112.6984362613  -0.000001176884 0.00079334  0.00004611  0.0006409   0.000510310
 42   -112.6984390785  -0.000002817296 0.00650841  0.00036048  0.0006206   0.000452114
 43   -112.6984574003  -0.000018321734 0.02331545  0.00129205  0.0004900   0.000286912
 44   -112.6984847689  -0.000027368635 0.00366576  0.00021222  0.0003605   0.000257233
                          ***Energy convergence achieved***
 45   -112.6984848681  -0.000000099152 0.00252436  0.00014125  0.0001793   0.000133609
 46   -112.6984853398  -0.000000471724 0.00018115  0.00001012  0.0000077   0.000005682

            ***Energy convergence in two consecutive cycles with***
                    ***'reasonable' density convergence***
                       *** signaling convergence ***

                    *** KDIIS BlockDiag ( 0.000 sec) ***

               *****************************************************
               *                     SUCCESS                       *
               *           SCF CONVERGED AFTER  47 CYCLES          *
               *****************************************************

Setting up the final grid:

General Integration Accuracy     IntAcc      ...  4.670
Radial Grid Type                 RadialGrid  ... Gauss-Chebyshev
Angular Grid (max. acc.)         AngularGrid ... Lebedev-302
Angular grid pruning method      GridPruning ... 3 (G Style)
Weight generation scheme         WeightScheme... Becke
Basis function cutoff            BFCut       ...    1.0000e-10
Integration weight cutoff        WCut        ...    1.0000e-14
Grids for H and He will be reduced by one unit

# of grid points (after initial pruning)     ...  12424 (   0.0 sec)
# of grid points (after weights+screening)   ...  12414 (   0.0 sec)
nearest neighbour list constructed           ...    0.0 sec
Grid point re-assignment to atoms done       ...    0.0 sec
Grid point division into batches done        ...    0.0 sec
Reduced shell lists constructed in    0.1 sec

Total number of grid points                  ...    12414
Total number of batches                      ...      195
Average number of points per batch           ...       63
Average number of grid points per atom       ...     6207
Average number of shells per batch           ...     6.63 (55.27%)
Average number of basis functions per batch  ...    15.61 (55.76%)
Average number of large shells per batch     ...     5.26 (79.31%)
Average number of large basis fcns per batch ...    12.54 (80.29%)
Maximum spatial batch extension              ...  17.90, 20.64, 18.61 au
Average spatial batch extension              ...   4.30,  4.46,  4.36 au

Final grid set up in    0.1 sec
Final integration                            ... done (   0.1 sec)
Change in XC energy                          ...     0.000508684
Integrated number of electrons               ...    14.000001623
Previous integrated no of electrons          ...    13.999160520

----------------
TOTAL SCF ENERGY
----------------

Total Energy       :         -112.69797666 Eh           -3066.66785 eV

Components:
Nuclear Repulsion  :            5.29690718 Eh             144.13617 eV
Electronic Energy  :         -117.99488384 Eh           -3210.80402 eV
One Electron Energy:         -164.11492284 Eh           -4465.79409 eV
Two Electron Energy:           46.12003900 Eh            1254.99006 eV

Virial components:
Potential Energy   :         -224.76217619 Eh           -6116.08975 eV
Kinetic Energy     :          112.06419953 Eh            3049.42190 eV
Virial Ratio       :            2.00565548


DFT components:
N(Alpha)           :        7.000000811712 electrons
N(Beta)            :        7.000000811712 electrons
N(Total)           :       14.000001623424 electrons
E(XC)              :       -9.523564264743 Eh       

---------------
SCF CONVERGENCE
---------------

  Last Energy change         ...   -1.4731e-09  Tolerance :   1.0000e-06
  Last MAX-Density change    ...    3.6084e-05  Tolerance :   1.0000e-05
  Last RMS-Density change    ...    2.0649e-06  Tolerance :   1.0000e-06
  Last DIIS Error            ...    3.7198e-06  Tolerance :   1.0000e-06

             **** THE GBW FILE WAS UPDATED (Scan_43.gbw) ****
             **** DENSITY FILE WAS UPDATED (Scan_43.scfp.tmp) ****
             **** ENERGY FILE WAS UPDATED (Scan_43.en.tmp) ****
----------------
ORBITAL ENERGIES
----------------

  NO   OCC          E(Eh)            E(eV) 
   0   2.0000     -19.391681      -527.6745 
   1   2.0000     -10.426541      -283.7206 
   2   2.0000      -1.045430       -28.4476 
   3   2.0000      -0.635859       -17.3026 
   4   2.0000      -0.452450       -12.3118 
   5   2.0000      -0.452450       -12.3118 
   6   2.0000      -0.292191        -7.9509 
   7   0.0000      -0.160770        -4.3748 
   8   0.0000      -0.032206        -0.8764 
   9   0.0000      -0.032206        -0.8764 
  10   0.0000       0.646634        17.5958 
  11   0.0000       0.653057        17.7706 
  12   0.0000       0.653057        17.7706 
  13   0.0000       0.698108        18.9965 
  14   0.0000       0.957422        26.0528 
  15   0.0000       0.957422        26.0528 
  16   0.0000       0.958689        26.0872 
  17   0.0000       1.057116        28.7656 
  18   0.0000       1.761934        47.9447 
  19   0.0000       1.762776        47.9676 
  20   0.0000       1.782503        48.5044 
  21   0.0000       1.782503        48.5044 
  22   0.0000       1.803385        49.0726 
  23   0.0000       1.832767        49.8721 
  24   0.0000       1.834879        49.9296 
  25   0.0000       1.834879        49.9296 
  26   0.0000       1.878814        51.1251 
  27   0.0000       1.878835        51.1257 

                    ********************************
                    * MULLIKEN POPULATION ANALYSIS *
                    ********************************

-----------------------
MULLIKEN ATOMIC CHARGES
-----------------------
   0 C :    0.003403
   1 O :   -0.003403
Sum of atomic charges:   -0.0000000

--------------------------------
MULLIKEN REDUCED ORBITAL CHARGES
--------------------------------
  0 C s       :     3.999880  s :     3.999880
      pz      :     0.000000  p :     1.996603
      px      :     1.996603
      py      :     0.000000
      dz2     :     0.000028  d :     0.000114
      dxz     :     0.000000
      dyz     :     0.000000
      dx2y2   :     0.000085
      dxy     :     0.000000
  1 O s       :     3.999771  s :     3.999771
      pz      :     2.000000  p :     4.003402
      px      :     0.003403
      py      :     2.000000
      dz2     :     0.000057  d :     0.000230
      dxz     :     0.000000
      dyz     :     0.000000
      dx2y2   :     0.000172
      dxy     :     0.000000


                     *******************************
                     * LOEWDIN POPULATION ANALYSIS *
                     *******************************

----------------------
LOEWDIN ATOMIC CHARGES
----------------------
   0 C :    0.003402
   1 O :   -0.003402

-------------------------------
LOEWDIN REDUCED ORBITAL CHARGES
-------------------------------
  0 C s       :     3.999880  s :     3.999880
      pz      :     0.000000  p :     1.996605
      px      :     1.996604
      py      :     0.000000
      dz2     :     0.000028  d :     0.000114
      dxz     :     0.000000
      dyz     :     0.000000
      dx2y2   :     0.000085
      dxy     :     0.000000
  1 O s       :     3.999770  s :     3.999770
      pz      :     2.000000  p :     4.003402
      px      :     0.003402
      py      :     2.000000
      dz2     :     0.000057  d :     0.000230
      dxz     :     0.000000
      dyz     :     0.000000
      dx2y2   :     0.000172
      dxy     :     0.000000


                      *****************************
                      * MAYER POPULATION ANALYSIS *
                      *****************************

  NA   - Mulliken gross atomic population
  ZA   - Total nuclear charge
  QA   - Mulliken gross atomic charge
  VA   - Mayer's total valence
  BVA  - Mayer's bonded valence
  FA   - Mayer's free valence

  ATOM       NA         ZA         QA         VA         BVA        FA
  0 C      5.9966     6.0000     0.0034     0.0068     0.0068    -0.0000
  1 O      8.0034     8.0000    -0.0034     0.0068     0.0068    -0.0000

  Mayer bond orders larger than 0.1


-------
TIMINGS
-------

Total SCF time: 0 days 0 hours 0 min 12 sec 

Total time                  ....      12.944 sec
Sum of individual times     ....      12.369 sec  ( 95.6%)

Fock matrix formation       ....      12.133 sec  ( 93.7%)
  XC integration            ....       2.074 sec  ( 17.1% of F)
    Basis function eval.    ....       0.327 sec  ( 15.7% of XC)
    Density eval.           ....       0.087 sec  (  4.2% of XC)
    XC-Functional eval.     ....       0.503 sec  ( 24.3% of XC)
    XC-Potential eval.      ....       0.035 sec  (  1.7% of XC)
Diagonalization             ....       0.015 sec  (  0.1%)
Density matrix formation    ....       0.000 sec  (  0.0%)
Population analysis         ....       0.009 sec  (  0.1%)
Initial guess               ....       0.100 sec  (  0.8%)
Orbital Transformation      ....       0.000 sec  (  0.0%)
Orbital Orthonormalization  ....       0.000 sec  (  0.0%)
DIIS solution               ....       0.000 sec  (  0.0%)
Grid generation             ....       0.112 sec  (  0.9%)


-------------------------------------------------------------------------------
                          DFT DISPERSION CORRECTION                            
                                                                               
                              DFTD3 V3.1  Rev 1                                
                              USING zero damping                               
-------------------------------------------------------------------------------
The omegaB97X-D3 functional is recognized. Fit by Chai et al.
Active option DFTDOPT                   ...         3   

molecular C6(AA) [au] = 117.463524 


            DFT-D V3
 parameters
 s6 scaling factor         :     1.0000 
 rs6 scaling factor        :     1.2810 
 s8 scaling factor         :     1.0000 
 rs8 scaling factor        :     1.0940 
 Damping factor alpha6     :    14.0000 
 Damping factor alpha8     :    16.0000 
 ad hoc parameters k1-k3   :    16.0000     1.3333    -4.0000 

 Edisp/kcal,au: -0.037967313653  -0.000060504759 
 E6   /kcal   :  -0.029139468 
 E8   /kcal   :  -0.008827845 
 % E8         :  23.251172121 

-------------------------   ----------------
Dispersion correction           -0.000060505
-------------------------   ----------------


-------------------------   --------------------
FINAL SINGLE POINT ENERGY      -112.698037161588
-------------------------   --------------------


                            ***************************************
                            *     ORCA property calculations      *
                            ***************************************

                                    ---------------------
                                    Active property flags
                                    ---------------------
   (+) Dipole Moment


------------------------------------------------------------------------------
                       ORCA ELECTRIC PROPERTIES CALCULATION
------------------------------------------------------------------------------

Dipole Moment Calculation                       ... on
Quadrupole Moment Calculation                   ... off
Polarizability Calculation                      ... off
GBWName                                         ... Scan_43.gbw
Electron density file                           ... Scan_43.scfp.tmp

-------------
DIPOLE MOMENT
-------------
                                X             Y             Z
Electronic contribution:     -0.06656      -0.00000       0.00000
Nuclear contribution   :      0.03041      -0.00000       0.00000
                        -----------------------------------------
Total Dipole Moment    :     -0.03615      -0.00000       0.00000
                        -----------------------------------------
Magnitude (a.u.)       :      0.03615
Magnitude (Debye)      :      0.09189


Timings for individual modules:

Sum of individual times         ...       13.276 sec (=   0.221 min)
GTO integral calculation        ...        0.308 sec (=   0.005 min)   2.3 %
SCF iterations                  ...       12.968 sec (=   0.216 min)  97.7 %
                             ****ORCA TERMINATED NORMALLY****
TOTAL RUN TIME: 0 days 0 hours 0 minutes 13 seconds 607 msec
