
                                 *****************
                                 * O   R   C   A *
                                 *****************

           --- An Ab Initio, DFT and Semiempirical electronic structure package ---

                  #######################################################
                  #                        -***-                        #
                  #  Department of molecular theory and spectroscopy    #
                  #              Directorship: Frank Neese              #
                  # Max Planck Institute for Chemical Energy Conversion #
                  #                  D-45470 Muelheim/Ruhr              #
                  #                       Germany                       #
                  #                                                     #
                  #                  All rights reserved                #
                  #                        -***-                        #
                  #######################################################


                         Program Version 4.0.0.2 - RELEASE -


 With contributions from (in alphabetic order):
   Daniel Aravena         : Magnetic Properties
   Michael Atanasov       : Ab Initio Ligand Field Theory
   Ute Becker             : Parallelization
   Martin Brehm           : Molecular dynamics
   Dmytro Bykov           : SCF Hessian
   Vijay G. Chilkuri      : MRCI spin determinant printing
   Dipayan Datta          : RHF DLPNO-CCSD density
   Achintya Kumar Dutta   : EOM-CC, STEOM-CC
   Dmitry Ganyushin       : Spin-Orbit,Spin-Spin,Magnetic field MRCI
   Yang Guo               : DLPNO-NEVPT2, CIM, IAO-localization
   Andreas Hansen         : Spin unrestricted coupled pair/coupled cluster methods
   Lee Huntington         : MR-EOM, pCC
   Robert Izsak           : Overlap fitted RIJCOSX, COSX-SCS-MP3, EOM
   Christian Kollmar      : KDIIS, OOCD, Brueckner-CCSD(T), CCSD density
   Simone Kossmann        : Meta GGA functionals, TD-DFT gradient, OOMP2, MP2 Hessian
   Martin Krupicka        : AUTO-CI
   Dagmar Lenk            : GEPOL surface
   Dimitrios Liakos       : Extrapolation schemes; parallel MDCI
   Dimitrios Manganas     : ROCIS; embedding schemes
   Dimitrios Pantazis     : SARC Basis sets
   Taras Petrenko         : DFT Hessian,TD-DFT gradient, ASA, ECA, R-Raman, ABS, FL, XAS/XES, NRVS
   Peter Pinski           : DLPNO-MP2
   Christoph Reimann      : Effective Core Potentials
   Marius Retegan         : Local ZFS, SOC
   Christoph Riplinger    : Optimizer, TS searches, QM/MM, DLPNO-CCSD(T), (RO)-DLPNO pert. Triples
   Tobias Risthaus        : Range-separated hybrids, TD-DFT gradient, RPA, STAB
   Michael Roemelt        : Restricted open shell CIS
   Masaaki Saitow         : Open-shell DLPNO
   Barbara Sandhoefer     : DKH picture change effects
   Kantharuban Sivalingam : CASSCF convergence, NEVPT2, FIC-MRCI
   Georgi Stoychev        : AutoAux
   Boris Wezisla          : Elementary symmetry handling
   Frank Wennmohs         : Technical directorship


 We gratefully acknowledge several colleagues who have allowed us to
 interface, adapt or use parts of their codes:
   Stefan Grimme, W. Hujo, H. Kruse,             : VdW corrections, initial TS optimization,
                  C. Bannwarth                     DFT functionals, gCP, sTDA/sTD-DF
   Ed Valeev                                     : LibInt (2-el integral package), F12 methods
   Garnet Chan, S. Sharma, J. Yang, R. Olivares  : DMRG
   Ulf Ekstrom                                   : XCFun DFT Library
   Mihaly Kallay                                 : mrcc  (arbitrary order and MRCC methods)
   Jiri Pittner, Ondrej Demel                    : Mk-CCSD
   Frank Weinhold                                : gennbo (NPA and NBO analysis)
   Christopher J. Cramer and Donald G. Truhlar   : smd solvation model


 Your calculation uses the libint2 library for the computation of 2-el integrals
 For citations please refer to: http://libint.valeyev.net

 This ORCA versions uses:
   CBLAS   interface :  Fast vector & matrix operations
   LAPACKE interface :  Fast linear algebra routines
   SCALAPACK package :  Parallel linear algebra routines


Your calculation utilizes the atom-pairwise dispersion correction
with the zero-damping scheme (D30)
Cite in your paper:
S.Grimme, J.Antony, S.Ehrlich and H.Krieg, J.Chem.Phys., 132, (2010), 154104 
   

XCFun DFT library Copyright 2009-2010 Ulf Ekstrom and contributors.
See http://admol.org/xcfun for more information. This is free soft-
ware; see the source code for copying conditions. There is ABSOLUTELY
NO WARRANTY; not even for MERCHANTABILITY or FITNESS FOR A PARTICULAR
PURPOSE. For details see the documentation. Scientific users of this 
library should cite U. Ekstrom, L. Visscher, R. Bast, A. J. Thorvald-
sen and K. Ruud; J.Chem.Theor.Comp. 2010, DOI: 10.1021/ct100117s
XCFun Version 0.99 
Your calculation utilizes the basis: 6-31G(d)
   H-He, Li-Ne : W. J. Hehre, R. Ditchfield and J.A. Pople, J. Chem. Phys. 56, 2257 (1972).
                 Note: He and Ne are unpublished basis sets taken from the Gaussian program.
                 Note: Li and B from J. D. Dill and J. A. Pople, J. Chem. Phys. 62, 2921 (1975).
   Na - Ar     : M. M. Francl, W. J. Pietro, W. J. Hehre, J. S. Binkley, M. S. Gordon, 
                 D. J. DeFrees and J. A. Pople, J. Chem. Phys. 77, 3654 (1982).
   K - Zn      : V. A. Rassolov, J. A. Pople, M. A. Ratner, and T. L. Windus, J. Chem. Phys. 109, 1223 (1998).

================================================================================
                                        WARNINGS
                       Please study these warnings very carefully!
================================================================================

Warning: TCutStore was < 0. Adjusted to Thresh (uncritical)

INFO   : the flag for use of LIBINT has been found!

================================================================================
                                       INPUT FILE
================================================================================
NAME = initial7.inp
|  1> ! WB97X-D3 6-31G(d) VerySlowConv
|  2> ! KDIIS NOSOSCF
|  3> %base "Scan_7"
|  4> 
|  5> %scf
|  6> maxiter 999
|  7> end
|  8> 
|  9> * xyz 0 1
| 10> C         -0.691356228199    1.613610000000   -0.000000000000
| 11> O          0.432316228199    1.613610000000   -0.000000000000
| 12> **                         ****END OF INPUT****
================================================================================

                       ****************************
                       * Single Point Calculation *
                       ****************************

---------------------------------
CARTESIAN COORDINATES (ANGSTROEM)
---------------------------------
  C     -0.691356    1.613610   -0.000000
  O      0.432316    1.613610   -0.000000

----------------------------
CARTESIAN COORDINATES (A.U.)
----------------------------
  NO LB      ZA    FRAG     MASS         X           Y           Z
   0 C     6.0000    0    12.011   -1.306474    3.049281   -0.000000
   1 O     8.0000    0    15.999    0.816959    3.049281   -0.000000

--------------------------------
INTERNAL COORDINATES (ANGSTROEM)
--------------------------------
 C      0   0   0     0.000000000000     0.00000000     0.00000000
 O      1   0   0     1.123672456398     0.00000000     0.00000000

---------------------------
INTERNAL COORDINATES (A.U.)
---------------------------
 C      0   0   0     0.000000000000     0.00000000     0.00000000
 O      1   0   0     2.123433206823     0.00000000     0.00000000

---------------------
BASIS SET INFORMATION
---------------------
There are 2 groups of distinct atoms

 Group   1 Type C   : 10s4p1d contracted to 3s2p1d pattern {631/31/1}
 Group   2 Type O   : 10s4p1d contracted to 3s2p1d pattern {631/31/1}

Atom   0C    basis set group =>   1
Atom   1O    basis set group =>   2
------------------------------------------------------------------------------
                           ORCA GTO INTEGRAL CALCULATION
------------------------------------------------------------------------------

                         BASIS SET STATISTICS AND STARTUP INFO

 # of primitive gaussian shells          ...   30
 # of primitive gaussian functions       ...   54
 # of contracted shells                  ...   12
 # of contracted basis functions         ...   28
 Highest angular momentum                ...    2
 Maximum contraction depth               ...    6
 Integral package used                   ... LIBINT
 Integral threshhold            Thresh   ...  1.000e-10
 Primitive cut-off              TCut     ...  1.000e-11


------------------------------ INTEGRAL EVALUATION ----------------------------


 * One electron integrals 
 Pre-screening matrix                    ... done
 Shell pair data                         ... done (   0.000 sec)

-------------------------------------------------------------------------------
                                 ORCA SCF
-------------------------------------------------------------------------------

------------
SCF SETTINGS
------------
Hamiltonian:
 Density Functional     Method          .... DFT(GTOs)
 Exchange Functional    Exchange        .... WB97X-D3
 Correlation Functional Correlation     .... WB97X-D3
 Gradients option       PostSCFGGA      .... off
 Hybrid DFT is turned on
   Fraction HF Exchange ScalHFX         ....  0.195728
   Scaling of DF-GGA-X  ScalDFX         ....  0.000000
   Scaling of DF-GGA-C  ScalDFC         ....  1.000000
   Scaling of DF-LDA-C  ScalLDAC        ....  1.000000
   Perturbative correction              ....  0.000000
 Long-range corrected/Screened/Range-Separated Hybrid DFT is turned on
   Amount of maximum screened exact exchange              ....  0.804272
   Range separation parameter mu (erf(mu*r12)/r12)        ....  0.250000


General Settings:
 Integral files         IntName         .... Scan_7
 Hartree-Fock type      HFTyp           .... RHF
 Total Charge           Charge          ....    0
 Multiplicity           Mult            ....    1
 Number of Electrons    NEL             ....   14
 Basis Dimension        Dim             ....   28
 Nuclear Repulsion      ENuc            ....     22.6049022149 Eh

Convergence Acceleration:
 DIIS                   CNVDIIS         .... on
   Start iteration      DIISMaxIt       ....     0
   Startup error        DIISStart       ....  0.200000
   # of expansion vecs  DIISMaxEq       ....     5
   Bias factor          DIISBfac        ....   1.050
   Max. coefficient     DIISMaxC        ....  10.000
 Newton-Raphson         CNVNR           .... off
 SOSCF                  CNVSOSCF        .... off
 Level Shifting         CNVShift        .... off
 Zerner damping         CNVZerner       .... off
 Static damping         CNVDamp         .... off
 Fernandez-Rico         CNVRico         .... off

SCF Procedure:
 Maximum # iterations   MaxIter         ....   999
 SCF integral mode      SCFMode         .... Direct
   Integral package                     .... LIBINT
 Reset frequeny         DirectResetFreq ....    20
 Integral Threshold     Thresh          ....  1.000e-10 Eh
 Primitive CutOff       TCut            ....  1.000e-11 Eh

Convergence Tolerance:
 Convergence Check Mode ConvCheckMode   .... All-Criteria
 Convergence forced     ConvForced      .... 0
 Energy Change          TolE            ....  1.000e-06 Eh
 Max Density Change     TolMaxP         ....  1.000e-05
 RMS Density Change     TolRMSP         ....  1.000e-06
 DIIS Error             TolErr          ....  1.000e-06


Diagonalization of the overlap matrix:
Smallest eigenvalue                        ... 1.496e-02
Time for diagonalization                   ...    0.001 sec
Threshold for overlap eigenvalues          ... 1.000e-08
Number of eigenvalues below threshold      ... 0
Time for construction of square roots      ...    0.037 sec
Total time needed                          ...    0.037 sec

-------------------
DFT GRID GENERATION
-------------------

General Integration Accuracy     IntAcc      ...  4.340
Radial Grid Type                 RadialGrid  ... Gauss-Chebyshev
Angular Grid (max. acc.)         AngularGrid ... Lebedev-110
Angular grid pruning method      GridPruning ... 3 (G Style)
Weight generation scheme         WeightScheme... Becke
Basis function cutoff            BFCut       ...    1.0000e-10
Integration weight cutoff        WCut        ...    1.0000e-14
Grids for H and He will be reduced by one unit

# of grid points (after initial pruning)     ...   3372 (   0.0 sec)
# of grid points (after weights+screening)   ...   3345 (   0.0 sec)
nearest neighbour list constructed           ...    0.0 sec
Grid point re-assignment to atoms done       ...    0.0 sec
Grid point division into batches done        ...    0.0 sec
Reduced shell lists constructed in    0.0 sec

Total number of grid points                  ...     3345
Total number of batches                      ...       54
Average number of points per batch           ...       61
Average number of grid points per atom       ...     1672
Average number of shells per batch           ...    10.33 (86.06%)
Average number of basis functions per batch  ...    24.84 (88.70%)
Average number of large shells per batch     ...     9.67 (93.66%)
Average number of large basis fcns per batch ...    23.45 (94.44%)
Maximum spatial batch extension              ...  17.93, 25.60, 31.36 au
Average spatial batch extension              ...   5.64,  7.02,  6.66 au

Time for grid setup =    0.062 sec

------------------------------
INITIAL GUESS: MODEL POTENTIAL
------------------------------
Loading Hartree-Fock densities                     ... done
Calculating cut-offs                               ... done
Setting up the integral package                    ... done
Initializing the effective Hamiltonian             ... done
Starting the Coulomb interaction                   ... done (   0.0 sec)
Reading the grid                                   ... done
Mapping shells                                     ... done
Starting the XC term evaluation                    ... done (   0.1 sec)
  promolecular density results
     # of electrons  =     13.999992006
     EX              =    -13.176744766
     EC              =     -0.445653666
     EX+EC           =    -13.622398432
Transforming the Hamiltonian                       ... done (   0.1 sec)
Diagonalizing the Hamiltonian                      ... done (   0.0 sec)
Back transforming the eigenvectors                 ... done (   0.0 sec)
Now organizing SCF variables                       ... done
                      ------------------
                      INITIAL GUESS DONE (   0.4 sec)
                      ------------------
--------------
SCF ITERATIONS
--------------
ITER       Energy         Delta-E        Max-DP      RMS-DP      [F,P]   Gradient Norm
               ***  Starting incremental Fock matrix formation  ***
                             ****Resetting KDIIS****
                             ****Turning on KDIIS(Cayley)****
  0   -113.2459412903   0.000000000000 0.02290376  0.00155975  0.0769479   0.076386438
  1   -113.2578151798  -0.011873889531 0.01509603  0.00122467  0.0593086   0.057992157
  2   -113.2637726710  -0.005957491197 0.02270159  0.00177036  0.0467642   0.046199234
  3   -113.2702197767  -0.006447105725 0.03492388  0.00273111  0.0284116   0.028316173
  4   -113.2741738997  -0.003954122965 0.00264105  0.00029367  0.0020746   0.001271814
  5   -113.2741902877  -0.000016388025 0.00026327  0.00003832  0.0005258   0.000360875
  6   -113.2741913504  -0.000001062689 0.00026734  0.00002840  0.0002568   0.000157785
Warning: badly conditioned DIIS matrix, 1 vectors out of 5 destroyed
                          ***Energy convergence achieved***
  7   -113.2741916227  -0.000000272336 0.00004557  0.00000291  0.0000066   0.000004946
                           ***RMSP convergence achieved***
                           ***MAXP convergence achieved***
                    *** KDIIS BlockDiag ( 0.000 sec) ***

               *****************************************************
               *                     SUCCESS                       *
               *           SCF CONVERGED AFTER   8 CYCLES          *
               *****************************************************

Setting up the final grid:

General Integration Accuracy     IntAcc      ...  4.670
Radial Grid Type                 RadialGrid  ... Gauss-Chebyshev
Angular Grid (max. acc.)         AngularGrid ... Lebedev-302
Angular grid pruning method      GridPruning ... 3 (G Style)
Weight generation scheme         WeightScheme... Becke
Basis function cutoff            BFCut       ...    1.0000e-10
Integration weight cutoff        WCut        ...    1.0000e-14
Grids for H and He will be reduced by one unit

# of grid points (after initial pruning)     ...  12424 (   0.0 sec)
# of grid points (after weights+screening)   ...  12393 (   0.0 sec)
nearest neighbour list constructed           ...    0.0 sec
Grid point re-assignment to atoms done       ...    0.0 sec
Grid point division into batches done        ...    0.1 sec
Reduced shell lists constructed in    0.3 sec

Total number of grid points                  ...    12393
Total number of batches                      ...      195
Average number of points per batch           ...       63
Average number of grid points per atom       ...     6196
Average number of shells per batch           ...     9.28 (77.30%)
Average number of basis functions per batch  ...    22.29 (79.59%)
Average number of large shells per batch     ...     8.56 (92.24%)
Average number of large basis fcns per batch ...    20.96 (94.07%)
Maximum spatial batch extension              ...  19.05, 24.37, 22.15 au
Average spatial batch extension              ...   3.73,  4.26,  4.21 au

Final grid set up in    0.3 sec
Final integration                            ... done (   0.3 sec)
Change in XC energy                          ...    -0.000548457
Integrated number of electrons               ...    13.999995168
Previous integrated no of electrons          ...    13.999827400

----------------
TOTAL SCF ENERGY
----------------

Total Energy       :         -113.27474008 Eh           -3082.36238 eV

Components:
Nuclear Repulsion  :           22.60490221 Eh             615.11066 eV
Electronic Energy  :         -135.87964230 Eh           -3697.47304 eV
One Electron Energy:         -198.50531971 Eh           -5401.60436 eV
Two Electron Energy:           62.62567742 Eh            1704.13132 eV

Virial components:
Potential Energy   :         -225.88276766 Eh           -6146.58259 eV
Kinetic Energy     :          112.60802758 Eh            3064.22021 eV
Virial Ratio       :            2.00592065


DFT components:
N(Alpha)           :        6.999997583978 electrons
N(Beta)            :        6.999997583978 electrons
N(Total)           :       13.999995167957 electrons
E(XC)              :       -9.750946901138 Eh       

---------------
SCF CONVERGENCE
---------------

  Last Energy change         ...   -3.2736e-10  Tolerance :   1.0000e-06
  Last MAX-Density change    ...    4.5110e-06  Tolerance :   1.0000e-05
  Last RMS-Density change    ...    2.4855e-07  Tolerance :   1.0000e-06
  Last DIIS Error            ...    1.2601e-06  Tolerance :   1.0000e-06

             **** THE GBW FILE WAS UPDATED (Scan_7.gbw) ****
             **** DENSITY FILE WAS UPDATED (Scan_7.scfp.tmp) ****
             **** ENERGY FILE WAS UPDATED (Scan_7.en.tmp) ****
----------------
ORBITAL ENERGIES
----------------

  NO   OCC          E(Eh)            E(eV) 
   0   2.0000     -19.358463      -526.7706 
   1   2.0000     -10.400152      -283.0025 
   2   2.0000      -1.279070       -34.8053 
   3   2.0000      -0.674073       -18.3424 
   4   2.0000      -0.571606       -15.5542 
   5   2.0000      -0.571606       -15.5542 
   6   2.0000      -0.469708       -12.7814 
   7   0.0000       0.078804         2.1444 
   8   0.0000       0.078804         2.1444 
   9   0.0000       0.359633         9.7861 
  10   0.0000       0.618936        16.8421 
  11   0.0000       0.618936        16.8421 
  12   0.0000       0.688156        18.7257 
  13   0.0000       0.873654        23.7733 
  14   0.0000       0.944279        25.6951 
  15   0.0000       1.024846        27.8875 
  16   0.0000       1.024846        27.8875 
  17   0.0000       1.569620        42.7115 
  18   0.0000       1.569861        42.7181 
  19   0.0000       1.615256        43.9534 
  20   0.0000       1.651249        44.9328 
  21   0.0000       1.651249        44.9328 
  22   0.0000       2.050757        55.8039 
  23   0.0000       2.050803        55.8052 
  24   0.0000       2.554140        69.5017 
  25   0.0000       2.716775        73.9272 
  26   0.0000       2.716775        73.9272 
  27   0.0000       3.089334        84.0651 

                    ********************************
                    * MULLIKEN POPULATION ANALYSIS *
                    ********************************

-----------------------
MULLIKEN ATOMIC CHARGES
-----------------------
   0 C :    0.158452
   1 O :   -0.158452
Sum of atomic charges:    0.0000000

--------------------------------
MULLIKEN REDUCED ORBITAL CHARGES
--------------------------------
  0 C s       :     3.786249  s :     3.786249
      pz      :     0.510045  p :     1.979899
      px      :     0.959808
      py      :     0.510045
      dz2     :     0.007154  d :     0.075400
      dxz     :     0.023392
      dyz     :     0.000000
      dx2y2   :     0.021463
      dxy     :     0.023392
  1 O s       :     3.803122  s :     3.803122
      pz      :     1.454382  p :     4.322429
      px      :     1.413664
      py      :     1.454382
      dz2     :     0.002135  d :     0.032901
      dxz     :     0.012181
      dyz     :     0.000000
      dx2y2   :     0.006405
      dxy     :     0.012181


                     *******************************
                     * LOEWDIN POPULATION ANALYSIS *
                     *******************************

----------------------
LOEWDIN ATOMIC CHARGES
----------------------
   0 C :   -0.010579
   1 O :    0.010579

-------------------------------
LOEWDIN REDUCED ORBITAL CHARGES
-------------------------------
  0 C s       :     3.551674  s :     3.551674
      pz      :     0.541446  p :     2.309111
      px      :     1.226219
      py      :     0.541446
      dz2     :     0.016696  d :     0.149794
      dxz     :     0.041504
      dyz     :     0.000000
      dx2y2   :     0.050089
      dxy     :     0.041504
  1 O s       :     3.545865  s :     3.545865
      pz      :     1.403574  p :     4.386737
      px      :     1.579588
      py      :     1.403574
      dz2     :     0.007467  d :     0.056820
      dxz     :     0.013475
      dyz     :     0.000000
      dx2y2   :     0.022402
      dxy     :     0.013475


                      *****************************
                      * MAYER POPULATION ANALYSIS *
                      *****************************

  NA   - Mulliken gross atomic population
  ZA   - Total nuclear charge
  QA   - Mulliken gross atomic charge
  VA   - Mayer's total valence
  BVA  - Mayer's bonded valence
  FA   - Mayer's free valence

  ATOM       NA         ZA         QA         VA         BVA        FA
  0 C      5.8415     6.0000     0.1585     2.4105     2.4105     0.0000
  1 O      8.1585     8.0000    -0.1585     2.4105     2.4105    -0.0000

  Mayer bond orders larger than 0.1
B(  0-C ,  1-O ) :   2.4105 

-------
TIMINGS
-------

Total SCF time: 0 days 0 hours 0 min 10 sec 

Total time                  ....      10.789 sec
Sum of individual times     ....      10.179 sec  ( 94.3%)

Fock matrix formation       ....       9.222 sec  ( 85.5%)
  XC integration            ....       1.675 sec  ( 18.2% of F)
    Basis function eval.    ....       0.333 sec  ( 19.9% of XC)
    Density eval.           ....       0.055 sec  (  3.3% of XC)
    XC-Functional eval.     ....       0.206 sec  ( 12.3% of XC)
    XC-Potential eval.      ....       0.071 sec  (  4.2% of XC)
Diagonalization             ....       0.126 sec  (  1.2%)
Density matrix formation    ....       0.000 sec  (  0.0%)
Population analysis         ....       0.071 sec  (  0.7%)
Initial guess               ....       0.365 sec  (  3.4%)
Orbital Transformation      ....       0.000 sec  (  0.0%)
Orbital Orthonormalization  ....       0.000 sec  (  0.0%)
DIIS solution               ....       0.000 sec  (  0.0%)
Grid generation             ....       0.395 sec  (  3.7%)


-------------------------------------------------------------------------------
                          DFT DISPERSION CORRECTION                            
                                                                               
                              DFTD3 V3.1  Rev 1                                
                              USING zero damping                               
-------------------------------------------------------------------------------
The omegaB97X-D3 functional is recognized. Fit by Chai et al.
Active option DFTDOPT                   ...         3   

molecular C6(AA) [au] = 100.821845 


            DFT-D V3
 parameters
 s6 scaling factor         :     1.0000 
 rs6 scaling factor        :     1.2810 
 s8 scaling factor         :     1.0000 
 rs8 scaling factor        :     1.0940 
 Damping factor alpha6     :    14.0000 
 Damping factor alpha8     :    16.0000 
 ad hoc parameters k1-k3   :    16.0000     1.3333    -4.0000 

 Edisp/kcal,au: -0.000065783689  -0.000000104833 
 E6   /kcal   :  -0.000007478 
 E8   /kcal   :  -0.000058306 
 % E8         :  88.632470999 

-------------------------   ----------------
Dispersion correction           -0.000000105
-------------------------   ----------------


-------------------------   --------------------
FINAL SINGLE POINT ENERGY      -113.274740185325
-------------------------   --------------------


                            ***************************************
                            *     ORCA property calculations      *
                            ***************************************

                                    ---------------------
                                    Active property flags
                                    ---------------------
   (+) Dipole Moment


------------------------------------------------------------------------------
                       ORCA ELECTRIC PROPERTIES CALCULATION
------------------------------------------------------------------------------

Dipole Moment Calculation                       ... on
Quadrupole Moment Calculation                   ... off
Polarizability Calculation                      ... off
GBWName                                         ... Scan_7.gbw
Electron density file                           ... Scan_7.scfp.tmp

-------------
DIPOLE MOMENT
-------------
                                X             Y             Z
Electronic contribution:      0.02054       0.00000      -0.00000
Nuclear contribution   :      0.00713      -0.00000       0.00000
                        -----------------------------------------
Total Dipole Moment    :      0.02767       0.00000      -0.00000
                        -----------------------------------------
Magnitude (a.u.)       :      0.02767
Magnitude (Debye)      :      0.07032


Timings for individual modules:

Sum of individual times         ...       11.916 sec (=   0.199 min)
GTO integral calculation        ...        0.897 sec (=   0.015 min)   7.5 %
SCF iterations                  ...       11.018 sec (=   0.184 min)  92.5 %
                             ****ORCA TERMINATED NORMALLY****
TOTAL RUN TIME: 0 days 0 hours 0 minutes 13 seconds 450 msec
