
                                 *****************
                                 * O   R   C   A *
                                 *****************

           --- An Ab Initio, DFT and Semiempirical electronic structure package ---

                  #######################################################
                  #                        -***-                        #
                  #  Department of molecular theory and spectroscopy    #
                  #              Directorship: Frank Neese              #
                  # Max Planck Institute for Chemical Energy Conversion #
                  #                  D-45470 Muelheim/Ruhr              #
                  #                       Germany                       #
                  #                                                     #
                  #                  All rights reserved                #
                  #                        -***-                        #
                  #######################################################


                         Program Version 4.0.0.2 - RELEASE -


 With contributions from (in alphabetic order):
   Daniel Aravena         : Magnetic Properties
   Michael Atanasov       : Ab Initio Ligand Field Theory
   Ute Becker             : Parallelization
   Martin Brehm           : Molecular dynamics
   Dmytro Bykov           : SCF Hessian
   Vijay G. Chilkuri      : MRCI spin determinant printing
   Dipayan Datta          : RHF DLPNO-CCSD density
   Achintya Kumar Dutta   : EOM-CC, STEOM-CC
   Dmitry Ganyushin       : Spin-Orbit,Spin-Spin,Magnetic field MRCI
   Yang Guo               : DLPNO-NEVPT2, CIM, IAO-localization
   Andreas Hansen         : Spin unrestricted coupled pair/coupled cluster methods
   Lee Huntington         : MR-EOM, pCC
   Robert Izsak           : Overlap fitted RIJCOSX, COSX-SCS-MP3, EOM
   Christian Kollmar      : KDIIS, OOCD, Brueckner-CCSD(T), CCSD density
   Simone Kossmann        : Meta GGA functionals, TD-DFT gradient, OOMP2, MP2 Hessian
   Martin Krupicka        : AUTO-CI
   Dagmar Lenk            : GEPOL surface
   Dimitrios Liakos       : Extrapolation schemes; parallel MDCI
   Dimitrios Manganas     : ROCIS; embedding schemes
   Dimitrios Pantazis     : SARC Basis sets
   Taras Petrenko         : DFT Hessian,TD-DFT gradient, ASA, ECA, R-Raman, ABS, FL, XAS/XES, NRVS
   Peter Pinski           : DLPNO-MP2
   Christoph Reimann      : Effective Core Potentials
   Marius Retegan         : Local ZFS, SOC
   Christoph Riplinger    : Optimizer, TS searches, QM/MM, DLPNO-CCSD(T), (RO)-DLPNO pert. Triples
   Tobias Risthaus        : Range-separated hybrids, TD-DFT gradient, RPA, STAB
   Michael Roemelt        : Restricted open shell CIS
   Masaaki Saitow         : Open-shell DLPNO
   Barbara Sandhoefer     : DKH picture change effects
   Kantharuban Sivalingam : CASSCF convergence, NEVPT2, FIC-MRCI
   Georgi Stoychev        : AutoAux
   Boris Wezisla          : Elementary symmetry handling
   Frank Wennmohs         : Technical directorship


 We gratefully acknowledge several colleagues who have allowed us to
 interface, adapt or use parts of their codes:
   Stefan Grimme, W. Hujo, H. Kruse,             : VdW corrections, initial TS optimization,
                  C. Bannwarth                     DFT functionals, gCP, sTDA/sTD-DF
   Ed Valeev                                     : LibInt (2-el integral package), F12 methods
   Garnet Chan, S. Sharma, J. Yang, R. Olivares  : DMRG
   Ulf Ekstrom                                   : XCFun DFT Library
   Mihaly Kallay                                 : mrcc  (arbitrary order and MRCC methods)
   Jiri Pittner, Ondrej Demel                    : Mk-CCSD
   Frank Weinhold                                : gennbo (NPA and NBO analysis)
   Christopher J. Cramer and Donald G. Truhlar   : smd solvation model


 Your calculation uses the libint2 library for the computation of 2-el integrals
 For citations please refer to: http://libint.valeyev.net

 This ORCA versions uses:
   CBLAS   interface :  Fast vector & matrix operations
   LAPACKE interface :  Fast linear algebra routines
   SCALAPACK package :  Parallel linear algebra routines


Your calculation utilizes the atom-pairwise dispersion correction
with the zero-damping scheme (D30)
Cite in your paper:
S.Grimme, J.Antony, S.Ehrlich and H.Krieg, J.Chem.Phys., 132, (2010), 154104 
   

XCFun DFT library Copyright 2009-2010 Ulf Ekstrom and contributors.
See http://admol.org/xcfun for more information. This is free soft-
ware; see the source code for copying conditions. There is ABSOLUTELY
NO WARRANTY; not even for MERCHANTABILITY or FITNESS FOR A PARTICULAR
PURPOSE. For details see the documentation. Scientific users of this 
library should cite U. Ekstrom, L. Visscher, R. Bast, A. J. Thorvald-
sen and K. Ruud; J.Chem.Theor.Comp. 2010, DOI: 10.1021/ct100117s
XCFun Version 0.99 
Your calculation utilizes the basis: 6-31G(d)
   H-He, Li-Ne : W. J. Hehre, R. Ditchfield and J.A. Pople, J. Chem. Phys. 56, 2257 (1972).
                 Note: He and Ne are unpublished basis sets taken from the Gaussian program.
                 Note: Li and B from J. D. Dill and J. A. Pople, J. Chem. Phys. 62, 2921 (1975).
   Na - Ar     : M. M. Francl, W. J. Pietro, W. J. Hehre, J. S. Binkley, M. S. Gordon, 
                 D. J. DeFrees and J. A. Pople, J. Chem. Phys. 77, 3654 (1982).
   K - Zn      : V. A. Rassolov, J. A. Pople, M. A. Ratner, and T. L. Windus, J. Chem. Phys. 109, 1223 (1998).

================================================================================
                                        WARNINGS
                       Please study these warnings very carefully!
================================================================================

Warning: TCutStore was < 0. Adjusted to Thresh (uncritical)

INFO   : the flag for use of LIBINT has been found!

================================================================================
                                       INPUT FILE
================================================================================
NAME = initial16.inp
|  1> ! WB97X-D3 6-31G(d) VerySlowConv
|  2> ! KDIIS NOSOSCF
|  3> %base "Scan_16"
|  4> 
|  5> %scf
|  6> maxiter 999
|  7> end
|  8> 
|  9> * xyz 0 1
| 10> F         -0.997933668496    0.936930000000   -0.000000000000
| 11> H          1.014483668496    0.936930000000   -0.000000000000
| 12> **                         ****END OF INPUT****
================================================================================

                       ****************************
                       * Single Point Calculation *
                       ****************************

---------------------------------
CARTESIAN COORDINATES (ANGSTROEM)
---------------------------------
  F     -0.997934    0.936930   -0.000000
  H      1.014484    0.936930   -0.000000

----------------------------
CARTESIAN COORDINATES (A.U.)
----------------------------
  NO LB      ZA    FRAG     MASS         X           Y           Z
   0 F     9.0000    0    18.998   -1.885821    1.770541   -0.000000
   1 H     1.0000    0     1.008    1.917096    1.770541   -0.000000

--------------------------------
INTERNAL COORDINATES (ANGSTROEM)
--------------------------------
 F      0   0   0     0.000000000000     0.00000000     0.00000000
 H      1   0   0     2.012417336992     0.00000000     0.00000000

---------------------------
INTERNAL COORDINATES (A.U.)
---------------------------
 F      0   0   0     0.000000000000     0.00000000     0.00000000
 H      1   0   0     3.802917634070     0.00000000     0.00000000

---------------------
BASIS SET INFORMATION
---------------------
There are 2 groups of distinct atoms

 Group   1 Type F   : 10s4p1d contracted to 3s2p1d pattern {631/31/1}
 Group   2 Type H   : 4s contracted to 2s pattern {31}

Atom   0F    basis set group =>   1
Atom   1H    basis set group =>   2
------------------------------------------------------------------------------
                           ORCA GTO INTEGRAL CALCULATION
------------------------------------------------------------------------------

                         BASIS SET STATISTICS AND STARTUP INFO

 # of primitive gaussian shells          ...   19
 # of primitive gaussian functions       ...   31
 # of contracted shells                  ...    8
 # of contracted basis functions         ...   16
 Highest angular momentum                ...    2
 Maximum contraction depth               ...    6
 Integral package used                   ... LIBINT
 Integral threshhold            Thresh   ...  1.000e-10
 Primitive cut-off              TCut     ...  1.000e-11


------------------------------ INTEGRAL EVALUATION ----------------------------


 * One electron integrals 
 Pre-screening matrix                    ... done
 Shell pair data                         ... done (   0.000 sec)

-------------------------------------------------------------------------------
                                 ORCA SCF
-------------------------------------------------------------------------------

------------
SCF SETTINGS
------------
Hamiltonian:
 Density Functional     Method          .... DFT(GTOs)
 Exchange Functional    Exchange        .... WB97X-D3
 Correlation Functional Correlation     .... WB97X-D3
 Gradients option       PostSCFGGA      .... off
 Hybrid DFT is turned on
   Fraction HF Exchange ScalHFX         ....  0.195728
   Scaling of DF-GGA-X  ScalDFX         ....  0.000000
   Scaling of DF-GGA-C  ScalDFC         ....  1.000000
   Scaling of DF-LDA-C  ScalLDAC        ....  1.000000
   Perturbative correction              ....  0.000000
 Long-range corrected/Screened/Range-Separated Hybrid DFT is turned on
   Amount of maximum screened exact exchange              ....  0.804272
   Range separation parameter mu (erf(mu*r12)/r12)        ....  0.250000


General Settings:
 Integral files         IntName         .... Scan_16
 Hartree-Fock type      HFTyp           .... RHF
 Total Charge           Charge          ....    0
 Multiplicity           Mult            ....    1
 Number of Electrons    NEL             ....   10
 Basis Dimension        Dim             ....   16
 Nuclear Repulsion      ENuc            ....      2.3666039778 Eh

Convergence Acceleration:
 DIIS                   CNVDIIS         .... on
   Start iteration      DIISMaxIt       ....     0
   Startup error        DIISStart       ....  0.200000
   # of expansion vecs  DIISMaxEq       ....     5
   Bias factor          DIISBfac        ....   1.050
   Max. coefficient     DIISMaxC        ....  10.000
 Newton-Raphson         CNVNR           .... off
 SOSCF                  CNVSOSCF        .... off
 Level Shifting         CNVShift        .... off
 Zerner damping         CNVZerner       .... off
 Static damping         CNVDamp         .... off
 Fernandez-Rico         CNVRico         .... off

SCF Procedure:
 Maximum # iterations   MaxIter         ....   999
 SCF integral mode      SCFMode         .... Direct
   Integral package                     .... LIBINT
 Reset frequeny         DirectResetFreq ....    20
 Integral Threshold     Thresh          ....  1.000e-10 Eh
 Primitive CutOff       TCut            ....  1.000e-11 Eh

Convergence Tolerance:
 Convergence Check Mode ConvCheckMode   .... All-Criteria
 Convergence forced     ConvForced      .... 0
 Energy Change          TolE            ....  1.000e-06 Eh
 Max Density Change     TolMaxP         ....  1.000e-05
 RMS Density Change     TolRMSP         ....  1.000e-06
 DIIS Error             TolErr          ....  1.000e-06


Diagonalization of the overlap matrix:
Smallest eigenvalue                        ... 2.087e-01
Time for diagonalization                   ...    0.000 sec
Threshold for overlap eigenvalues          ... 1.000e-08
Number of eigenvalues below threshold      ... 0
Time for construction of square roots      ...    0.005 sec
Total time needed                          ...    0.005 sec

-------------------
DFT GRID GENERATION
-------------------

General Integration Accuracy     IntAcc      ...  4.340
Radial Grid Type                 RadialGrid  ... Gauss-Chebyshev
Angular Grid (max. acc.)         AngularGrid ... Lebedev-110
Angular grid pruning method      GridPruning ... 3 (G Style)
Weight generation scheme         WeightScheme... Becke
Basis function cutoff            BFCut       ...    1.0000e-10
Integration weight cutoff        WCut        ...    1.0000e-14
Grids for H and He will be reduced by one unit

# of grid points (after initial pruning)     ...   2534 (   0.0 sec)
# of grid points (after weights+screening)   ...   2518 (   0.0 sec)
nearest neighbour list constructed           ...    0.0 sec
Grid point re-assignment to atoms done       ...    0.0 sec
Grid point division into batches done        ...    0.0 sec
Reduced shell lists constructed in    0.0 sec

Total number of grid points                  ...     2518
Total number of batches                      ...       41
Average number of points per batch           ...       61
Average number of grid points per atom       ...     1259
Average number of shells per batch           ...     6.95 (86.90%)
Average number of basis functions per batch  ...    14.33 (89.58%)
Average number of large shells per batch     ...     6.43 (92.47%)
Average number of large basis fcns per batch ...    13.24 (92.36%)
Maximum spatial batch extension              ...  14.63, 25.65, 25.65 au
Average spatial batch extension              ...   5.13,  7.01,  7.39 au

Time for grid setup =    0.012 sec

------------------------------
INITIAL GUESS: MODEL POTENTIAL
------------------------------
Loading Hartree-Fock densities                     ... done
Calculating cut-offs                               ... done
Setting up the integral package                    ... done
Initializing the effective Hamiltonian             ... done
Starting the Coulomb interaction                   ... done (   0.0 sec)
Reading the grid                                   ... done
Mapping shells                                     ... done
Starting the XC term evaluation                    ... done (   0.0 sec)
  promolecular density results
     # of electrons  =      9.996638570
     EX              =    -10.174621960
     EC              =     -0.314491578
     EX+EC           =    -10.489113538
Transforming the Hamiltonian                       ... done (   0.0 sec)
Diagonalizing the Hamiltonian                      ... done (   0.0 sec)
Back transforming the eigenvectors                 ... done (   0.0 sec)
Now organizing SCF variables                       ... done
                      ------------------
                      INITIAL GUESS DONE (   0.1 sec)
                      ------------------
--------------
SCF ITERATIONS
--------------
ITER       Energy         Delta-E        Max-DP      RMS-DP      [F,P]   Gradient Norm
               ***  Starting incremental Fock matrix formation  ***
                             ****Resetting KDIIS****
                             ****Turning on KDIIS(Cayley)****
  0    -99.9825271549   0.000000000000 0.03704550  0.00460193  0.1886251   0.177806660
  1   -100.0213070351  -0.038779880214 0.05069817  0.00571396  0.1494051   0.145317017
  2   -100.0674898275  -0.046182792439 0.11502243  0.01313912  0.1402369   0.113755090
  3   -100.1456715950  -0.078181767530 0.25548477  0.02820754  0.0984051   0.055139817
  4   -100.1532587063  -0.007587111298 0.19122474  0.02284369  0.1042637   0.081938452
  5   -100.1655676456  -0.012308939236 0.01329010  0.00160315  0.0639819   0.028820736
  6   -100.1641712393   0.001396406249 0.04168520  0.00502614  0.0657814   0.030543306
  7   -100.1741343747  -0.009963135357 0.10247974  0.01317986  0.0457915   0.022305938
  8   -100.1802836948  -0.006149320159 0.03836445  0.00428681  0.0268909   0.012268892
  9   -100.1824605963  -0.002176901460 0.00128275  0.00019061  0.0017246   0.000832637
 10   -100.1824439436   0.000016652758 0.00427251  0.00049244  0.0030070   0.001369154
Warning: badly conditioned DIIS matrix, 1 vectors out of 5 destroyed
 11   -100.1824725624  -0.000028618806 0.00036648  0.00004339  0.0002420   0.000110713
Warning: badly conditioned DIIS matrix, 1 vectors out of 5 destroyed
                          ***Energy convergence achieved***
                           ***RMSP convergence achieved***
                           ***MAXP convergence achieved***
                    *** KDIIS BlockDiag ( 0.000 sec) ***

               *****************************************************
               *                     SUCCESS                       *
               *           SCF CONVERGED AFTER  12 CYCLES          *
               *****************************************************

Setting up the final grid:

General Integration Accuracy     IntAcc      ...  4.670
Radial Grid Type                 RadialGrid  ... Gauss-Chebyshev
Angular Grid (max. acc.)         AngularGrid ... Lebedev-302
Angular grid pruning method      GridPruning ... 3 (G Style)
Weight generation scheme         WeightScheme... Becke
Basis function cutoff            BFCut       ...    1.0000e-10
Integration weight cutoff        WCut        ...    1.0000e-14
Grids for H and He will be reduced by one unit

# of grid points (after initial pruning)     ...   9666 (   0.0 sec)
# of grid points (after weights+screening)   ...   9646 (   0.0 sec)
nearest neighbour list constructed           ...    0.0 sec
Grid point re-assignment to atoms done       ...    0.0 sec
Grid point division into batches done        ...    0.0 sec
Reduced shell lists constructed in    0.1 sec

Total number of grid points                  ...     9646
Total number of batches                      ...      152
Average number of points per batch           ...       63
Average number of grid points per atom       ...     4823
Average number of shells per batch           ...     6.19 (77.37%)
Average number of basis functions per batch  ...    12.69 (79.29%)
Average number of large shells per batch     ...     5.52 (89.23%)
Average number of large basis fcns per batch ...    11.43 (90.11%)
Maximum spatial batch extension              ...  15.02, 19.94, 19.94 au
Average spatial batch extension              ...   3.58,  3.82,  3.81 au

Final grid set up in    0.1 sec
Final integration                            ... done (   0.1 sec)
Change in XC energy                          ...    -0.000207887
Integrated number of electrons               ...     9.999944235
Previous integrated no of electrons          ...     9.996186746

----------------
TOTAL SCF ENERGY
----------------

Total Energy       :         -100.18268064 Eh           -2726.10933 eV

Components:
Nuclear Repulsion  :            2.36660398 Eh              64.39857 eV
Electronic Energy  :         -102.54928462 Eh           -2790.50790 eV
One Electron Energy:         -145.42651024 Eh           -3957.25653 eV
Two Electron Energy:           42.87722562 Eh            1166.74863 eV

Virial components:
Potential Energy   :         -199.69901144 Eh           -5434.08636 eV
Kinetic Energy     :           99.51633080 Eh            2707.97703 eV
Virial Ratio       :            2.00669588


DFT components:
N(Alpha)           :        4.999972117680 electrons
N(Beta)            :        4.999972117680 electrons
N(Total)           :        9.999944235361 electrons
E(XC)              :       -7.536802809232 Eh       

---------------
SCF CONVERGENCE
---------------

  Last Energy change         ...   -1.9045e-07  Tolerance :   1.0000e-06
  Last MAX-Density change    ...    3.5190e-06  Tolerance :   1.0000e-05
  Last RMS-Density change    ...    4.6641e-07  Tolerance :   1.0000e-06
  Last DIIS Error            ...    2.6102e-06  Tolerance :   1.0000e-06

             **** THE GBW FILE WAS UPDATED (Scan_16.gbw) ****
             **** DENSITY FILE WAS UPDATED (Scan_16.scfp.tmp) ****
             **** ENERGY FILE WAS UPDATED (Scan_16.en.tmp) ****
----------------
ORBITAL ENERGIES
----------------

  NO   OCC          E(Eh)            E(eV) 
   0   2.0000     -24.760097      -673.7565 
   1   2.0000      -1.183907       -32.2158 
   2   2.0000      -0.459362       -12.4999 
   3   2.0000      -0.440807       -11.9950 
   4   2.0000      -0.440807       -11.9950 
   5   0.0000      -0.137161        -3.7323 
   6   0.0000       0.807764        21.9804 
   7   0.0000       1.326718        36.1018 
   8   0.0000       1.326718        36.1018 
   9   0.0000       1.350993        36.7624 
  10   0.0000       1.536582        41.8125 
  11   0.0000       1.992228        54.2113 
  12   0.0000       1.995433        54.2985 
  13   0.0000       1.995433        54.2985 
  14   0.0000       2.014444        54.8158 
  15   0.0000       2.014497        54.8172 

                    ********************************
                    * MULLIKEN POPULATION ANALYSIS *
                    ********************************

-----------------------
MULLIKEN ATOMIC CHARGES
-----------------------
   0 F :   -0.275626
   1 H :    0.275626
Sum of atomic charges:   -0.0000000

--------------------------------
MULLIKEN REDUCED ORBITAL CHARGES
--------------------------------
  0 F s       :     3.997344  s :     3.997344
      pz      :     1.999975  p :     5.277334
      px      :     1.277384
      py      :     1.999975
      dz2     :     0.000224  d :     0.000947
      dxz     :     0.000025
      dyz     :     0.000000
      dx2y2   :     0.000673
      dxy     :     0.000025
  1 H s       :     0.724374  s :     0.724374


                     *******************************
                     * LOEWDIN POPULATION ANALYSIS *
                     *******************************

----------------------
LOEWDIN ATOMIC CHARGES
----------------------
   0 F :   -0.278298
   1 H :    0.278298

-------------------------------
LOEWDIN REDUCED ORBITAL CHARGES
-------------------------------
  0 F s       :     3.992321  s :     3.992321
      pz      :     1.999975  p :     5.284728
      px      :     1.284777
      py      :     1.999975
      dz2     :     0.000300  d :     0.001250
      dxz     :     0.000025
      dyz     :     0.000000
      dx2y2   :     0.000900
      dxy     :     0.000025
  1 H s       :     0.721702  s :     0.721702


                      *****************************
                      * MAYER POPULATION ANALYSIS *
                      *****************************

  NA   - Mulliken gross atomic population
  ZA   - Total nuclear charge
  QA   - Mulliken gross atomic charge
  VA   - Mayer's total valence
  BVA  - Mayer's bonded valence
  FA   - Mayer's free valence

  ATOM       NA         ZA         QA         VA         BVA        FA
  0 F      9.2756     9.0000    -0.2756     0.9238     0.9238    -0.0000
  1 H      0.7244     1.0000     0.2756     0.9238     0.9238     0.0000

  Mayer bond orders larger than 0.1
B(  0-F ,  1-H ) :   0.9238 

-------
TIMINGS
-------

Total SCF time: 0 days 0 hours 0 min 2 sec 

Total time                  ....       2.421 sec
Sum of individual times     ....       2.291 sec  ( 94.6%)

Fock matrix formation       ....       2.111 sec  ( 87.2%)
  XC integration            ....       0.472 sec  ( 22.4% of F)
    Basis function eval.    ....       0.074 sec  ( 15.7% of XC)
    Density eval.           ....       0.017 sec  (  3.6% of XC)
    XC-Functional eval.     ....       0.127 sec  ( 26.9% of XC)
    XC-Potential eval.      ....       0.007 sec  (  1.5% of XC)
Diagonalization             ....       0.006 sec  (  0.2%)
Density matrix formation    ....       0.000 sec  (  0.0%)
Population analysis         ....       0.009 sec  (  0.4%)
Initial guess               ....       0.095 sec  (  3.9%)
Orbital Transformation      ....       0.000 sec  (  0.0%)
Orbital Orthonormalization  ....       0.000 sec  (  0.0%)
DIIS solution               ....       0.000 sec  (  0.0%)
Grid generation             ....       0.070 sec  (  2.9%)


-------------------------------------------------------------------------------
                          DFT DISPERSION CORRECTION                            
                                                                               
                              DFTD3 V3.1  Rev 1                                
                              USING zero damping                               
-------------------------------------------------------------------------------
The omegaB97X-D3 functional is recognized. Fit by Chai et al.
Active option DFTDOPT                   ...         3   

molecular C6(AA) [au] = 32.281552 


            DFT-D V3
 parameters
 s6 scaling factor         :     1.0000 
 rs6 scaling factor        :     1.2810 
 s8 scaling factor         :     1.0000 
 rs8 scaling factor        :     1.0940 
 Damping factor alpha6     :    14.0000 
 Damping factor alpha8     :    16.0000 
 ad hoc parameters k1-k3   :    16.0000     1.3333    -4.0000 

 Edisp/kcal,au: -0.046022503249  -0.000073341520 
 E6   /kcal   :  -0.005729950 
 E8   /kcal   :  -0.040292553 
 % E8         :  87.549677333 

-------------------------   ----------------
Dispersion correction           -0.000073342
-------------------------   ----------------


-------------------------   --------------------
FINAL SINGLE POINT ENERGY      -100.182753980855
-------------------------   --------------------


                            ***************************************
                            *     ORCA property calculations      *
                            ***************************************

                                    ---------------------
                                    Active property flags
                                    ---------------------
   (+) Dipole Moment


------------------------------------------------------------------------------
                       ORCA ELECTRIC PROPERTIES CALCULATION
------------------------------------------------------------------------------

Dipole Moment Calculation                       ... on
Quadrupole Moment Calculation                   ... off
Polarizability Calculation                      ... off
GBWName                                         ... Scan_16.gbw
Electron density file                           ... Scan_16.scfp.tmp

-------------
DIPOLE MOMENT
-------------
                                X             Y             Z
Electronic contribution:     -0.76502      -0.00000       0.00000
Nuclear contribution   :      1.88682      -0.00000       0.00000
                        -----------------------------------------
Total Dipole Moment    :      1.12180      -0.00000       0.00000
                        -----------------------------------------
Magnitude (a.u.)       :      1.12180
Magnitude (Debye)      :      2.85139


Timings for individual modules:

Sum of individual times         ...        2.762 sec (=   0.046 min)
GTO integral calculation        ...        0.302 sec (=   0.005 min)  10.9 %
SCF iterations                  ...        2.460 sec (=   0.041 min)  89.1 %
                             ****ORCA TERMINATED NORMALLY****
TOTAL RUN TIME: 0 days 0 hours 0 minutes 3 seconds 101 msec
