
                                 *****************
                                 * O   R   C   A *
                                 *****************

           --- An Ab Initio, DFT and Semiempirical electronic structure package ---

                  #######################################################
                  #                        -***-                        #
                  #  Department of molecular theory and spectroscopy    #
                  #              Directorship: Frank Neese              #
                  # Max Planck Institute for Chemical Energy Conversion #
                  #                  D-45470 Muelheim/Ruhr              #
                  #                       Germany                       #
                  #                                                     #
                  #                  All rights reserved                #
                  #                        -***-                        #
                  #######################################################


                         Program Version 4.0.0.2 - RELEASE -


 With contributions from (in alphabetic order):
   Daniel Aravena         : Magnetic Properties
   Michael Atanasov       : Ab Initio Ligand Field Theory
   Ute Becker             : Parallelization
   Martin Brehm           : Molecular dynamics
   Dmytro Bykov           : SCF Hessian
   Vijay G. Chilkuri      : MRCI spin determinant printing
   Dipayan Datta          : RHF DLPNO-CCSD density
   Achintya Kumar Dutta   : EOM-CC, STEOM-CC
   Dmitry Ganyushin       : Spin-Orbit,Spin-Spin,Magnetic field MRCI
   Yang Guo               : DLPNO-NEVPT2, CIM, IAO-localization
   Andreas Hansen         : Spin unrestricted coupled pair/coupled cluster methods
   Lee Huntington         : MR-EOM, pCC
   Robert Izsak           : Overlap fitted RIJCOSX, COSX-SCS-MP3, EOM
   Christian Kollmar      : KDIIS, OOCD, Brueckner-CCSD(T), CCSD density
   Simone Kossmann        : Meta GGA functionals, TD-DFT gradient, OOMP2, MP2 Hessian
   Martin Krupicka        : AUTO-CI
   Dagmar Lenk            : GEPOL surface
   Dimitrios Liakos       : Extrapolation schemes; parallel MDCI
   Dimitrios Manganas     : ROCIS; embedding schemes
   Dimitrios Pantazis     : SARC Basis sets
   Taras Petrenko         : DFT Hessian,TD-DFT gradient, ASA, ECA, R-Raman, ABS, FL, XAS/XES, NRVS
   Peter Pinski           : DLPNO-MP2
   Christoph Reimann      : Effective Core Potentials
   Marius Retegan         : Local ZFS, SOC
   Christoph Riplinger    : Optimizer, TS searches, QM/MM, DLPNO-CCSD(T), (RO)-DLPNO pert. Triples
   Tobias Risthaus        : Range-separated hybrids, TD-DFT gradient, RPA, STAB
   Michael Roemelt        : Restricted open shell CIS
   Masaaki Saitow         : Open-shell DLPNO
   Barbara Sandhoefer     : DKH picture change effects
   Kantharuban Sivalingam : CASSCF convergence, NEVPT2, FIC-MRCI
   Georgi Stoychev        : AutoAux
   Boris Wezisla          : Elementary symmetry handling
   Frank Wennmohs         : Technical directorship


 We gratefully acknowledge several colleagues who have allowed us to
 interface, adapt or use parts of their codes:
   Stefan Grimme, W. Hujo, H. Kruse,             : VdW corrections, initial TS optimization,
                  C. Bannwarth                     DFT functionals, gCP, sTDA/sTD-DF
   Ed Valeev                                     : LibInt (2-el integral package), F12 methods
   Garnet Chan, S. Sharma, J. Yang, R. Olivares  : DMRG
   Ulf Ekstrom                                   : XCFun DFT Library
   Mihaly Kallay                                 : mrcc  (arbitrary order and MRCC methods)
   Jiri Pittner, Ondrej Demel                    : Mk-CCSD
   Frank Weinhold                                : gennbo (NPA and NBO analysis)
   Christopher J. Cramer and Donald G. Truhlar   : smd solvation model


 Your calculation uses the libint2 library for the computation of 2-el integrals
 For citations please refer to: http://libint.valeyev.net

 This ORCA versions uses:
   CBLAS   interface :  Fast vector & matrix operations
   LAPACKE interface :  Fast linear algebra routines
   SCALAPACK package :  Parallel linear algebra routines


Your calculation utilizes the atom-pairwise dispersion correction
with the zero-damping scheme (D30)
Cite in your paper:
S.Grimme, J.Antony, S.Ehrlich and H.Krieg, J.Chem.Phys., 132, (2010), 154104 
   

XCFun DFT library Copyright 2009-2010 Ulf Ekstrom and contributors.
See http://admol.org/xcfun for more information. This is free soft-
ware; see the source code for copying conditions. There is ABSOLUTELY
NO WARRANTY; not even for MERCHANTABILITY or FITNESS FOR A PARTICULAR
PURPOSE. For details see the documentation. Scientific users of this 
library should cite U. Ekstrom, L. Visscher, R. Bast, A. J. Thorvald-
sen and K. Ruud; J.Chem.Theor.Comp. 2010, DOI: 10.1021/ct100117s
XCFun Version 0.99 
Your calculation utilizes the basis: 6-31G(d)
   H-He, Li-Ne : W. J. Hehre, R. Ditchfield and J.A. Pople, J. Chem. Phys. 56, 2257 (1972).
                 Note: He and Ne are unpublished basis sets taken from the Gaussian program.
                 Note: Li and B from J. D. Dill and J. A. Pople, J. Chem. Phys. 62, 2921 (1975).
   Na - Ar     : M. M. Francl, W. J. Pietro, W. J. Hehre, J. S. Binkley, M. S. Gordon, 
                 D. J. DeFrees and J. A. Pople, J. Chem. Phys. 77, 3654 (1982).
   K - Zn      : V. A. Rassolov, J. A. Pople, M. A. Ratner, and T. L. Windus, J. Chem. Phys. 109, 1223 (1998).

================================================================================
                                        WARNINGS
                       Please study these warnings very carefully!
================================================================================

Warning: TCutStore was < 0. Adjusted to Thresh (uncritical)

INFO   : the flag for use of LIBINT has been found!

================================================================================
                                       INPUT FILE
================================================================================
NAME = initial17.inp
|  1> ! WB97X-D3 6-31G(d) VerySlowConv
|  2> ! KDIIS NOSOSCF
|  3> %base "Scan_17"
|  4> 
|  5> %scf
|  6> maxiter 999
|  7> end
|  8> 
|  9> * xyz 0 1
| 10> F         -1.052045954600    0.936930000000   -0.000000000000
| 11> H          1.068595954600    0.936930000000   -0.000000000000
| 12> **                         ****END OF INPUT****
================================================================================

                       ****************************
                       * Single Point Calculation *
                       ****************************

---------------------------------
CARTESIAN COORDINATES (ANGSTROEM)
---------------------------------
  F     -1.052046    0.936930   -0.000000
  H      1.068596    0.936930   -0.000000

----------------------------
CARTESIAN COORDINATES (A.U.)
----------------------------
  NO LB      ZA    FRAG     MASS         X           Y           Z
   0 F     9.0000    0    18.998   -1.988079    1.770541   -0.000000
   1 H     1.0000    0     1.008    2.019354    1.770541   -0.000000

--------------------------------
INTERNAL COORDINATES (ANGSTROEM)
--------------------------------
 F      0   0   0     0.000000000000     0.00000000     0.00000000
 H      1   0   0     2.120641909200     0.00000000     0.00000000

---------------------------
INTERNAL COORDINATES (A.U.)
---------------------------
 F      0   0   0     0.000000000000     0.00000000     0.00000000
 H      1   0   0     4.007432436504     0.00000000     0.00000000

---------------------
BASIS SET INFORMATION
---------------------
There are 2 groups of distinct atoms

 Group   1 Type F   : 10s4p1d contracted to 3s2p1d pattern {631/31/1}
 Group   2 Type H   : 4s contracted to 2s pattern {31}

Atom   0F    basis set group =>   1
Atom   1H    basis set group =>   2
------------------------------------------------------------------------------
                           ORCA GTO INTEGRAL CALCULATION
------------------------------------------------------------------------------

                         BASIS SET STATISTICS AND STARTUP INFO

 # of primitive gaussian shells          ...   19
 # of primitive gaussian functions       ...   31
 # of contracted shells                  ...    8
 # of contracted basis functions         ...   16
 Highest angular momentum                ...    2
 Maximum contraction depth               ...    6
 Integral package used                   ... LIBINT
 Integral threshhold            Thresh   ...  1.000e-10
 Primitive cut-off              TCut     ...  1.000e-11


------------------------------ INTEGRAL EVALUATION ----------------------------


 * One electron integrals 
 Pre-screening matrix                    ... done
 Shell pair data                         ... done (   0.000 sec)

-------------------------------------------------------------------------------
                                 ORCA SCF
-------------------------------------------------------------------------------

------------
SCF SETTINGS
------------
Hamiltonian:
 Density Functional     Method          .... DFT(GTOs)
 Exchange Functional    Exchange        .... WB97X-D3
 Correlation Functional Correlation     .... WB97X-D3
 Gradients option       PostSCFGGA      .... off
 Hybrid DFT is turned on
   Fraction HF Exchange ScalHFX         ....  0.195728
   Scaling of DF-GGA-X  ScalDFX         ....  0.000000
   Scaling of DF-GGA-C  ScalDFC         ....  1.000000
   Scaling of DF-LDA-C  ScalLDAC        ....  1.000000
   Perturbative correction              ....  0.000000
 Long-range corrected/Screened/Range-Separated Hybrid DFT is turned on
   Amount of maximum screened exact exchange              ....  0.804272
   Range separation parameter mu (erf(mu*r12)/r12)        ....  0.250000


General Settings:
 Integral files         IntName         .... Scan_17
 Hartree-Fock type      HFTyp           .... RHF
 Total Charge           Charge          ....    0
 Multiplicity           Mult            ....    1
 Number of Electrons    NEL             ....   10
 Basis Dimension        Dim             ....   16
 Nuclear Repulsion      ENuc            ....      2.2458270083 Eh

Convergence Acceleration:
 DIIS                   CNVDIIS         .... on
   Start iteration      DIISMaxIt       ....     0
   Startup error        DIISStart       ....  0.200000
   # of expansion vecs  DIISMaxEq       ....     5
   Bias factor          DIISBfac        ....   1.050
   Max. coefficient     DIISMaxC        ....  10.000
 Newton-Raphson         CNVNR           .... off
 SOSCF                  CNVSOSCF        .... off
 Level Shifting         CNVShift        .... off
 Zerner damping         CNVZerner       .... off
 Static damping         CNVDamp         .... off
 Fernandez-Rico         CNVRico         .... off

SCF Procedure:
 Maximum # iterations   MaxIter         ....   999
 SCF integral mode      SCFMode         .... Direct
   Integral package                     .... LIBINT
 Reset frequeny         DirectResetFreq ....    20
 Integral Threshold     Thresh          ....  1.000e-10 Eh
 Primitive CutOff       TCut            ....  1.000e-11 Eh

Convergence Tolerance:
 Convergence Check Mode ConvCheckMode   .... All-Criteria
 Convergence forced     ConvForced      .... 0
 Energy Change          TolE            ....  1.000e-06 Eh
 Max Density Change     TolMaxP         ....  1.000e-05
 RMS Density Change     TolRMSP         ....  1.000e-06
 DIIS Error             TolErr          ....  1.000e-06


Diagonalization of the overlap matrix:
Smallest eigenvalue                        ... 2.137e-01
Time for diagonalization                   ...    0.000 sec
Threshold for overlap eigenvalues          ... 1.000e-08
Number of eigenvalues below threshold      ... 0
Time for construction of square roots      ...    0.004 sec
Total time needed                          ...    0.004 sec

-------------------
DFT GRID GENERATION
-------------------

General Integration Accuracy     IntAcc      ...  4.340
Radial Grid Type                 RadialGrid  ... Gauss-Chebyshev
Angular Grid (max. acc.)         AngularGrid ... Lebedev-110
Angular grid pruning method      GridPruning ... 3 (G Style)
Weight generation scheme         WeightScheme... Becke
Basis function cutoff            BFCut       ...    1.0000e-10
Integration weight cutoff        WCut        ...    1.0000e-14
Grids for H and He will be reduced by one unit

# of grid points (after initial pruning)     ...   2534 (   0.0 sec)
# of grid points (after weights+screening)   ...   2518 (   0.0 sec)
nearest neighbour list constructed           ...    0.0 sec
Grid point re-assignment to atoms done       ...    0.0 sec
Grid point division into batches done        ...    0.0 sec
Reduced shell lists constructed in    0.0 sec

Total number of grid points                  ...     2518
Total number of batches                      ...       41
Average number of points per batch           ...       61
Average number of grid points per atom       ...     1259
Average number of shells per batch           ...     6.93 (86.61%)
Average number of basis functions per batch  ...    14.26 (89.14%)
Average number of large shells per batch     ...     6.40 (92.44%)
Average number of large basis fcns per batch ...    13.21 (92.65%)
Maximum spatial batch extension              ...  14.63, 25.65, 25.65 au
Average spatial batch extension              ...   5.15,  6.84,  7.45 au

Time for grid setup =    0.013 sec

------------------------------
INITIAL GUESS: MODEL POTENTIAL
------------------------------
Loading Hartree-Fock densities                     ... done
Calculating cut-offs                               ... done
Setting up the integral package                    ... done
Initializing the effective Hamiltonian             ... done
Starting the Coulomb interaction                   ... done (   0.0 sec)
Reading the grid                                   ... done
Mapping shells                                     ... done
Starting the XC term evaluation                    ... done (   0.0 sec)
  promolecular density results
     # of electrons  =      9.997661459
     EX              =    -10.173774938
     EC              =     -0.313908893
     EX+EC           =    -10.487683831
Transforming the Hamiltonian                       ... done (   0.0 sec)
Diagonalizing the Hamiltonian                      ... done (   0.0 sec)
Back transforming the eigenvectors                 ... done (   0.0 sec)
Now organizing SCF variables                       ... done
                      ------------------
                      INITIAL GUESS DONE (   0.1 sec)
                      ------------------
--------------
SCF ITERATIONS
--------------
ITER       Energy         Delta-E        Max-DP      RMS-DP      [F,P]   Gradient Norm
               ***  Starting incremental Fock matrix formation  ***
                             ****Resetting KDIIS****
                             ****Turning on KDIIS(Cayley)****
  0    -99.9486128332   0.000000000000 0.03837195  0.00483730  0.1963178   0.182445568
  1    -99.9893277501  -0.040714916838 0.04902206  0.00576229  0.1558084   0.148702345
  2   -100.0358284216  -0.046500671538 0.11711203  0.01399296  0.1365985   0.117272314
  3   -100.1222896668  -0.086461245201 0.26422318  0.02944776  0.1049520   0.059210182
  4   -100.1390546972  -0.016765030379 0.21043488  0.02605629  0.1013335   0.082461905
  5   -100.1377285996   0.001326097608 0.01780630  0.00186396  0.0803970   0.036320959
  6   -100.1334021758   0.004326423756 0.04343409  0.00538825  0.0837115   0.038614102
  7   -100.1481080201  -0.014705844291 0.03072244  0.00343037  0.0668371   0.031816978
  8   -100.1422009178   0.005907102285 1.21820344  0.16446632  0.0750935   0.034155662
Warning: badly conditioned DIIS matrix, 1 vectors out of 5 destroyed
  9    -97.4051399674   2.737060950401 0.72244320  0.12910174  0.8648370   0.683540423
 10    -99.4716671735  -2.066527206041 0.24312364  0.02842612  0.2853075   0.237697293
 11    -99.3825571845   0.089109988979 0.90218516  0.11701110  0.2895856   0.226048988
 12    -99.9492019434  -0.566644758944 0.45667114  0.05472632  0.1087527   0.079791608
 13    -99.7137330021   0.235468941305 0.45366718  0.05564062  0.2765913   0.278396736
 14    -99.9391581080  -0.225425105848 0.60426748  0.08620417  0.1217514   0.074004039
 15   -100.0909697693  -0.151811661366 0.47616012  0.06762438  0.1048741   0.089691045
 16    -99.4675604985   0.623409270843 0.68497093  0.09307348  0.2279777   0.129477446
 17   -100.0763724662  -0.608811967706 0.11105141  0.01076881  0.1414332   0.133174077
 18   -100.1149709349  -0.038598468700 0.41614520  0.04324848  0.1264318   0.118125954
 19    -99.9839525254   0.131018409483 1.03173756  0.10399984  0.0971614   0.090015344
               *** Restarting incremental Fock matrix formation ***
                             ****Resetting KDIIS****
 20    -99.2262457017   0.757706823734 0.07107576  0.00964853  0.5744971   0.484530933
 21    -99.4054727290  -0.179227027313 0.14587779  0.02057483  0.5046155   0.422739423
 22    -99.7345361049  -0.329063375916 0.23738594  0.03310729  0.3109574   0.276450828
 23    -99.9600792441  -0.225543139228 0.34715760  0.03301713  0.1239611   0.087748953
 24    -99.9212844896   0.038794754547 0.11443895  0.01980995  0.1986616   0.145826356
 25   -100.0013500597  -0.080065570111 0.04767778  0.00772131  0.0474594   0.034669117
 26   -100.0028574125  -0.001507352776 0.01206592  0.00159965  0.0321742   0.016262627
 27   -100.0043838750  -0.001526462496 0.02361127  0.00226818  0.0240263   0.011044789
 28   -100.0058703255  -0.001486450488 0.04139811  0.00446755  0.0170672   0.007853866
 29   -100.0072264309  -0.001356105428 0.00273637  0.00029876  0.0016380   0.001364712
 30   -100.0072359796  -0.000009548682 0.00028986  0.00003947  0.0003017   0.000251083
                          ***Energy convergence achieved***
 31   -100.0072362379  -0.000000258323 0.00007036  0.00000820  0.0000278   0.000027198
Warning: badly conditioned DIIS matrix, 1 vectors out of 5 destroyed
                           ***RMSP convergence achieved***
                           ***MAXP convergence achieved***
                    *** KDIIS BlockDiag ( 0.000 sec) ***

               *****************************************************
               *                     SUCCESS                       *
               *           SCF CONVERGED AFTER  32 CYCLES          *
               *****************************************************

Setting up the final grid:

General Integration Accuracy     IntAcc      ...  4.670
Radial Grid Type                 RadialGrid  ... Gauss-Chebyshev
Angular Grid (max. acc.)         AngularGrid ... Lebedev-302
Angular grid pruning method      GridPruning ... 3 (G Style)
Weight generation scheme         WeightScheme... Becke
Basis function cutoff            BFCut       ...    1.0000e-10
Integration weight cutoff        WCut        ...    1.0000e-14
Grids for H and He will be reduced by one unit

# of grid points (after initial pruning)     ...   9666 (   0.0 sec)
# of grid points (after weights+screening)   ...   9648 (   0.0 sec)
nearest neighbour list constructed           ...    0.0 sec
Grid point re-assignment to atoms done       ...    0.0 sec
Grid point division into batches done        ...    0.0 sec
Reduced shell lists constructed in    0.1 sec

Total number of grid points                  ...     9648
Total number of batches                      ...      152
Average number of points per batch           ...       63
Average number of grid points per atom       ...     4824
Average number of shells per batch           ...     6.15 (76.88%)
Average number of basis functions per batch  ...    12.62 (78.88%)
Average number of large shells per batch     ...     5.47 (88.95%)
Average number of large basis fcns per batch ...    11.38 (90.16%)
Maximum spatial batch extension              ...  15.07, 19.94, 19.94 au
Average spatial batch extension              ...   3.58,  3.82,  3.83 au

Final grid set up in    0.1 sec
Final integration                            ... done (   0.1 sec)
Change in XC energy                          ...     0.000511442
Integrated number of electrons               ...     9.999992595
Previous integrated no of electrons          ...     9.992703719

----------------
TOTAL SCF ENERGY
----------------

Total Energy       :         -100.00672480 Eh           -2721.32133 eV

Components:
Nuclear Repulsion  :            2.24582701 Eh              61.11206 eV
Electronic Energy  :         -102.25255181 Eh           -2782.43339 eV
One Electron Energy:         -145.54920720 Eh           -3960.59528 eV
Two Electron Energy:           43.29665539 Eh            1178.16189 eV

Virial components:
Potential Energy   :         -199.95677846 Eh           -5441.10056 eV
Kinetic Energy     :           99.95005366 Eh            2719.77923 eV
Virial Ratio       :            2.00056699


DFT components:
N(Alpha)           :        4.999996297598 electrons
N(Beta)            :        4.999996297598 electrons
N(Total)           :        9.999992595197 electrons
E(XC)              :       -7.595513931675 Eh       

---------------
SCF CONVERGENCE
---------------

  Last Energy change         ...   -4.4082e-09  Tolerance :   1.0000e-06
  Last MAX-Density change    ...    3.2832e-06  Tolerance :   1.0000e-05
  Last RMS-Density change    ...    6.3648e-07  Tolerance :   1.0000e-06
  Last DIIS Error            ...    4.1714e-06  Tolerance :   1.0000e-06

             **** THE GBW FILE WAS UPDATED (Scan_17.gbw) ****
             **** DENSITY FILE WAS UPDATED (Scan_17.scfp.tmp) ****
             **** ENERGY FILE WAS UPDATED (Scan_17.en.tmp) ****
----------------
ORBITAL ENERGIES
----------------

  NO   OCC          E(Eh)            E(eV) 
   0   2.0000     -24.667076      -671.2253 
   1   2.0000      -1.125550       -30.6278 
   2   2.0000      -0.385451       -10.4886 
   3   2.0000      -0.385451       -10.4886 
   4   2.0000      -0.344168        -9.3653 
   5   0.0000      -0.222860        -6.0643 
   6   0.0000       0.783394        21.3172 
   7   0.0000       1.370330        37.2886 
   8   0.0000       1.370330        37.2886 
   9   0.0000       1.394001        37.9327 
  10   0.0000       1.570417        42.7332 
  11   0.0000       2.028027        55.1854 
  12   0.0000       2.032274        55.3010 
  13   0.0000       2.032274        55.3010 
  14   0.0000       2.051876        55.8344 
  15   0.0000       2.051881        55.8345 

                    ********************************
                    * MULLIKEN POPULATION ANALYSIS *
                    ********************************

-----------------------
MULLIKEN ATOMIC CHARGES
-----------------------
   0 F :   -0.416668
   1 H :    0.416668
Sum of atomic charges:   -0.0000000

--------------------------------
MULLIKEN REDUCED ORBITAL CHARGES
--------------------------------
  0 F s       :     3.996747  s :     3.996747
      pz      :     1.999969  p :     5.420031
      px      :     1.420094
      py      :     1.999969
      dz2     :    -0.000043  d :    -0.000110
      dxz     :     0.000031
      dyz     :     0.000000
      dx2y2   :    -0.000130
      dxy     :     0.000031
  1 H s       :     0.583332  s :     0.583332


                     *******************************
                     * LOEWDIN POPULATION ANALYSIS *
                     *******************************

----------------------
LOEWDIN ATOMIC CHARGES
----------------------
   0 F :   -0.407375
   1 H :    0.407375

-------------------------------
LOEWDIN REDUCED ORBITAL CHARGES
-------------------------------
  0 F s       :     3.993472  s :     3.993472
      pz      :     1.999969  p :     5.413652
      px      :     1.413714
      py      :     1.999969
      dz2     :     0.000047  d :     0.000252
      dxz     :     0.000031
      dyz     :     0.000000
      dx2y2   :     0.000142
      dxy     :     0.000031
  1 H s       :     0.592625  s :     0.592625


                      *****************************
                      * MAYER POPULATION ANALYSIS *
                      *****************************

  NA   - Mulliken gross atomic population
  ZA   - Total nuclear charge
  QA   - Mulliken gross atomic charge
  VA   - Mayer's total valence
  BVA  - Mayer's bonded valence
  FA   - Mayer's free valence

  ATOM       NA         ZA         QA         VA         BVA        FA
  0 F      9.4167     9.0000    -0.4167     0.8269     0.8269    -0.0000
  1 H      0.5833     1.0000     0.4167     0.8269     0.8269     0.0000

  Mayer bond orders larger than 0.1
B(  0-F ,  1-H ) :   0.8269 

-------
TIMINGS
-------

Total SCF time: 0 days 0 hours 0 min 5 sec 

Total time                  ....       5.976 sec
Sum of individual times     ....       5.694 sec  ( 95.3%)

Fock matrix formation       ....       5.500 sec  ( 92.0%)
  XC integration            ....       1.084 sec  ( 19.7% of F)
    Basis function eval.    ....       0.173 sec  ( 15.9% of XC)
    Density eval.           ....       0.042 sec  (  3.9% of XC)
    XC-Functional eval.     ....       0.284 sec  ( 26.2% of XC)
    XC-Potential eval.      ....       0.017 sec  (  1.6% of XC)
Diagonalization             ....       0.011 sec  (  0.2%)
Density matrix formation    ....       0.000 sec  (  0.0%)
Population analysis         ....       0.008 sec  (  0.1%)
Initial guess               ....       0.098 sec  (  1.6%)
Orbital Transformation      ....       0.000 sec  (  0.0%)
Orbital Orthonormalization  ....       0.000 sec  (  0.0%)
DIIS solution               ....       0.000 sec  (  0.0%)
Grid generation             ....       0.076 sec  (  1.3%)


-------------------------------------------------------------------------------
                          DFT DISPERSION CORRECTION                            
                                                                               
                              DFTD3 V3.1  Rev 1                                
                              USING zero damping                               
-------------------------------------------------------------------------------
The omegaB97X-D3 functional is recognized. Fit by Chai et al.
Active option DFTDOPT                   ...         3   

molecular C6(AA) [au] = 32.285728 


            DFT-D V3
 parameters
 s6 scaling factor         :     1.0000 
 rs6 scaling factor        :     1.2810 
 s8 scaling factor         :     1.0000 
 rs8 scaling factor        :     1.0940 
 Damping factor alpha6     :    14.0000 
 Damping factor alpha8     :    16.0000 
 ad hoc parameters k1-k3   :    16.0000     1.3333    -4.0000 

 Edisp/kcal,au: -0.067961786611  -0.000108303989 
 E6   /kcal   :  -0.008679685 
 E8   /kcal   :  -0.059282102 
 % E8         :  87.228580992 

-------------------------   ----------------
Dispersion correction           -0.000108304
-------------------------   ----------------


-------------------------   --------------------
FINAL SINGLE POINT ENERGY      -100.006833103815
-------------------------   --------------------


                            ***************************************
                            *     ORCA property calculations      *
                            ***************************************

                                    ---------------------
                                    Active property flags
                                    ---------------------
   (+) Dipole Moment


------------------------------------------------------------------------------
                       ORCA ELECTRIC PROPERTIES CALCULATION
------------------------------------------------------------------------------

Dipole Moment Calculation                       ... on
Quadrupole Moment Calculation                   ... off
Polarizability Calculation                      ... off
GBWName                                         ... Scan_17.gbw
Electron density file                           ... Scan_17.scfp.tmp

-------------
DIPOLE MOMENT
-------------
                                X             Y             Z
Electronic contribution:     -0.47912       0.00000      -0.00000
Nuclear contribution   :      1.98829      -0.00000       0.00000
                        -----------------------------------------
Total Dipole Moment    :      1.50918       0.00000      -0.00000
                        -----------------------------------------
Magnitude (a.u.)       :      1.50918
Magnitude (Debye)      :      3.83602


Timings for individual modules:

Sum of individual times         ...        6.320 sec (=   0.105 min)
GTO integral calculation        ...        0.306 sec (=   0.005 min)   4.8 %
SCF iterations                  ...        6.014 sec (=   0.100 min)  95.2 %
                             ****ORCA TERMINATED NORMALLY****
TOTAL RUN TIME: 0 days 0 hours 0 minutes 6 seconds 648 msec
