
                                 *****************
                                 * O   R   C   A *
                                 *****************

           --- An Ab Initio, DFT and Semiempirical electronic structure package ---

                  #######################################################
                  #                        -***-                        #
                  #  Department of molecular theory and spectroscopy    #
                  #              Directorship: Frank Neese              #
                  # Max Planck Institute for Chemical Energy Conversion #
                  #                  D-45470 Muelheim/Ruhr              #
                  #                       Germany                       #
                  #                                                     #
                  #                  All rights reserved                #
                  #                        -***-                        #
                  #######################################################


                         Program Version 4.0.0.2 - RELEASE -


 With contributions from (in alphabetic order):
   Daniel Aravena         : Magnetic Properties
   Michael Atanasov       : Ab Initio Ligand Field Theory
   Ute Becker             : Parallelization
   Martin Brehm           : Molecular dynamics
   Dmytro Bykov           : SCF Hessian
   Vijay G. Chilkuri      : MRCI spin determinant printing
   Dipayan Datta          : RHF DLPNO-CCSD density
   Achintya Kumar Dutta   : EOM-CC, STEOM-CC
   Dmitry Ganyushin       : Spin-Orbit,Spin-Spin,Magnetic field MRCI
   Yang Guo               : DLPNO-NEVPT2, CIM, IAO-localization
   Andreas Hansen         : Spin unrestricted coupled pair/coupled cluster methods
   Lee Huntington         : MR-EOM, pCC
   Robert Izsak           : Overlap fitted RIJCOSX, COSX-SCS-MP3, EOM
   Christian Kollmar      : KDIIS, OOCD, Brueckner-CCSD(T), CCSD density
   Simone Kossmann        : Meta GGA functionals, TD-DFT gradient, OOMP2, MP2 Hessian
   Martin Krupicka        : AUTO-CI
   Dagmar Lenk            : GEPOL surface
   Dimitrios Liakos       : Extrapolation schemes; parallel MDCI
   Dimitrios Manganas     : ROCIS; embedding schemes
   Dimitrios Pantazis     : SARC Basis sets
   Taras Petrenko         : DFT Hessian,TD-DFT gradient, ASA, ECA, R-Raman, ABS, FL, XAS/XES, NRVS
   Peter Pinski           : DLPNO-MP2
   Christoph Reimann      : Effective Core Potentials
   Marius Retegan         : Local ZFS, SOC
   Christoph Riplinger    : Optimizer, TS searches, QM/MM, DLPNO-CCSD(T), (RO)-DLPNO pert. Triples
   Tobias Risthaus        : Range-separated hybrids, TD-DFT gradient, RPA, STAB
   Michael Roemelt        : Restricted open shell CIS
   Masaaki Saitow         : Open-shell DLPNO
   Barbara Sandhoefer     : DKH picture change effects
   Kantharuban Sivalingam : CASSCF convergence, NEVPT2, FIC-MRCI
   Georgi Stoychev        : AutoAux
   Boris Wezisla          : Elementary symmetry handling
   Frank Wennmohs         : Technical directorship


 We gratefully acknowledge several colleagues who have allowed us to
 interface, adapt or use parts of their codes:
   Stefan Grimme, W. Hujo, H. Kruse,             : VdW corrections, initial TS optimization,
                  C. Bannwarth                     DFT functionals, gCP, sTDA/sTD-DF
   Ed Valeev                                     : LibInt (2-el integral package), F12 methods
   Garnet Chan, S. Sharma, J. Yang, R. Olivares  : DMRG
   Ulf Ekstrom                                   : XCFun DFT Library
   Mihaly Kallay                                 : mrcc  (arbitrary order and MRCC methods)
   Jiri Pittner, Ondrej Demel                    : Mk-CCSD
   Frank Weinhold                                : gennbo (NPA and NBO analysis)
   Christopher J. Cramer and Donald G. Truhlar   : smd solvation model


 Your calculation uses the libint2 library for the computation of 2-el integrals
 For citations please refer to: http://libint.valeyev.net

 This ORCA versions uses:
   CBLAS   interface :  Fast vector & matrix operations
   LAPACKE interface :  Fast linear algebra routines
   SCALAPACK package :  Parallel linear algebra routines


Your calculation utilizes the atom-pairwise dispersion correction
with the zero-damping scheme (D30)
Cite in your paper:
S.Grimme, J.Antony, S.Ehrlich and H.Krieg, J.Chem.Phys., 132, (2010), 154104 
   

XCFun DFT library Copyright 2009-2010 Ulf Ekstrom and contributors.
See http://admol.org/xcfun for more information. This is free soft-
ware; see the source code for copying conditions. There is ABSOLUTELY
NO WARRANTY; not even for MERCHANTABILITY or FITNESS FOR A PARTICULAR
PURPOSE. For details see the documentation. Scientific users of this 
library should cite U. Ekstrom, L. Visscher, R. Bast, A. J. Thorvald-
sen and K. Ruud; J.Chem.Theor.Comp. 2010, DOI: 10.1021/ct100117s
XCFun Version 0.99 
Your calculation utilizes the basis: 6-31G(d)
   H-He, Li-Ne : W. J. Hehre, R. Ditchfield and J.A. Pople, J. Chem. Phys. 56, 2257 (1972).
                 Note: He and Ne are unpublished basis sets taken from the Gaussian program.
                 Note: Li and B from J. D. Dill and J. A. Pople, J. Chem. Phys. 62, 2921 (1975).
   Na - Ar     : M. M. Francl, W. J. Pietro, W. J. Hehre, J. S. Binkley, M. S. Gordon, 
                 D. J. DeFrees and J. A. Pople, J. Chem. Phys. 77, 3654 (1982).
   K - Zn      : V. A. Rassolov, J. A. Pople, M. A. Ratner, and T. L. Windus, J. Chem. Phys. 109, 1223 (1998).

================================================================================
                                        WARNINGS
                       Please study these warnings very carefully!
================================================================================

Warning: TCutStore was < 0. Adjusted to Thresh (uncritical)

INFO   : the flag for use of LIBINT has been found!

================================================================================
                                       INPUT FILE
================================================================================
NAME = initial19.inp
|  1> ! WB97X-D3 6-31G(d) VerySlowConv
|  2> ! KDIIS NOSOSCF
|  3> %base "Scan_19"
|  4> 
|  5> %scf
|  6> maxiter 999
|  7> end
|  8> 
|  9> * xyz 0 1
| 10> F         -1.158052680917    0.936930000000    0.000000000000
| 11> H          1.174602680917    0.936930000000   -0.000000000000
| 12> **                         ****END OF INPUT****
================================================================================

                       ****************************
                       * Single Point Calculation *
                       ****************************

---------------------------------
CARTESIAN COORDINATES (ANGSTROEM)
---------------------------------
  F     -1.158053    0.936930    0.000000
  H      1.174603    0.936930   -0.000000

----------------------------
CARTESIAN COORDINATES (A.U.)
----------------------------
  NO LB      ZA    FRAG     MASS         X           Y           Z
   0 F     9.0000    0    18.998   -2.188402    1.770541    0.000000
   1 H     1.0000    0     1.008    2.219677    1.770541   -0.000000

--------------------------------
INTERNAL COORDINATES (ANGSTROEM)
--------------------------------
 F      0   0   0     0.000000000000     0.00000000     0.00000000
 H      1   0   0     2.332655361834     0.00000000     0.00000000

---------------------------
INTERNAL COORDINATES (A.U.)
---------------------------
 F      0   0   0     0.000000000000     0.00000000     0.00000000
 H      1   0   0     4.408079798689     0.00000000     0.00000000

---------------------
BASIS SET INFORMATION
---------------------
There are 2 groups of distinct atoms

 Group   1 Type F   : 10s4p1d contracted to 3s2p1d pattern {631/31/1}
 Group   2 Type H   : 4s contracted to 2s pattern {31}

Atom   0F    basis set group =>   1
Atom   1H    basis set group =>   2
------------------------------------------------------------------------------
                           ORCA GTO INTEGRAL CALCULATION
------------------------------------------------------------------------------

                         BASIS SET STATISTICS AND STARTUP INFO

 # of primitive gaussian shells          ...   19
 # of primitive gaussian functions       ...   31
 # of contracted shells                  ...    8
 # of contracted basis functions         ...   16
 Highest angular momentum                ...    2
 Maximum contraction depth               ...    6
 Integral package used                   ... LIBINT
 Integral threshhold            Thresh   ...  1.000e-10
 Primitive cut-off              TCut     ...  1.000e-11


------------------------------ INTEGRAL EVALUATION ----------------------------


 * One electron integrals 
 Pre-screening matrix                    ... done
 Shell pair data                         ... done (   0.000 sec)

-------------------------------------------------------------------------------
                                 ORCA SCF
-------------------------------------------------------------------------------

------------
SCF SETTINGS
------------
Hamiltonian:
 Density Functional     Method          .... DFT(GTOs)
 Exchange Functional    Exchange        .... WB97X-D3
 Correlation Functional Correlation     .... WB97X-D3
 Gradients option       PostSCFGGA      .... off
 Hybrid DFT is turned on
   Fraction HF Exchange ScalHFX         ....  0.195728
   Scaling of DF-GGA-X  ScalDFX         ....  0.000000
   Scaling of DF-GGA-C  ScalDFC         ....  1.000000
   Scaling of DF-LDA-C  ScalLDAC        ....  1.000000
   Perturbative correction              ....  0.000000
 Long-range corrected/Screened/Range-Separated Hybrid DFT is turned on
   Amount of maximum screened exact exchange              ....  0.804272
   Range separation parameter mu (erf(mu*r12)/r12)        ....  0.250000


General Settings:
 Integral files         IntName         .... Scan_19
 Hartree-Fock type      HFTyp           .... RHF
 Total Charge           Charge          ....    0
 Multiplicity           Mult            ....    1
 Number of Electrons    NEL             ....   10
 Basis Dimension        Dim             ....   16
 Nuclear Repulsion      ENuc            ....      2.0417053255 Eh

Convergence Acceleration:
 DIIS                   CNVDIIS         .... on
   Start iteration      DIISMaxIt       ....     0
   Startup error        DIISStart       ....  0.200000
   # of expansion vecs  DIISMaxEq       ....     5
   Bias factor          DIISBfac        ....   1.050
   Max. coefficient     DIISMaxC        ....  10.000
 Newton-Raphson         CNVNR           .... off
 SOSCF                  CNVSOSCF        .... off
 Level Shifting         CNVShift        .... off
 Zerner damping         CNVZerner       .... off
 Static damping         CNVDamp         .... off
 Fernandez-Rico         CNVRico         .... off

SCF Procedure:
 Maximum # iterations   MaxIter         ....   999
 SCF integral mode      SCFMode         .... Direct
   Integral package                     .... LIBINT
 Reset frequeny         DirectResetFreq ....    20
 Integral Threshold     Thresh          ....  1.000e-10 Eh
 Primitive CutOff       TCut            ....  1.000e-11 Eh

Convergence Tolerance:
 Convergence Check Mode ConvCheckMode   .... All-Criteria
 Convergence forced     ConvForced      .... 0
 Energy Change          TolE            ....  1.000e-06 Eh
 Max Density Change     TolMaxP         ....  1.000e-05
 RMS Density Change     TolRMSP         ....  1.000e-06
 DIIS Error             TolErr          ....  1.000e-06


Diagonalization of the overlap matrix:
Smallest eigenvalue                        ... 2.219e-01
Time for diagonalization                   ...    0.000 sec
Threshold for overlap eigenvalues          ... 1.000e-08
Number of eigenvalues below threshold      ... 0
Time for construction of square roots      ...    0.004 sec
Total time needed                          ...    0.004 sec

-------------------
DFT GRID GENERATION
-------------------

General Integration Accuracy     IntAcc      ...  4.340
Radial Grid Type                 RadialGrid  ... Gauss-Chebyshev
Angular Grid (max. acc.)         AngularGrid ... Lebedev-110
Angular grid pruning method      GridPruning ... 3 (G Style)
Weight generation scheme         WeightScheme... Becke
Basis function cutoff            BFCut       ...    1.0000e-10
Integration weight cutoff        WCut        ...    1.0000e-14
Grids for H and He will be reduced by one unit

# of grid points (after initial pruning)     ...   2534 (   0.0 sec)
# of grid points (after weights+screening)   ...   2520 (   0.0 sec)
nearest neighbour list constructed           ...    0.0 sec
Grid point re-assignment to atoms done       ...    0.0 sec
Grid point division into batches done        ...    0.0 sec
Reduced shell lists constructed in    0.0 sec

Total number of grid points                  ...     2520
Total number of batches                      ...       41
Average number of points per batch           ...       61
Average number of grid points per atom       ...     1260
Average number of shells per batch           ...     6.88 (86.01%)
Average number of basis functions per batch  ...    14.21 (88.84%)
Average number of large shells per batch     ...     6.24 (90.66%)
Average number of large basis fcns per batch ...    12.95 (91.12%)
Maximum spatial batch extension              ...  14.63, 25.65, 25.65 au
Average spatial batch extension              ...   5.21,  7.25,  7.45 au

Time for grid setup =    0.013 sec

------------------------------
INITIAL GUESS: MODEL POTENTIAL
------------------------------
Loading Hartree-Fock densities                     ... done
Calculating cut-offs                               ... done
Setting up the integral package                    ... done
Initializing the effective Hamiltonian             ... done
Starting the Coulomb interaction                   ... done (   0.0 sec)
Reading the grid                                   ... done
Mapping shells                                     ... done
Starting the XC term evaluation                    ... done (   0.0 sec)
  promolecular density results
     # of electrons  =      9.999204353
     EX              =    -10.172540107
     EC              =     -0.313035687
     EX+EC           =    -10.485575794
Transforming the Hamiltonian                       ... done (   0.0 sec)
Diagonalizing the Hamiltonian                      ... done (   0.0 sec)
Back transforming the eigenvectors                 ... done (   0.0 sec)
Now organizing SCF variables                       ... done
                      ------------------
                      INITIAL GUESS DONE (   0.1 sec)
                      ------------------
--------------
SCF ITERATIONS
--------------
ITER       Energy         Delta-E        Max-DP      RMS-DP      [F,P]   Gradient Norm
               ***  Starting incremental Fock matrix formation  ***
                             ****Resetting KDIIS****
                             ****Turning on KDIIS(Cayley)****
  0    -99.8957962645   0.000000000000 0.04058400  0.00522409  0.2071858   0.187801752
  1    -99.9388414671  -0.043045202581 0.04558769  0.00585444  0.1648791   0.152114190
  2    -99.9840698039  -0.045228336810 0.12199780  0.01606716  0.1243803   0.120800457
  3   -100.0849355705  -0.100865766571 0.28226044  0.03211479  0.1115008   0.063550456
  4   -100.1100273029  -0.025091732398 0.26340568  0.03538434  0.1070897   0.087582084
  5   -100.0723905700   0.037636732894 0.00671830  0.00078495  0.1017859   0.046495290
  6   -100.0716717907   0.000718779259 0.02834322  0.00359588  0.1005629   0.045873379
  7   -100.0696024457   0.002069345047 0.14437294  0.02157921  0.0997012   0.047706867
  8   -100.1383388298  -0.068736384082 0.21581915  0.02604816  0.0306169   0.014802503
  9   -100.0905528976   0.047785932152 0.21367350  0.02663801  0.1350250   0.063353146
 10   -100.1363425015  -0.045789603913 0.06109068  0.00732787  0.0388589   0.020541829
 11   -100.1414993171  -0.005156815603 0.03672076  0.00478934  0.0116464   0.006579132
 12   -100.1383517323   0.003147584797 0.02792382  0.00298212  0.0329012   0.014788601
 13   -100.1409922268  -0.002640494434 0.03344600  0.00330539  0.0154393   0.007293186
Warning: badly conditioned DIIS matrix, 1 vectors out of 5 destroyed
 14   -100.1418897343  -0.000897507574 0.00373548  0.00042357  0.0024114   0.001433516
Warning: badly conditioned DIIS matrix, 1 vectors out of 5 destroyed
 15   -100.1419050816  -0.000015347246 0.00035619  0.00004332  0.0002726   0.000177401
Warning: badly conditioned DIIS matrix, 1 vectors out of 5 destroyed
                          ***Energy convergence achieved***
 16   -100.1419053372  -0.000000255568 0.00003925  0.00000526  0.0000274   0.000024256
Warning: badly conditioned DIIS matrix, 1 vectors out of 5 destroyed
                           ***RMSP convergence achieved***
                           ***MAXP convergence achieved***
                    *** KDIIS BlockDiag ( 0.000 sec) ***

               *****************************************************
               *                     SUCCESS                       *
               *           SCF CONVERGED AFTER  17 CYCLES          *
               *****************************************************

Setting up the final grid:

General Integration Accuracy     IntAcc      ...  4.670
Radial Grid Type                 RadialGrid  ... Gauss-Chebyshev
Angular Grid (max. acc.)         AngularGrid ... Lebedev-302
Angular grid pruning method      GridPruning ... 3 (G Style)
Weight generation scheme         WeightScheme... Becke
Basis function cutoff            BFCut       ...    1.0000e-10
Integration weight cutoff        WCut        ...    1.0000e-14
Grids for H and He will be reduced by one unit

# of grid points (after initial pruning)     ...   9666 (   0.0 sec)
# of grid points (after weights+screening)   ...   9648 (   0.0 sec)
nearest neighbour list constructed           ...    0.0 sec
Grid point re-assignment to atoms done       ...    0.0 sec
Grid point division into batches done        ...    0.0 sec
Reduced shell lists constructed in    0.1 sec

Total number of grid points                  ...     9648
Total number of batches                      ...      151
Average number of points per batch           ...       63
Average number of grid points per atom       ...     4824
Average number of shells per batch           ...     6.11 (76.32%)
Average number of basis functions per batch  ...    12.62 (78.87%)
Average number of large shells per batch     ...     5.31 (86.96%)
Average number of large basis fcns per batch ...    11.01 (87.23%)
Maximum spatial batch extension              ...  15.48, 19.94, 19.94 au
Average spatial batch extension              ...   3.66,  3.93,  3.88 au

Final grid set up in    0.1 sec
Final integration                            ... done (   0.1 sec)
Change in XC energy                          ...     0.000635485
Integrated number of electrons               ...    10.000071750
Previous integrated no of electrons          ...     9.994455830

----------------
TOTAL SCF ENERGY
----------------

Total Energy       :         -100.14126986 Eh           -2724.98249 eV

Components:
Nuclear Repulsion  :            2.04170533 Eh              55.55763 eV
Electronic Energy  :         -102.18297518 Eh           -2780.54011 eV
One Electron Energy:         -144.78556318 Eh           -3939.81547 eV
Two Electron Energy:           42.60258800 Eh            1159.27536 eV

Virial components:
Potential Energy   :         -199.68298283 Eh           -5433.65020 eV
Kinetic Energy     :           99.54171297 Eh            2708.66772 eV
Virial Ratio       :            2.00602317


DFT components:
N(Alpha)           :        5.000035874864 electrons
N(Beta)            :        5.000035874864 electrons
N(Total)           :       10.000071749728 electrons
E(XC)              :       -7.529679035891 Eh       

---------------
SCF CONVERGENCE
---------------

  Last Energy change         ...   -3.6469e-09  Tolerance :   1.0000e-06
  Last MAX-Density change    ...    4.3648e-06  Tolerance :   1.0000e-05
  Last RMS-Density change    ...    3.7270e-07  Tolerance :   1.0000e-06
  Last DIIS Error            ...    3.0641e-06  Tolerance :   1.0000e-06

             **** THE GBW FILE WAS UPDATED (Scan_19.gbw) ****
             **** DENSITY FILE WAS UPDATED (Scan_19.scfp.tmp) ****
             **** ENERGY FILE WAS UPDATED (Scan_19.en.tmp) ****
----------------
ORBITAL ENERGIES
----------------

  NO   OCC          E(Eh)            E(eV) 
   0   2.0000     -24.755040      -673.6189 
   1   2.0000      -1.178668       -32.0732 
   2   2.0000      -0.436673       -11.8825 
   3   2.0000      -0.436673       -11.8825 
   4   2.0000      -0.434945       -11.8355 
   5   0.0000      -0.170328        -4.6348 
   6   0.0000       0.782153        21.2835 
   7   0.0000       1.332236        36.2520 
   8   0.0000       1.332236        36.2520 
   9   0.0000       1.352126        36.7932 
  10   0.0000       1.521554        41.4036 
  11   0.0000       1.994989        54.2864 
  12   0.0000       1.999596        54.4118 
  13   0.0000       1.999596        54.4118 
  14   0.0000       2.017879        54.9093 
  15   0.0000       2.017882        54.9094 

                    ********************************
                    * MULLIKEN POPULATION ANALYSIS *
                    ********************************

-----------------------
MULLIKEN ATOMIC CHARGES
-----------------------
   0 F :   -0.262116
   1 H :    0.262116
Sum of atomic charges:    0.0000000

--------------------------------
MULLIKEN REDUCED ORBITAL CHARGES
--------------------------------
  0 F s       :     3.998825  s :     3.998825
      pz      :     1.999990  p :     5.262787
      px      :     1.262807
      py      :     1.999990
      dz2     :     0.000121  d :     0.000504
      dxz     :     0.000010
      dyz     :     0.000000
      dx2y2   :     0.000363
      dxy     :     0.000010
  1 H s       :     0.737884  s :     0.737884


                     *******************************
                     * LOEWDIN POPULATION ANALYSIS *
                     *******************************

----------------------
LOEWDIN ATOMIC CHARGES
----------------------
   0 F :   -0.266252
   1 H :    0.266252

-------------------------------
LOEWDIN REDUCED ORBITAL CHARGES
-------------------------------
  0 F s       :     3.997322  s :     3.997322
      pz      :     1.999990  p :     5.268281
      px      :     1.268301
      py      :     1.999990
      dz2     :     0.000157  d :     0.000649
      dxz     :     0.000010
      dyz     :     0.000000
      dx2y2   :     0.000472
      dxy     :     0.000010
  1 H s       :     0.733748  s :     0.733748


                      *****************************
                      * MAYER POPULATION ANALYSIS *
                      *****************************

  NA   - Mulliken gross atomic population
  ZA   - Total nuclear charge
  QA   - Mulliken gross atomic charge
  VA   - Mayer's total valence
  BVA  - Mayer's bonded valence
  FA   - Mayer's free valence

  ATOM       NA         ZA         QA         VA         BVA        FA
  0 F      9.2621     9.0000    -0.2621     0.9315     0.9315    -0.0000
  1 H      0.7379     1.0000     0.2621     0.9315     0.9315     0.0000

  Mayer bond orders larger than 0.1
B(  0-F ,  1-H ) :   0.9315 

-------
TIMINGS
-------

Total SCF time: 0 days 0 hours 0 min 3 sec 

Total time                  ....       3.458 sec
Sum of individual times     ....       3.293 sec  ( 95.2%)

Fock matrix formation       ....       3.104 sec  ( 89.8%)
  XC integration            ....       0.633 sec  ( 20.4% of F)
    Basis function eval.    ....       0.105 sec  ( 16.6% of XC)
    Density eval.           ....       0.024 sec  (  3.8% of XC)
    XC-Functional eval.     ....       0.173 sec  ( 27.3% of XC)
    XC-Potential eval.      ....       0.010 sec  (  1.5% of XC)
Diagonalization             ....       0.007 sec  (  0.2%)
Density matrix formation    ....       0.000 sec  (  0.0%)
Population analysis         ....       0.008 sec  (  0.2%)
Initial guess               ....       0.098 sec  (  2.8%)
Orbital Transformation      ....       0.000 sec  (  0.0%)
Orbital Orthonormalization  ....       0.000 sec  (  0.0%)
DIIS solution               ....       0.000 sec  (  0.0%)
Grid generation             ....       0.076 sec  (  2.2%)


-------------------------------------------------------------------------------
                          DFT DISPERSION CORRECTION                            
                                                                               
                              DFTD3 V3.1  Rev 1                                
                              USING zero damping                               
-------------------------------------------------------------------------------
The omegaB97X-D3 functional is recognized. Fit by Chai et al.
Active option DFTDOPT                   ...         3   

molecular C6(AA) [au] = 32.289291 


            DFT-D V3
 parameters
 s6 scaling factor         :     1.0000 
 rs6 scaling factor        :     1.2810 
 s8 scaling factor         :     1.0000 
 rs8 scaling factor        :     1.0940 
 Damping factor alpha6     :    14.0000 
 Damping factor alpha8     :    16.0000 
 ad hoc parameters k1-k3   :    16.0000     1.3333    -4.0000 

 Edisp/kcal,au: -0.123598401861  -0.000196966570 
 E6   /kcal   :  -0.018221794 
 E8   /kcal   :  -0.105376608 
 % E8         :  85.257257532 

-------------------------   ----------------
Dispersion correction           -0.000196967
-------------------------   ----------------


-------------------------   --------------------
FINAL SINGLE POINT ENERGY      -100.141466822228
-------------------------   --------------------


                            ***************************************
                            *     ORCA property calculations      *
                            ***************************************

                                    ---------------------
                                    Active property flags
                                    ---------------------
   (+) Dipole Moment


------------------------------------------------------------------------------
                       ORCA ELECTRIC PROPERTIES CALCULATION
------------------------------------------------------------------------------

Dipole Moment Calculation                       ... on
Quadrupole Moment Calculation                   ... off
Polarizability Calculation                      ... off
GBWName                                         ... Scan_19.gbw
Electron density file                           ... Scan_19.scfp.tmp

-------------
DIPOLE MOMENT
-------------
                                X             Y             Z
Electronic contribution:     -0.95672      -0.00000       0.00000
Nuclear contribution   :      2.18707      -0.00000       0.00000
                        -----------------------------------------
Total Dipole Moment    :      1.23035      -0.00000       0.00000
                        -----------------------------------------
Magnitude (a.u.)       :      1.23035
Magnitude (Debye)      :      3.12731


Timings for individual modules:

Sum of individual times         ...        3.804 sec (=   0.063 min)
GTO integral calculation        ...        0.310 sec (=   0.005 min)   8.1 %
SCF iterations                  ...        3.494 sec (=   0.058 min)  91.9 %
                             ****ORCA TERMINATED NORMALLY****
TOTAL RUN TIME: 0 days 0 hours 0 minutes 4 seconds 128 msec
