
                                 *****************
                                 * O   R   C   A *
                                 *****************

           --- An Ab Initio, DFT and Semiempirical electronic structure package ---

                  #######################################################
                  #                        -***-                        #
                  #  Department of molecular theory and spectroscopy    #
                  #              Directorship: Frank Neese              #
                  # Max Planck Institute for Chemical Energy Conversion #
                  #                  D-45470 Muelheim/Ruhr              #
                  #                       Germany                       #
                  #                                                     #
                  #                  All rights reserved                #
                  #                        -***-                        #
                  #######################################################


                         Program Version 4.0.0.2 - RELEASE -


 With contributions from (in alphabetic order):
   Daniel Aravena         : Magnetic Properties
   Michael Atanasov       : Ab Initio Ligand Field Theory
   Ute Becker             : Parallelization
   Martin Brehm           : Molecular dynamics
   Dmytro Bykov           : SCF Hessian
   Vijay G. Chilkuri      : MRCI spin determinant printing
   Dipayan Datta          : RHF DLPNO-CCSD density
   Achintya Kumar Dutta   : EOM-CC, STEOM-CC
   Dmitry Ganyushin       : Spin-Orbit,Spin-Spin,Magnetic field MRCI
   Yang Guo               : DLPNO-NEVPT2, CIM, IAO-localization
   Andreas Hansen         : Spin unrestricted coupled pair/coupled cluster methods
   Lee Huntington         : MR-EOM, pCC
   Robert Izsak           : Overlap fitted RIJCOSX, COSX-SCS-MP3, EOM
   Christian Kollmar      : KDIIS, OOCD, Brueckner-CCSD(T), CCSD density
   Simone Kossmann        : Meta GGA functionals, TD-DFT gradient, OOMP2, MP2 Hessian
   Martin Krupicka        : AUTO-CI
   Dagmar Lenk            : GEPOL surface
   Dimitrios Liakos       : Extrapolation schemes; parallel MDCI
   Dimitrios Manganas     : ROCIS; embedding schemes
   Dimitrios Pantazis     : SARC Basis sets
   Taras Petrenko         : DFT Hessian,TD-DFT gradient, ASA, ECA, R-Raman, ABS, FL, XAS/XES, NRVS
   Peter Pinski           : DLPNO-MP2
   Christoph Reimann      : Effective Core Potentials
   Marius Retegan         : Local ZFS, SOC
   Christoph Riplinger    : Optimizer, TS searches, QM/MM, DLPNO-CCSD(T), (RO)-DLPNO pert. Triples
   Tobias Risthaus        : Range-separated hybrids, TD-DFT gradient, RPA, STAB
   Michael Roemelt        : Restricted open shell CIS
   Masaaki Saitow         : Open-shell DLPNO
   Barbara Sandhoefer     : DKH picture change effects
   Kantharuban Sivalingam : CASSCF convergence, NEVPT2, FIC-MRCI
   Georgi Stoychev        : AutoAux
   Boris Wezisla          : Elementary symmetry handling
   Frank Wennmohs         : Technical directorship


 We gratefully acknowledge several colleagues who have allowed us to
 interface, adapt or use parts of their codes:
   Stefan Grimme, W. Hujo, H. Kruse,             : VdW corrections, initial TS optimization,
                  C. Bannwarth                     DFT functionals, gCP, sTDA/sTD-DF
   Ed Valeev                                     : LibInt (2-el integral package), F12 methods
   Garnet Chan, S. Sharma, J. Yang, R. Olivares  : DMRG
   Ulf Ekstrom                                   : XCFun DFT Library
   Mihaly Kallay                                 : mrcc  (arbitrary order and MRCC methods)
   Jiri Pittner, Ondrej Demel                    : Mk-CCSD
   Frank Weinhold                                : gennbo (NPA and NBO analysis)
   Christopher J. Cramer and Donald G. Truhlar   : smd solvation model


 Your calculation uses the libint2 library for the computation of 2-el integrals
 For citations please refer to: http://libint.valeyev.net

 This ORCA versions uses:
   CBLAS   interface :  Fast vector & matrix operations
   LAPACKE interface :  Fast linear algebra routines
   SCALAPACK package :  Parallel linear algebra routines


Your calculation utilizes the atom-pairwise dispersion correction
with the zero-damping scheme (D30)
Cite in your paper:
S.Grimme, J.Antony, S.Ehrlich and H.Krieg, J.Chem.Phys., 132, (2010), 154104 
   

XCFun DFT library Copyright 2009-2010 Ulf Ekstrom and contributors.
See http://admol.org/xcfun for more information. This is free soft-
ware; see the source code for copying conditions. There is ABSOLUTELY
NO WARRANTY; not even for MERCHANTABILITY or FITNESS FOR A PARTICULAR
PURPOSE. For details see the documentation. Scientific users of this 
library should cite U. Ekstrom, L. Visscher, R. Bast, A. J. Thorvald-
sen and K. Ruud; J.Chem.Theor.Comp. 2010, DOI: 10.1021/ct100117s
XCFun Version 0.99 
Your calculation utilizes the basis: 6-31G(d)
   H-He, Li-Ne : W. J. Hehre, R. Ditchfield and J.A. Pople, J. Chem. Phys. 56, 2257 (1972).
                 Note: He and Ne are unpublished basis sets taken from the Gaussian program.
                 Note: Li and B from J. D. Dill and J. A. Pople, J. Chem. Phys. 62, 2921 (1975).
   Na - Ar     : M. M. Francl, W. J. Pietro, W. J. Hehre, J. S. Binkley, M. S. Gordon, 
                 D. J. DeFrees and J. A. Pople, J. Chem. Phys. 77, 3654 (1982).
   K - Zn      : V. A. Rassolov, J. A. Pople, M. A. Ratner, and T. L. Windus, J. Chem. Phys. 109, 1223 (1998).

================================================================================
                                        WARNINGS
                       Please study these warnings very carefully!
================================================================================

Warning: TCutStore was < 0. Adjusted to Thresh (uncritical)

INFO   : the flag for use of LIBINT has been found!

================================================================================
                                       INPUT FILE
================================================================================
NAME = initial20.inp
|  1> ! WB97X-D3 6-31G(d) VerySlowConv
|  2> ! KDIIS NOSOSCF
|  3> %base "Scan_20"
|  4> 
|  5> %scf
|  6> maxiter 999
|  7> end
|  8> 
|  9> * xyz 0 1
| 10> F         -1.210278414513    0.936930000000    0.000000000000
| 11> H          1.226828414513    0.936930000000   -0.000000000000
| 12> **                         ****END OF INPUT****
================================================================================

                       ****************************
                       * Single Point Calculation *
                       ****************************

---------------------------------
CARTESIAN COORDINATES (ANGSTROEM)
---------------------------------
  F     -1.210278    0.936930    0.000000
  H      1.226828    0.936930   -0.000000

----------------------------
CARTESIAN COORDINATES (A.U.)
----------------------------
  NO LB      ZA    FRAG     MASS         X           Y           Z
   0 F     9.0000    0    18.998   -2.287095    1.770541    0.000000
   1 H     1.0000    0     1.008    2.318370    1.770541   -0.000000

--------------------------------
INTERNAL COORDINATES (ANGSTROEM)
--------------------------------
 F      0   0   0     0.000000000000     0.00000000     0.00000000
 H      1   0   0     2.437106829026     0.00000000     0.00000000

---------------------------
INTERNAL COORDINATES (A.U.)
---------------------------
 F      0   0   0     0.000000000000     0.00000000     0.00000000
 H      1   0   0     4.605464465968     0.00000000     0.00000000

---------------------
BASIS SET INFORMATION
---------------------
There are 2 groups of distinct atoms

 Group   1 Type F   : 10s4p1d contracted to 3s2p1d pattern {631/31/1}
 Group   2 Type H   : 4s contracted to 2s pattern {31}

Atom   0F    basis set group =>   1
Atom   1H    basis set group =>   2
------------------------------------------------------------------------------
                           ORCA GTO INTEGRAL CALCULATION
------------------------------------------------------------------------------

                         BASIS SET STATISTICS AND STARTUP INFO

 # of primitive gaussian shells          ...   19
 # of primitive gaussian functions       ...   31
 # of contracted shells                  ...    8
 # of contracted basis functions         ...   16
 Highest angular momentum                ...    2
 Maximum contraction depth               ...    6
 Integral package used                   ... LIBINT
 Integral threshhold            Thresh   ...  1.000e-10
 Primitive cut-off              TCut     ...  1.000e-11


------------------------------ INTEGRAL EVALUATION ----------------------------


 * One electron integrals 
 Pre-screening matrix                    ... done
 Shell pair data                         ... done (   0.000 sec)

-------------------------------------------------------------------------------
                                 ORCA SCF
-------------------------------------------------------------------------------

------------
SCF SETTINGS
------------
Hamiltonian:
 Density Functional     Method          .... DFT(GTOs)
 Exchange Functional    Exchange        .... WB97X-D3
 Correlation Functional Correlation     .... WB97X-D3
 Gradients option       PostSCFGGA      .... off
 Hybrid DFT is turned on
   Fraction HF Exchange ScalHFX         ....  0.195728
   Scaling of DF-GGA-X  ScalDFX         ....  0.000000
   Scaling of DF-GGA-C  ScalDFC         ....  1.000000
   Scaling of DF-LDA-C  ScalLDAC        ....  1.000000
   Perturbative correction              ....  0.000000
 Long-range corrected/Screened/Range-Separated Hybrid DFT is turned on
   Amount of maximum screened exact exchange              ....  0.804272
   Range separation parameter mu (erf(mu*r12)/r12)        ....  0.250000


General Settings:
 Integral files         IntName         .... Scan_20
 Hartree-Fock type      HFTyp           .... RHF
 Total Charge           Charge          ....    0
 Multiplicity           Mult            ....    1
 Number of Electrons    NEL             ....   10
 Basis Dimension        Dim             ....   16
 Nuclear Repulsion      ENuc            ....      1.9542002911 Eh

Convergence Acceleration:
 DIIS                   CNVDIIS         .... on
   Start iteration      DIISMaxIt       ....     0
   Startup error        DIISStart       ....  0.200000
   # of expansion vecs  DIISMaxEq       ....     5
   Bias factor          DIISBfac        ....   1.050
   Max. coefficient     DIISMaxC        ....  10.000
 Newton-Raphson         CNVNR           .... off
 SOSCF                  CNVSOSCF        .... off
 Level Shifting         CNVShift        .... off
 Zerner damping         CNVZerner       .... off
 Static damping         CNVDamp         .... off
 Fernandez-Rico         CNVRico         .... off

SCF Procedure:
 Maximum # iterations   MaxIter         ....   999
 SCF integral mode      SCFMode         .... Direct
   Integral package                     .... LIBINT
 Reset frequeny         DirectResetFreq ....    20
 Integral Threshold     Thresh          ....  1.000e-10 Eh
 Primitive CutOff       TCut            ....  1.000e-11 Eh

Convergence Tolerance:
 Convergence Check Mode ConvCheckMode   .... All-Criteria
 Convergence forced     ConvForced      .... 0
 Energy Change          TolE            ....  1.000e-06 Eh
 Max Density Change     TolMaxP         ....  1.000e-05
 RMS Density Change     TolRMSP         ....  1.000e-06
 DIIS Error             TolErr          ....  1.000e-06


Diagonalization of the overlap matrix:
Smallest eigenvalue                        ... 2.249e-01
Time for diagonalization                   ...    0.000 sec
Threshold for overlap eigenvalues          ... 1.000e-08
Number of eigenvalues below threshold      ... 0
Time for construction of square roots      ...    0.005 sec
Total time needed                          ...    0.006 sec

-------------------
DFT GRID GENERATION
-------------------

General Integration Accuracy     IntAcc      ...  4.340
Radial Grid Type                 RadialGrid  ... Gauss-Chebyshev
Angular Grid (max. acc.)         AngularGrid ... Lebedev-110
Angular grid pruning method      GridPruning ... 3 (G Style)
Weight generation scheme         WeightScheme... Becke
Basis function cutoff            BFCut       ...    1.0000e-10
Integration weight cutoff        WCut        ...    1.0000e-14
Grids for H and He will be reduced by one unit

# of grid points (after initial pruning)     ...   2534 (   0.0 sec)
# of grid points (after weights+screening)   ...   2520 (   0.0 sec)
nearest neighbour list constructed           ...    0.0 sec
Grid point re-assignment to atoms done       ...    0.0 sec
Grid point division into batches done        ...    0.0 sec
Reduced shell lists constructed in    0.0 sec

Total number of grid points                  ...     2520
Total number of batches                      ...       41
Average number of points per batch           ...       61
Average number of grid points per atom       ...     1260
Average number of shells per batch           ...     6.86 (85.71%)
Average number of basis functions per batch  ...    14.10 (88.10%)
Average number of large shells per batch     ...     6.17 (89.93%)
Average number of large basis fcns per batch ...    12.69 (90.03%)
Maximum spatial batch extension              ...  14.56, 25.65, 25.65 au
Average spatial batch extension              ...   5.26,  7.21,  7.45 au

Time for grid setup =    0.012 sec

------------------------------
INITIAL GUESS: MODEL POTENTIAL
------------------------------
Loading Hartree-Fock densities                     ... done
Calculating cut-offs                               ... done
Setting up the integral package                    ... done
Initializing the effective Hamiltonian             ... done
Starting the Coulomb interaction                   ... done (   0.0 sec)
Reading the grid                                   ... done
Mapping shells                                     ... done
Starting the XC term evaluation                    ... done (   0.0 sec)
  promolecular density results
     # of electrons  =      9.999828631
     EX              =    -10.172213502
     EC              =     -0.312735094
     EX+EC           =    -10.484948596
Transforming the Hamiltonian                       ... done (   0.0 sec)
Diagonalizing the Hamiltonian                      ... done (   0.0 sec)
Back transforming the eigenvectors                 ... done (   0.0 sec)
Now organizing SCF variables                       ... done
                      ------------------
                      INITIAL GUESS DONE (   0.1 sec)
                      ------------------
--------------
SCF ITERATIONS
--------------
ITER       Energy         Delta-E        Max-DP      RMS-DP      [F,P]   Gradient Norm
               ***  Starting incremental Fock matrix formation  ***
                             ****Resetting KDIIS****
                             ****Turning on KDIIS(Cayley)****
  0    -99.8756729427   0.000000000000 0.04127272  0.00536562  0.2107475   0.189266157
  1    -99.9192381873  -0.043565244685 0.04399720  0.00589566  0.1679246   0.152920030
  2    -99.9633588958  -0.044120708457 0.12450134  0.01712153  0.1274337   0.121581086
  3   -100.0700870380  -0.106728142228 0.29342724  0.03374042  0.1131003   0.064633434
  4   -100.0946839266  -0.024596888576 0.29998342  0.04136881  0.1157823   0.092201988
  5   -100.0357637642   0.058920162428 0.00577231  0.00067483  0.1011770   0.046396791
  6   -100.0381812362  -0.002417472019 0.20677792  0.02210131  0.1000163   0.045380167
  7    -99.9563235508   0.081857685445 0.22348104  0.02723542  0.0391545   0.028168571
  8   -100.0540026949  -0.097679144179 0.09034347  0.01213535  0.1098222   0.058722019
  9   -100.1042833673  -0.050280672375 1.05071738  0.15018130  0.0797298   0.039068496
 10    -96.2111143309   3.893169036369 0.06021102  0.00709368  1.1434113   0.944948298
 11    -96.3713355251  -0.160221194131 0.76336953  0.12362996  1.1286889   0.940354875
 12    -99.6722712994  -3.300935774342 0.64355823  0.09579612  0.3855912   0.302999566
 13    -98.0230020413   1.649269258062 0.91616429  0.14833709  0.9409429   0.771592963
 14    -99.7590372307  -1.736035189348 0.63142001  0.08447987  0.3320754   0.247941021
 15    -99.6464495469   0.112587683787 0.56282993  0.09431465  0.2844440   0.218841191
 16    -99.8405976884  -0.194148141450 0.36707537  0.04648061  0.2487307   0.195490573
 17    -99.8768549680  -0.036257279682 0.32261951  0.04604598  0.2565860   0.214230284
 18    -99.9439456413  -0.067090673291 0.32385884  0.04916595  0.1054730   0.072153750
 19   -100.0489884847  -0.105042843380 0.03785891  0.00549831  0.2018544   0.167770366
               *** Restarting incremental Fock matrix formation ***
                             ****Resetting KDIIS****
 20   -100.0823860459  -0.033397561201 0.02183569  0.00323096  0.1518889   0.125849415
 21   -100.0983580679  -0.015972021999 0.02648112  0.00379960  0.1208317   0.099755058
 22   -100.1125012676  -0.014143199652 0.03461689  0.00516474  0.0886665   0.072840601
 23   -100.1242627536  -0.011761486024 0.05375401  0.00789271  0.0537620   0.044076414
 24   -100.1311452692  -0.006882515571 0.00158606  0.00017031  0.0009892   0.000752319
 25   -100.1311487936  -0.000003524397 0.00046861  0.00005558  0.0003374   0.000209831
                          ***Energy convergence achieved***
 26   -100.1311490212  -0.000000227656 0.00002222  0.00000324  0.0000297   0.000025541
Warning: badly conditioned DIIS matrix, 1 vectors out of 5 destroyed
                           ***RMSP convergence achieved***
                           ***MAXP convergence achieved***
                    *** KDIIS BlockDiag ( 0.000 sec) ***

               *****************************************************
               *                     SUCCESS                       *
               *           SCF CONVERGED AFTER  27 CYCLES          *
               *****************************************************

Setting up the final grid:

General Integration Accuracy     IntAcc      ...  4.670
Radial Grid Type                 RadialGrid  ... Gauss-Chebyshev
Angular Grid (max. acc.)         AngularGrid ... Lebedev-302
Angular grid pruning method      GridPruning ... 3 (G Style)
Weight generation scheme         WeightScheme... Becke
Basis function cutoff            BFCut       ...    1.0000e-10
Integration weight cutoff        WCut        ...    1.0000e-14
Grids for H and He will be reduced by one unit

# of grid points (after initial pruning)     ...   9666 (   0.0 sec)
# of grid points (after weights+screening)   ...   9650 (   0.0 sec)
nearest neighbour list constructed           ...    0.0 sec
Grid point re-assignment to atoms done       ...    0.0 sec
Grid point division into batches done        ...    0.0 sec
Reduced shell lists constructed in    0.0 sec

Total number of grid points                  ...     9650
Total number of batches                      ...      152
Average number of points per batch           ...       63
Average number of grid points per atom       ...     4825
Average number of shells per batch           ...     6.04 (75.49%)
Average number of basis functions per batch  ...    12.50 (78.10%)
Average number of large shells per batch     ...     5.21 (86.26%)
Average number of large basis fcns per batch ...    10.78 (86.24%)
Maximum spatial batch extension              ...  15.66, 19.94, 19.94 au
Average spatial batch extension              ...   3.68,  3.92,  3.86 au

Final grid set up in    0.1 sec
Final integration                            ... done (   0.1 sec)
Change in XC energy                          ...     0.000852143
Integrated number of electrons               ...    10.000091365
Previous integrated no of electrons          ...     9.994943838

----------------
TOTAL SCF ENERGY
----------------

Total Energy       :         -100.13029688 Eh           -2724.68390 eV

Components:
Nuclear Repulsion  :            1.95420029 Eh              53.17649 eV
Electronic Energy  :         -102.08449717 Eh           -2777.86039 eV
One Electron Energy:         -144.61312455 Eh           -3935.12318 eV
Two Electron Energy:           42.52862738 Eh            1157.26279 eV

Virial components:
Potential Energy   :         -199.68259627 Eh           -5433.63969 eV
Kinetic Energy     :           99.55229939 Eh            2708.95579 eV
Virial Ratio       :            2.00580597


DFT components:
N(Alpha)           :        5.000045682282 electrons
N(Beta)            :        5.000045682282 electrons
N(Total)           :       10.000091364564 electrons
E(XC)              :       -7.528777956314 Eh       

---------------
SCF CONVERGENCE
---------------

  Last Energy change         ...   -2.1748e-09  Tolerance :   1.0000e-06
  Last MAX-Density change    ...    2.7078e-06  Tolerance :   1.0000e-05
  Last RMS-Density change    ...    2.6373e-07  Tolerance :   1.0000e-06
  Last DIIS Error            ...    8.0818e-07  Tolerance :   1.0000e-06

             **** THE GBW FILE WAS UPDATED (Scan_20.gbw) ****
             **** DENSITY FILE WAS UPDATED (Scan_20.scfp.tmp) ****
             **** ENERGY FILE WAS UPDATED (Scan_20.en.tmp) ****
----------------
ORBITAL ENERGIES
----------------

  NO   OCC          E(Eh)            E(eV) 
   0   2.0000     -24.753515      -673.5774 
   1   2.0000      -1.177327       -32.0367 
   2   2.0000      -0.435558       -11.8521 
   3   2.0000      -0.435558       -11.8521 
   4   2.0000      -0.428216       -11.6524 
   5   0.0000      -0.178542        -4.8584 
   6   0.0000       0.775633        21.1060 
   7   0.0000       1.333518        36.2869 
   8   0.0000       1.333518        36.2869 
   9   0.0000       1.351128        36.7661 
  10   0.0000       1.515952        41.2512 
  11   0.0000       1.995659        54.3047 
  12   0.0000       2.000462        54.4353 
  13   0.0000       2.000462        54.4353 
  14   0.0000       2.018777        54.9337 
  15   0.0000       2.018778        54.9337 

                    ********************************
                    * MULLIKEN POPULATION ANALYSIS *
                    ********************************

-----------------------
MULLIKEN ATOMIC CHARGES
-----------------------
   0 F :   -0.259729
   1 H :    0.259729
Sum of atomic charges:   -0.0000000

--------------------------------
MULLIKEN REDUCED ORBITAL CHARGES
--------------------------------
  0 F s       :     3.999119  s :     3.999119
      pz      :     1.999992  p :     5.260190
      px      :     1.260206
      py      :     1.999992
      dz2     :     0.000101  d :     0.000419
      dxz     :     0.000008
      dyz     :     0.000000
      dx2y2   :     0.000302
      dxy     :     0.000008
  1 H s       :     0.740271  s :     0.740271


                     *******************************
                     * LOEWDIN POPULATION ANALYSIS *
                     *******************************

----------------------
LOEWDIN ATOMIC CHARGES
----------------------
   0 F :   -0.263688
   1 H :    0.263688

-------------------------------
LOEWDIN REDUCED ORBITAL CHARGES
-------------------------------
  0 F s       :     3.998137  s :     3.998137
      pz      :     1.999992  p :     5.265023
      px      :     1.265039
      py      :     1.999992
      dz2     :     0.000128  d :     0.000528
      dxz     :     0.000008
      dyz     :     0.000000
      dx2y2   :     0.000384
      dxy     :     0.000008
  1 H s       :     0.736312  s :     0.736312


                      *****************************
                      * MAYER POPULATION ANALYSIS *
                      *****************************

  NA   - Mulliken gross atomic population
  ZA   - Total nuclear charge
  QA   - Mulliken gross atomic charge
  VA   - Mayer's total valence
  BVA  - Mayer's bonded valence
  FA   - Mayer's free valence

  ATOM       NA         ZA         QA         VA         BVA        FA
  0 F      9.2597     9.0000    -0.2597     0.9328     0.9328     0.0000
  1 H      0.7403     1.0000     0.2597     0.9328     0.9328    -0.0000

  Mayer bond orders larger than 0.1
B(  0-F ,  1-H ) :   0.9328 

-------
TIMINGS
-------

Total SCF time: 0 days 0 hours 0 min 5 sec 

Total time                  ....       5.072 sec
Sum of individual times     ....       4.844 sec  ( 95.5%)

Fock matrix formation       ....       4.682 sec  ( 92.3%)
  XC integration            ....       0.838 sec  ( 17.9% of F)
    Basis function eval.    ....       0.121 sec  ( 14.4% of XC)
    Density eval.           ....       0.034 sec  (  4.1% of XC)
    XC-Functional eval.     ....       0.216 sec  ( 25.7% of XC)
    XC-Potential eval.      ....       0.012 sec  (  1.5% of XC)
Diagonalization             ....       0.006 sec  (  0.1%)
Density matrix formation    ....       0.000 sec  (  0.0%)
Population analysis         ....       0.008 sec  (  0.2%)
Initial guess               ....       0.081 sec  (  1.6%)
Orbital Transformation      ....       0.000 sec  (  0.0%)
Orbital Orthonormalization  ....       0.000 sec  (  0.0%)
DIIS solution               ....       0.000 sec  (  0.0%)
Grid generation             ....       0.066 sec  (  1.3%)


-------------------------------------------------------------------------------
                          DFT DISPERSION CORRECTION                            
                                                                               
                              DFTD3 V3.1  Rev 1                                
                              USING zero damping                               
-------------------------------------------------------------------------------
The omegaB97X-D3 functional is recognized. Fit by Chai et al.
Active option DFTDOPT                   ...         3   

molecular C6(AA) [au] = 32.290084 


            DFT-D V3
 parameters
 s6 scaling factor         :     1.0000 
 rs6 scaling factor        :     1.2810 
 s8 scaling factor         :     1.0000 
 rs8 scaling factor        :     1.0940 
 Damping factor alpha6     :    14.0000 
 Damping factor alpha8     :    16.0000 
 ad hoc parameters k1-k3   :    16.0000     1.3333    -4.0000 

 Edisp/kcal,au: -0.147738873826  -0.000235436857 
 E6   /kcal   :  -0.025272393 
 E8   /kcal   :  -0.122466481 
 % E8         :  82.893877532 

-------------------------   ----------------
Dispersion correction           -0.000235437
-------------------------   ----------------


-------------------------   --------------------
FINAL SINGLE POINT ENERGY      -100.130532317254
-------------------------   --------------------


                            ***************************************
                            *     ORCA property calculations      *
                            ***************************************

                                    ---------------------
                                    Active property flags
                                    ---------------------
   (+) Dipole Moment


------------------------------------------------------------------------------
                       ORCA ELECTRIC PROPERTIES CALCULATION
------------------------------------------------------------------------------

Dipole Moment Calculation                       ... on
Quadrupole Moment Calculation                   ... off
Polarizability Calculation                      ... off
GBWName                                         ... Scan_20.gbw
Electron density file                           ... Scan_20.scfp.tmp

-------------
DIPOLE MOMENT
-------------
                                X             Y             Z
Electronic contribution:     -1.01926      -0.00000      -0.00000
Nuclear contribution   :      2.28501      -0.00000       0.00000
                        -----------------------------------------
Total Dipole Moment    :      1.26575      -0.00000      -0.00000
                        -----------------------------------------
Magnitude (a.u.)       :      1.26575
Magnitude (Debye)      :      3.21727


Timings for individual modules:

Sum of individual times         ...        5.402 sec (=   0.090 min)
GTO integral calculation        ...        0.289 sec (=   0.005 min)   5.4 %
SCF iterations                  ...        5.113 sec (=   0.085 min)  94.6 %
                             ****ORCA TERMINATED NORMALLY****
TOTAL RUN TIME: 0 days 0 hours 0 minutes 5 seconds 687 msec
