
                                 *****************
                                 * O   R   C   A *
                                 *****************

           --- An Ab Initio, DFT and Semiempirical electronic structure package ---

                  #######################################################
                  #                        -***-                        #
                  #  Department of molecular theory and spectroscopy    #
                  #              Directorship: Frank Neese              #
                  # Max Planck Institute for Chemical Energy Conversion #
                  #                  D-45470 Muelheim/Ruhr              #
                  #                       Germany                       #
                  #                                                     #
                  #                  All rights reserved                #
                  #                        -***-                        #
                  #######################################################


                         Program Version 4.0.0.2 - RELEASE -


 With contributions from (in alphabetic order):
   Daniel Aravena         : Magnetic Properties
   Michael Atanasov       : Ab Initio Ligand Field Theory
   Ute Becker             : Parallelization
   Martin Brehm           : Molecular dynamics
   Dmytro Bykov           : SCF Hessian
   Vijay G. Chilkuri      : MRCI spin determinant printing
   Dipayan Datta          : RHF DLPNO-CCSD density
   Achintya Kumar Dutta   : EOM-CC, STEOM-CC
   Dmitry Ganyushin       : Spin-Orbit,Spin-Spin,Magnetic field MRCI
   Yang Guo               : DLPNO-NEVPT2, CIM, IAO-localization
   Andreas Hansen         : Spin unrestricted coupled pair/coupled cluster methods
   Lee Huntington         : MR-EOM, pCC
   Robert Izsak           : Overlap fitted RIJCOSX, COSX-SCS-MP3, EOM
   Christian Kollmar      : KDIIS, OOCD, Brueckner-CCSD(T), CCSD density
   Simone Kossmann        : Meta GGA functionals, TD-DFT gradient, OOMP2, MP2 Hessian
   Martin Krupicka        : AUTO-CI
   Dagmar Lenk            : GEPOL surface
   Dimitrios Liakos       : Extrapolation schemes; parallel MDCI
   Dimitrios Manganas     : ROCIS; embedding schemes
   Dimitrios Pantazis     : SARC Basis sets
   Taras Petrenko         : DFT Hessian,TD-DFT gradient, ASA, ECA, R-Raman, ABS, FL, XAS/XES, NRVS
   Peter Pinski           : DLPNO-MP2
   Christoph Reimann      : Effective Core Potentials
   Marius Retegan         : Local ZFS, SOC
   Christoph Riplinger    : Optimizer, TS searches, QM/MM, DLPNO-CCSD(T), (RO)-DLPNO pert. Triples
   Tobias Risthaus        : Range-separated hybrids, TD-DFT gradient, RPA, STAB
   Michael Roemelt        : Restricted open shell CIS
   Masaaki Saitow         : Open-shell DLPNO
   Barbara Sandhoefer     : DKH picture change effects
   Kantharuban Sivalingam : CASSCF convergence, NEVPT2, FIC-MRCI
   Georgi Stoychev        : AutoAux
   Boris Wezisla          : Elementary symmetry handling
   Frank Wennmohs         : Technical directorship


 We gratefully acknowledge several colleagues who have allowed us to
 interface, adapt or use parts of their codes:
   Stefan Grimme, W. Hujo, H. Kruse,             : VdW corrections, initial TS optimization,
                  C. Bannwarth                     DFT functionals, gCP, sTDA/sTD-DF
   Ed Valeev                                     : LibInt (2-el integral package), F12 methods
   Garnet Chan, S. Sharma, J. Yang, R. Olivares  : DMRG
   Ulf Ekstrom                                   : XCFun DFT Library
   Mihaly Kallay                                 : mrcc  (arbitrary order and MRCC methods)
   Jiri Pittner, Ondrej Demel                    : Mk-CCSD
   Frank Weinhold                                : gennbo (NPA and NBO analysis)
   Christopher J. Cramer and Donald G. Truhlar   : smd solvation model


 Your calculation uses the libint2 library for the computation of 2-el integrals
 For citations please refer to: http://libint.valeyev.net

 This ORCA versions uses:
   CBLAS   interface :  Fast vector & matrix operations
   LAPACKE interface :  Fast linear algebra routines
   SCALAPACK package :  Parallel linear algebra routines


Your calculation utilizes the atom-pairwise dispersion correction
with the zero-damping scheme (D30)
Cite in your paper:
S.Grimme, J.Antony, S.Ehrlich and H.Krieg, J.Chem.Phys., 132, (2010), 154104 
   

XCFun DFT library Copyright 2009-2010 Ulf Ekstrom and contributors.
See http://admol.org/xcfun for more information. This is free soft-
ware; see the source code for copying conditions. There is ABSOLUTELY
NO WARRANTY; not even for MERCHANTABILITY or FITNESS FOR A PARTICULAR
PURPOSE. For details see the documentation. Scientific users of this 
library should cite U. Ekstrom, L. Visscher, R. Bast, A. J. Thorvald-
sen and K. Ruud; J.Chem.Theor.Comp. 2010, DOI: 10.1021/ct100117s
XCFun Version 0.99 
Your calculation utilizes the basis: 6-31G(d)
   H-He, Li-Ne : W. J. Hehre, R. Ditchfield and J.A. Pople, J. Chem. Phys. 56, 2257 (1972).
                 Note: He and Ne are unpublished basis sets taken from the Gaussian program.
                 Note: Li and B from J. D. Dill and J. A. Pople, J. Chem. Phys. 62, 2921 (1975).
   Na - Ar     : M. M. Francl, W. J. Pietro, W. J. Hehre, J. S. Binkley, M. S. Gordon, 
                 D. J. DeFrees and J. A. Pople, J. Chem. Phys. 77, 3654 (1982).
   K - Zn      : V. A. Rassolov, J. A. Pople, M. A. Ratner, and T. L. Windus, J. Chem. Phys. 109, 1223 (1998).

================================================================================
                                        WARNINGS
                       Please study these warnings very carefully!
================================================================================

Warning: TCutStore was < 0. Adjusted to Thresh (uncritical)

INFO   : the flag for use of LIBINT has been found!

================================================================================
                                       INPUT FILE
================================================================================
NAME = initial21.inp
|  1> ! WB97X-D3 6-31G(d) VerySlowConv
|  2> ! KDIIS NOSOSCF
|  3> %base "Scan_21"
|  4> 
|  5> %scf
|  6> maxiter 999
|  7> end
|  8> 
|  9> * xyz 0 1
| 10> F         -1.262182525621    0.936930000000    0.000000000000
| 11> H          1.278732525621    0.936930000000   -0.000000000000
| 12> **                         ****END OF INPUT****
================================================================================

                       ****************************
                       * Single Point Calculation *
                       ****************************

---------------------------------
CARTESIAN COORDINATES (ANGSTROEM)
---------------------------------
  F     -1.262183    0.936930    0.000000
  H      1.278733    0.936930   -0.000000

----------------------------
CARTESIAN COORDINATES (A.U.)
----------------------------
  NO LB      ZA    FRAG     MASS         X           Y           Z
   0 F     9.0000    0    18.998   -2.385179    1.770541    0.000000
   1 H     1.0000    0     1.008    2.416454    1.770541   -0.000000

--------------------------------
INTERNAL COORDINATES (ANGSTROEM)
--------------------------------
 F      0   0   0     0.000000000000     0.00000000     0.00000000
 H      1   0   0     2.540915051242     0.00000000     0.00000000

---------------------------
INTERNAL COORDINATES (A.U.)
---------------------------
 F      0   0   0     0.000000000000     0.00000000     0.00000000
 H      1   0   0     4.801633576406     0.00000000     0.00000000

---------------------
BASIS SET INFORMATION
---------------------
There are 2 groups of distinct atoms

 Group   1 Type F   : 10s4p1d contracted to 3s2p1d pattern {631/31/1}
 Group   2 Type H   : 4s contracted to 2s pattern {31}

Atom   0F    basis set group =>   1
Atom   1H    basis set group =>   2
------------------------------------------------------------------------------
                           ORCA GTO INTEGRAL CALCULATION
------------------------------------------------------------------------------

                         BASIS SET STATISTICS AND STARTUP INFO

 # of primitive gaussian shells          ...   19
 # of primitive gaussian functions       ...   31
 # of contracted shells                  ...    8
 # of contracted basis functions         ...   16
 Highest angular momentum                ...    2
 Maximum contraction depth               ...    6
 Integral package used                   ... LIBINT
 Integral threshhold            Thresh   ...  1.000e-10
 Primitive cut-off              TCut     ...  1.000e-11


------------------------------ INTEGRAL EVALUATION ----------------------------


 * One electron integrals 
 Pre-screening matrix                    ... done
 Shell pair data                         ... done (   0.000 sec)

-------------------------------------------------------------------------------
                                 ORCA SCF
-------------------------------------------------------------------------------

------------
SCF SETTINGS
------------
Hamiltonian:
 Density Functional     Method          .... DFT(GTOs)
 Exchange Functional    Exchange        .... WB97X-D3
 Correlation Functional Correlation     .... WB97X-D3
 Gradients option       PostSCFGGA      .... off
 Hybrid DFT is turned on
   Fraction HF Exchange ScalHFX         ....  0.195728
   Scaling of DF-GGA-X  ScalDFX         ....  0.000000
   Scaling of DF-GGA-C  ScalDFC         ....  1.000000
   Scaling of DF-LDA-C  ScalLDAC        ....  1.000000
   Perturbative correction              ....  0.000000
 Long-range corrected/Screened/Range-Separated Hybrid DFT is turned on
   Amount of maximum screened exact exchange              ....  0.804272
   Range separation parameter mu (erf(mu*r12)/r12)        ....  0.250000


General Settings:
 Integral files         IntName         .... Scan_21
 Hartree-Fock type      HFTyp           .... RHF
 Total Charge           Charge          ....    0
 Multiplicity           Mult            ....    1
 Number of Electrons    NEL             ....   10
 Basis Dimension        Dim             ....   16
 Nuclear Repulsion      ENuc            ....      1.8743621013 Eh

Convergence Acceleration:
 DIIS                   CNVDIIS         .... on
   Start iteration      DIISMaxIt       ....     0
   Startup error        DIISStart       ....  0.200000
   # of expansion vecs  DIISMaxEq       ....     5
   Bias factor          DIISBfac        ....   1.050
   Max. coefficient     DIISMaxC        ....  10.000
 Newton-Raphson         CNVNR           .... off
 SOSCF                  CNVSOSCF        .... off
 Level Shifting         CNVShift        .... off
 Zerner damping         CNVZerner       .... off
 Static damping         CNVDamp         .... off
 Fernandez-Rico         CNVRico         .... off

SCF Procedure:
 Maximum # iterations   MaxIter         ....   999
 SCF integral mode      SCFMode         .... Direct
   Integral package                     .... LIBINT
 Reset frequeny         DirectResetFreq ....    20
 Integral Threshold     Thresh          ....  1.000e-10 Eh
 Primitive CutOff       TCut            ....  1.000e-11 Eh

Convergence Tolerance:
 Convergence Check Mode ConvCheckMode   .... All-Criteria
 Convergence forced     ConvForced      .... 0
 Energy Change          TolE            ....  1.000e-06 Eh
 Max Density Change     TolMaxP         ....  1.000e-05
 RMS Density Change     TolRMSP         ....  1.000e-06
 DIIS Error             TolErr          ....  1.000e-06


Diagonalization of the overlap matrix:
Smallest eigenvalue                        ... 2.272e-01
Time for diagonalization                   ...    0.000 sec
Threshold for overlap eigenvalues          ... 1.000e-08
Number of eigenvalues below threshold      ... 0
Time for construction of square roots      ...    0.005 sec
Total time needed                          ...    0.005 sec

-------------------
DFT GRID GENERATION
-------------------

General Integration Accuracy     IntAcc      ...  4.340
Radial Grid Type                 RadialGrid  ... Gauss-Chebyshev
Angular Grid (max. acc.)         AngularGrid ... Lebedev-110
Angular grid pruning method      GridPruning ... 3 (G Style)
Weight generation scheme         WeightScheme... Becke
Basis function cutoff            BFCut       ...    1.0000e-10
Integration weight cutoff        WCut        ...    1.0000e-14
Grids for H and He will be reduced by one unit

# of grid points (after initial pruning)     ...   2534 (   0.0 sec)
# of grid points (after weights+screening)   ...   2520 (   0.0 sec)
nearest neighbour list constructed           ...    0.0 sec
Grid point re-assignment to atoms done       ...    0.0 sec
Grid point division into batches done        ...    0.0 sec
Reduced shell lists constructed in    0.0 sec

Total number of grid points                  ...     2520
Total number of batches                      ...       40
Average number of points per batch           ...       63
Average number of grid points per atom       ...     1260
Average number of shells per batch           ...     6.83 (85.37%)
Average number of basis functions per batch  ...    14.05 (87.80%)
Average number of large shells per batch     ...     6.07 (88.93%)
Average number of large basis fcns per batch ...    12.56 (89.41%)
Maximum spatial batch extension              ...  14.74, 25.65, 25.65 au
Average spatial batch extension              ...   5.34,  7.20,  7.55 au

Time for grid setup =    0.013 sec

------------------------------
INITIAL GUESS: MODEL POTENTIAL
------------------------------
Loading Hartree-Fock densities                     ... done
Calculating cut-offs                               ... done
Setting up the integral package                    ... done
Initializing the effective Hamiltonian             ... done
Starting the Coulomb interaction                   ... done (   0.0 sec)
Reading the grid                                   ... done
Mapping shells                                     ... done
Starting the XC term evaluation                    ... done (   0.0 sec)
  promolecular density results
     # of electrons  =     10.000159564
     EX              =    -10.171793242
     EC              =     -0.312485475
     EX+EC           =    -10.484278717
Transforming the Hamiltonian                       ... done (   0.0 sec)
Diagonalizing the Hamiltonian                      ... done (   0.0 sec)
Back transforming the eigenvectors                 ... done (   0.0 sec)
Now organizing SCF variables                       ... done
                      ------------------
                      INITIAL GUESS DONE (   0.1 sec)
                      ------------------
--------------
SCF ITERATIONS
--------------
ITER       Energy         Delta-E        Max-DP      RMS-DP      [F,P]   Gradient Norm
               ***  Starting incremental Fock matrix formation  ***
                             ****Resetting KDIIS****
                             ****Turning on KDIIS(Cayley)****
  0    -99.8588164433   0.000000000000 0.04161539  0.00546895  0.2134055   0.190195475
  1    -99.9025424437  -0.043726000374 0.04296672  0.00593224  0.1702774   0.153402314
  2    -99.9454489265  -0.042906482821 0.12788341  0.01765715  0.1298841   0.122027662
  3   -100.0547066557  -0.109257729239 0.31143323  0.03632621  0.1150201   0.066013019
  4   -100.0767627779  -0.022056122160 0.34490598  0.04882978  0.1300979   0.099151425
  5    -99.9961398501   0.080622927802 0.02341359  0.00263274  0.0883323   0.040432433
  6   -100.0077488750  -0.011609024920 0.13133818  0.01726609  0.0927390   0.041788040
  7   -100.0641597712  -0.056410896231 0.10402893  0.01463647  0.1024226   0.055439541
  8   -100.1137090798  -0.049549308572 0.05995735  0.00808252  0.0445323   0.023275427
  9   -100.0923734409   0.021335638903 0.60240920  0.07987063  0.0803778   0.040404000
 10    -99.6157497724   0.476623668484 0.14516228  0.01991271  0.1818973   0.113128398
 11    -99.8184711952  -0.202721422823 0.24731988  0.03234812  0.2459059   0.124090881
 12   -100.0797066107  -0.261235415490 0.06339929  0.00957265  0.1024874   0.054517394
 13   -100.1101724071  -0.030465796386 0.08910415  0.01309306  0.0556408   0.027294595
 14   -100.1194059269  -0.009233519765 0.06907600  0.00801095  0.0214794   0.013106355
 15   -100.1171172722   0.002288654670 0.14821024  0.01498592  0.0386628   0.022612907
 16   -100.0833464107   0.033770861562 0.00755033  0.00060949  0.1084027   0.048683743
 17   -100.0851488387  -0.001802428049 0.35211253  0.03525439  0.1055173   0.047418666
 18   -100.1024987360  -0.017349897300 0.08938508  0.00995390  0.0656540   0.029795568
 19   -100.1190211004  -0.016522364354 0.02984144  0.00335396  0.0260692   0.011685536
               *** Restarting incremental Fock matrix formation ***
                             ****Resetting KDIIS****
 20   -100.1211668138  -0.002145713468 0.00308339  0.00033194  0.0082677   0.003802956
 21   -100.1212610546  -0.000094240730 0.00198144  0.00025777  0.0058009   0.003025770
 22   -100.1213063002  -0.000045245678 0.00462688  0.00047609  0.0052225   0.002511405
 23   -100.1213773192  -0.000071018962 0.00733190  0.00074124  0.0031171   0.001516891
 24   -100.1214178069  -0.000040487708 0.00001671  0.00000283  0.0000197   0.000016415
                          ***Energy convergence achieved***
                           ***RMSP convergence achieved***
                           ***MAXP convergence achieved***
                    *** KDIIS BlockDiag ( 0.000 sec) ***

               *****************************************************
               *                     SUCCESS                       *
               *           SCF CONVERGED AFTER  25 CYCLES          *
               *****************************************************

Setting up the final grid:

General Integration Accuracy     IntAcc      ...  4.670
Radial Grid Type                 RadialGrid  ... Gauss-Chebyshev
Angular Grid (max. acc.)         AngularGrid ... Lebedev-302
Angular grid pruning method      GridPruning ... 3 (G Style)
Weight generation scheme         WeightScheme... Becke
Basis function cutoff            BFCut       ...    1.0000e-10
Integration weight cutoff        WCut        ...    1.0000e-14
Grids for H and He will be reduced by one unit

# of grid points (after initial pruning)     ...   9666 (   0.0 sec)
# of grid points (after weights+screening)   ...   9650 (   0.0 sec)
nearest neighbour list constructed           ...    0.0 sec
Grid point re-assignment to atoms done       ...    0.0 sec
Grid point division into batches done        ...    0.0 sec
Reduced shell lists constructed in    0.1 sec

Total number of grid points                  ...     9650
Total number of batches                      ...      152
Average number of points per batch           ...       63
Average number of grid points per atom       ...     4825
Average number of shells per batch           ...     5.93 (74.10%)
Average number of basis functions per batch  ...    12.22 (76.35%)
Average number of large shells per batch     ...     5.11 (86.22%)
Average number of large basis fcns per batch ...    10.47 (85.71%)
Maximum spatial batch extension              ...  15.48, 17.58, 17.58 au
Average spatial batch extension              ...   3.63,  3.87,  3.78 au

Final grid set up in    0.1 sec
Final integration                            ... done (   0.1 sec)
Change in XC energy                          ...     0.000988396
Integrated number of electrons               ...    10.000090122
Previous integrated no of electrons          ...     9.995823098

----------------
TOTAL SCF ENERGY
----------------

Total Energy       :         -100.12042941 Eh           -2724.41539 eV

Components:
Nuclear Repulsion  :            1.87436210 Eh              51.00399 eV
Electronic Energy  :         -101.99479151 Eh           -2775.41938 eV
One Electron Energy:         -144.45824161 Eh           -3930.90860 eV
Two Electron Energy:           42.46345009 Eh            1155.48922 eV

Virial components:
Potential Energy   :         -199.68283514 Eh           -5433.64619 eV
Kinetic Energy     :           99.56240573 Eh            2709.23079 eV
Virial Ratio       :            2.00560476


DFT components:
N(Alpha)           :        5.000045061139 electrons
N(Beta)            :        5.000045061139 electrons
N(Total)           :       10.000090122279 electrons
E(XC)              :       -7.528405060774 Eh       

---------------
SCF CONVERGENCE
---------------

  Last Energy change         ...   -1.8148e-09  Tolerance :   1.0000e-06
  Last MAX-Density change    ...    3.3514e-06  Tolerance :   1.0000e-05
  Last RMS-Density change    ...    4.7535e-07  Tolerance :   1.0000e-06
  Last DIIS Error            ...    2.8396e-06  Tolerance :   1.0000e-06

             **** THE GBW FILE WAS UPDATED (Scan_21.gbw) ****
             **** DENSITY FILE WAS UPDATED (Scan_21.scfp.tmp) ****
             **** ENERGY FILE WAS UPDATED (Scan_21.en.tmp) ****
----------------
ORBITAL ENERGIES
----------------

  NO   OCC          E(Eh)            E(eV) 
   0   2.0000     -24.751815      -673.5311 
   1   2.0000      -1.175834       -31.9961 
   2   2.0000      -0.434277       -11.8173 
   3   2.0000      -0.434277       -11.8173 
   4   2.0000      -0.421915       -11.4809 
   5   0.0000      -0.185549        -5.0491 
   6   0.0000       0.770634        20.9700 
   7   0.0000       1.334841        36.3229 
   8   0.0000       1.334841        36.3229 
   9   0.0000       1.349128        36.7116 
  10   0.0000       1.511060        41.1180 
  11   0.0000       1.996201        54.3194 
  12   0.0000       2.001464        54.4626 
  13   0.0000       2.001464        54.4626 
  14   0.0000       2.019832        54.9624 
  15   0.0000       2.019832        54.9624 

                    ********************************
                    * MULLIKEN POPULATION ANALYSIS *
                    ********************************

-----------------------
MULLIKEN ATOMIC CHARGES
-----------------------
   0 F :   -0.258592
   1 H :    0.258592
Sum of atomic charges:   -0.0000000

--------------------------------
MULLIKEN REDUCED ORBITAL CHARGES
--------------------------------
  0 F s       :     3.999347  s :     3.999347
      pz      :     1.999993  p :     5.258888
      px      :     1.258902
      py      :     1.999993
      dz2     :     0.000086  d :     0.000356
      dxz     :     0.000007
      dyz     :     0.000000
      dx2y2   :     0.000257
      dxy     :     0.000007
  1 H s       :     0.741408  s :     0.741408


                     *******************************
                     * LOEWDIN POPULATION ANALYSIS *
                     *******************************

----------------------
LOEWDIN ATOMIC CHARGES
----------------------
   0 F :   -0.262217
   1 H :    0.262217

-------------------------------
LOEWDIN REDUCED ORBITAL CHARGES
-------------------------------
  0 F s       :     3.998710  s :     3.998710
      pz      :     1.999993  p :     5.263072
      px      :     1.263085
      py      :     1.999993
      dz2     :     0.000105  d :     0.000435
      dxz     :     0.000007
      dyz     :     0.000000
      dx2y2   :     0.000316
      dxy     :     0.000007
  1 H s       :     0.737783  s :     0.737783


                      *****************************
                      * MAYER POPULATION ANALYSIS *
                      *****************************

  NA   - Mulliken gross atomic population
  ZA   - Total nuclear charge
  QA   - Mulliken gross atomic charge
  VA   - Mayer's total valence
  BVA  - Mayer's bonded valence
  FA   - Mayer's free valence

  ATOM       NA         ZA         QA         VA         BVA        FA
  0 F      9.2586     9.0000    -0.2586     0.9334     0.9334    -0.0000
  1 H      0.7414     1.0000     0.2586     0.9334     0.9334    -0.0000

  Mayer bond orders larger than 0.1
B(  0-F ,  1-H ) :   0.9334 

-------
TIMINGS
-------

Total SCF time: 0 days 0 hours 0 min 5 sec 

Total time                  ....       5.137 sec
Sum of individual times     ....       4.913 sec  ( 95.6%)

Fock matrix formation       ....       4.705 sec  ( 91.6%)
  XC integration            ....       0.908 sec  ( 19.3% of F)
    Basis function eval.    ....       0.148 sec  ( 16.3% of XC)
    Density eval.           ....       0.036 sec  (  4.0% of XC)
    XC-Functional eval.     ....       0.249 sec  ( 27.4% of XC)
    XC-Potential eval.      ....       0.014 sec  (  1.5% of XC)
Diagonalization             ....       0.020 sec  (  0.4%)
Density matrix formation    ....       0.000 sec  (  0.0%)
Population analysis         ....       0.008 sec  (  0.2%)
Initial guess               ....       0.103 sec  (  2.0%)
Orbital Transformation      ....       0.000 sec  (  0.0%)
Orbital Orthonormalization  ....       0.000 sec  (  0.0%)
DIIS solution               ....       0.000 sec  (  0.0%)
Grid generation             ....       0.077 sec  (  1.5%)


-------------------------------------------------------------------------------
                          DFT DISPERSION CORRECTION                            
                                                                               
                              DFTD3 V3.1  Rev 1                                
                              USING zero damping                               
-------------------------------------------------------------------------------
The omegaB97X-D3 functional is recognized. Fit by Chai et al.
Active option DFTDOPT                   ...         3   

molecular C6(AA) [au] = 32.290587 


            DFT-D V3
 parameters
 s6 scaling factor         :     1.0000 
 rs6 scaling factor        :     1.2810 
 s8 scaling factor         :     1.0000 
 rs8 scaling factor        :     1.0940 
 Damping factor alpha6     :    14.0000 
 Damping factor alpha8     :    16.0000 
 ad hoc parameters k1-k3   :    16.0000     1.3333    -4.0000 

 Edisp/kcal,au: -0.161361347314  -0.000257145648 
 E6   /kcal   :  -0.033928279 
 E8   /kcal   :  -0.127433068 
 % E8         :  78.973725961 

-------------------------   ----------------
Dispersion correction           -0.000257146
-------------------------   ----------------


-------------------------   --------------------
FINAL SINGLE POINT ENERGY      -100.120686558369
-------------------------   --------------------


                            ***************************************
                            *     ORCA property calculations      *
                            ***************************************

                                    ---------------------
                                    Active property flags
                                    ---------------------
   (+) Dipole Moment


------------------------------------------------------------------------------
                       ORCA ELECTRIC PROPERTIES CALCULATION
------------------------------------------------------------------------------

Dipole Moment Calculation                       ... on
Quadrupole Moment Calculation                   ... off
Polarizability Calculation                      ... off
GBWName                                         ... Scan_21.gbw
Electron density file                           ... Scan_21.scfp.tmp

-------------
DIPOLE MOMENT
-------------
                                X             Y             Z
Electronic contribution:     -1.07820      -0.00000      -0.00000
Nuclear contribution   :      2.38234      -0.00000       0.00000
                        -----------------------------------------
Total Dipole Moment    :      1.30414      -0.00000      -0.00000
                        -----------------------------------------
Magnitude (a.u.)       :      1.30414
Magnitude (Debye)      :      3.31485


Timings for individual modules:

Sum of individual times         ...        5.514 sec (=   0.092 min)
GTO integral calculation        ...        0.331 sec (=   0.006 min)   6.0 %
SCF iterations                  ...        5.183 sec (=   0.086 min)  94.0 %
                             ****ORCA TERMINATED NORMALLY****
TOTAL RUN TIME: 0 days 0 hours 0 minutes 5 seconds 855 msec
