
                                 *****************
                                 * O   R   C   A *
                                 *****************

           --- An Ab Initio, DFT and Semiempirical electronic structure package ---

                  #######################################################
                  #                        -***-                        #
                  #  Department of molecular theory and spectroscopy    #
                  #              Directorship: Frank Neese              #
                  # Max Planck Institute for Chemical Energy Conversion #
                  #                  D-45470 Muelheim/Ruhr              #
                  #                       Germany                       #
                  #                                                     #
                  #                  All rights reserved                #
                  #                        -***-                        #
                  #######################################################


                         Program Version 4.0.0.2 - RELEASE -


 With contributions from (in alphabetic order):
   Daniel Aravena         : Magnetic Properties
   Michael Atanasov       : Ab Initio Ligand Field Theory
   Ute Becker             : Parallelization
   Martin Brehm           : Molecular dynamics
   Dmytro Bykov           : SCF Hessian
   Vijay G. Chilkuri      : MRCI spin determinant printing
   Dipayan Datta          : RHF DLPNO-CCSD density
   Achintya Kumar Dutta   : EOM-CC, STEOM-CC
   Dmitry Ganyushin       : Spin-Orbit,Spin-Spin,Magnetic field MRCI
   Yang Guo               : DLPNO-NEVPT2, CIM, IAO-localization
   Andreas Hansen         : Spin unrestricted coupled pair/coupled cluster methods
   Lee Huntington         : MR-EOM, pCC
   Robert Izsak           : Overlap fitted RIJCOSX, COSX-SCS-MP3, EOM
   Christian Kollmar      : KDIIS, OOCD, Brueckner-CCSD(T), CCSD density
   Simone Kossmann        : Meta GGA functionals, TD-DFT gradient, OOMP2, MP2 Hessian
   Martin Krupicka        : AUTO-CI
   Dagmar Lenk            : GEPOL surface
   Dimitrios Liakos       : Extrapolation schemes; parallel MDCI
   Dimitrios Manganas     : ROCIS; embedding schemes
   Dimitrios Pantazis     : SARC Basis sets
   Taras Petrenko         : DFT Hessian,TD-DFT gradient, ASA, ECA, R-Raman, ABS, FL, XAS/XES, NRVS
   Peter Pinski           : DLPNO-MP2
   Christoph Reimann      : Effective Core Potentials
   Marius Retegan         : Local ZFS, SOC
   Christoph Riplinger    : Optimizer, TS searches, QM/MM, DLPNO-CCSD(T), (RO)-DLPNO pert. Triples
   Tobias Risthaus        : Range-separated hybrids, TD-DFT gradient, RPA, STAB
   Michael Roemelt        : Restricted open shell CIS
   Masaaki Saitow         : Open-shell DLPNO
   Barbara Sandhoefer     : DKH picture change effects
   Kantharuban Sivalingam : CASSCF convergence, NEVPT2, FIC-MRCI
   Georgi Stoychev        : AutoAux
   Boris Wezisla          : Elementary symmetry handling
   Frank Wennmohs         : Technical directorship


 We gratefully acknowledge several colleagues who have allowed us to
 interface, adapt or use parts of their codes:
   Stefan Grimme, W. Hujo, H. Kruse,             : VdW corrections, initial TS optimization,
                  C. Bannwarth                     DFT functionals, gCP, sTDA/sTD-DF
   Ed Valeev                                     : LibInt (2-el integral package), F12 methods
   Garnet Chan, S. Sharma, J. Yang, R. Olivares  : DMRG
   Ulf Ekstrom                                   : XCFun DFT Library
   Mihaly Kallay                                 : mrcc  (arbitrary order and MRCC methods)
   Jiri Pittner, Ondrej Demel                    : Mk-CCSD
   Frank Weinhold                                : gennbo (NPA and NBO analysis)
   Christopher J. Cramer and Donald G. Truhlar   : smd solvation model


 Your calculation uses the libint2 library for the computation of 2-el integrals
 For citations please refer to: http://libint.valeyev.net

 This ORCA versions uses:
   CBLAS   interface :  Fast vector & matrix operations
   LAPACKE interface :  Fast linear algebra routines
   SCALAPACK package :  Parallel linear algebra routines


Your calculation utilizes the atom-pairwise dispersion correction
with the zero-damping scheme (D30)
Cite in your paper:
S.Grimme, J.Antony, S.Ehrlich and H.Krieg, J.Chem.Phys., 132, (2010), 154104 
   

XCFun DFT library Copyright 2009-2010 Ulf Ekstrom and contributors.
See http://admol.org/xcfun for more information. This is free soft-
ware; see the source code for copying conditions. There is ABSOLUTELY
NO WARRANTY; not even for MERCHANTABILITY or FITNESS FOR A PARTICULAR
PURPOSE. For details see the documentation. Scientific users of this 
library should cite U. Ekstrom, L. Visscher, R. Bast, A. J. Thorvald-
sen and K. Ruud; J.Chem.Theor.Comp. 2010, DOI: 10.1021/ct100117s
XCFun Version 0.99 
Your calculation utilizes the basis: 6-31G(d)
   H-He, Li-Ne : W. J. Hehre, R. Ditchfield and J.A. Pople, J. Chem. Phys. 56, 2257 (1972).
                 Note: He and Ne are unpublished basis sets taken from the Gaussian program.
                 Note: Li and B from J. D. Dill and J. A. Pople, J. Chem. Phys. 62, 2921 (1975).
   Na - Ar     : M. M. Francl, W. J. Pietro, W. J. Hehre, J. S. Binkley, M. S. Gordon, 
                 D. J. DeFrees and J. A. Pople, J. Chem. Phys. 77, 3654 (1982).
   K - Zn      : V. A. Rassolov, J. A. Pople, M. A. Ratner, and T. L. Windus, J. Chem. Phys. 109, 1223 (1998).

================================================================================
                                        WARNINGS
                       Please study these warnings very carefully!
================================================================================

Warning: TCutStore was < 0. Adjusted to Thresh (uncritical)

INFO   : the flag for use of LIBINT has been found!

================================================================================
                                       INPUT FILE
================================================================================
NAME = initial22.inp
|  1> ! WB97X-D3 6-31G(d) VerySlowConv
|  2> ! KDIIS NOSOSCF
|  3> %base "Scan_22"
|  4> 
|  5> %scf
|  6> maxiter 999
|  7> end
|  8> 
|  9> * xyz 0 1
| 10> F         -1.313861215427    0.936930000000    0.000000000000
| 11> H          1.330411215427    0.936930000000   -0.000000000000
| 12> **                         ****END OF INPUT****
================================================================================

                       ****************************
                       * Single Point Calculation *
                       ****************************

---------------------------------
CARTESIAN COORDINATES (ANGSTROEM)
---------------------------------
  F     -1.313861    0.936930    0.000000
  H      1.330411    0.936930   -0.000000

----------------------------
CARTESIAN COORDINATES (A.U.)
----------------------------
  NO LB      ZA    FRAG     MASS         X           Y           Z
   0 F     9.0000    0    18.998   -2.482838    1.770541    0.000000
   1 H     1.0000    0     1.008    2.514113    1.770541   -0.000000

--------------------------------
INTERNAL COORDINATES (ANGSTROEM)
--------------------------------
 F      0   0   0     0.000000000000     0.00000000     0.00000000
 H      1   0   0     2.644272430854     0.00000000     0.00000000

---------------------------
INTERNAL COORDINATES (A.U.)
---------------------------
 F      0   0   0     0.000000000000     0.00000000     0.00000000
 H      1   0   0     4.996950717792     0.00000000     0.00000000

---------------------
BASIS SET INFORMATION
---------------------
There are 2 groups of distinct atoms

 Group   1 Type F   : 10s4p1d contracted to 3s2p1d pattern {631/31/1}
 Group   2 Type H   : 4s contracted to 2s pattern {31}

Atom   0F    basis set group =>   1
Atom   1H    basis set group =>   2
------------------------------------------------------------------------------
                           ORCA GTO INTEGRAL CALCULATION
------------------------------------------------------------------------------

                         BASIS SET STATISTICS AND STARTUP INFO

 # of primitive gaussian shells          ...   19
 # of primitive gaussian functions       ...   31
 # of contracted shells                  ...    8
 # of contracted basis functions         ...   16
 Highest angular momentum                ...    2
 Maximum contraction depth               ...    6
 Integral package used                   ... LIBINT
 Integral threshhold            Thresh   ...  1.000e-10
 Primitive cut-off              TCut     ...  1.000e-11


------------------------------ INTEGRAL EVALUATION ----------------------------


 * One electron integrals 
 Pre-screening matrix                    ... done
 Shell pair data                         ... done (   0.000 sec)

-------------------------------------------------------------------------------
                                 ORCA SCF
-------------------------------------------------------------------------------

------------
SCF SETTINGS
------------
Hamiltonian:
 Density Functional     Method          .... DFT(GTOs)
 Exchange Functional    Exchange        .... WB97X-D3
 Correlation Functional Correlation     .... WB97X-D3
 Gradients option       PostSCFGGA      .... off
 Hybrid DFT is turned on
   Fraction HF Exchange ScalHFX         ....  0.195728
   Scaling of DF-GGA-X  ScalDFX         ....  0.000000
   Scaling of DF-GGA-C  ScalDFC         ....  1.000000
   Scaling of DF-LDA-C  ScalLDAC        ....  1.000000
   Perturbative correction              ....  0.000000
 Long-range corrected/Screened/Range-Separated Hybrid DFT is turned on
   Amount of maximum screened exact exchange              ....  0.804272
   Range separation parameter mu (erf(mu*r12)/r12)        ....  0.250000


General Settings:
 Integral files         IntName         .... Scan_22
 Hartree-Fock type      HFTyp           .... RHF
 Total Charge           Charge          ....    0
 Multiplicity           Mult            ....    1
 Number of Electrons    NEL             ....   10
 Basis Dimension        Dim             ....   16
 Nuclear Repulsion      ENuc            ....      1.8010984115 Eh

Convergence Acceleration:
 DIIS                   CNVDIIS         .... on
   Start iteration      DIISMaxIt       ....     0
   Startup error        DIISStart       ....  0.200000
   # of expansion vecs  DIISMaxEq       ....     5
   Bias factor          DIISBfac        ....   1.050
   Max. coefficient     DIISMaxC        ....  10.000
 Newton-Raphson         CNVNR           .... off
 SOSCF                  CNVSOSCF        .... off
 Level Shifting         CNVShift        .... off
 Zerner damping         CNVZerner       .... off
 Static damping         CNVDamp         .... off
 Fernandez-Rico         CNVRico         .... off

SCF Procedure:
 Maximum # iterations   MaxIter         ....   999
 SCF integral mode      SCFMode         .... Direct
   Integral package                     .... LIBINT
 Reset frequeny         DirectResetFreq ....    20
 Integral Threshold     Thresh          ....  1.000e-10 Eh
 Primitive CutOff       TCut            ....  1.000e-11 Eh

Convergence Tolerance:
 Convergence Check Mode ConvCheckMode   .... All-Criteria
 Convergence forced     ConvForced      .... 0
 Energy Change          TolE            ....  1.000e-06 Eh
 Max Density Change     TolMaxP         ....  1.000e-05
 RMS Density Change     TolRMSP         ....  1.000e-06
 DIIS Error             TolErr          ....  1.000e-06


Diagonalization of the overlap matrix:
Smallest eigenvalue                        ... 2.289e-01
Time for diagonalization                   ...    0.000 sec
Threshold for overlap eigenvalues          ... 1.000e-08
Number of eigenvalues below threshold      ... 0
Time for construction of square roots      ...    0.004 sec
Total time needed                          ...    0.005 sec

-------------------
DFT GRID GENERATION
-------------------

General Integration Accuracy     IntAcc      ...  4.340
Radial Grid Type                 RadialGrid  ... Gauss-Chebyshev
Angular Grid (max. acc.)         AngularGrid ... Lebedev-110
Angular grid pruning method      GridPruning ... 3 (G Style)
Weight generation scheme         WeightScheme... Becke
Basis function cutoff            BFCut       ...    1.0000e-10
Integration weight cutoff        WCut        ...    1.0000e-14
Grids for H and He will be reduced by one unit

# of grid points (after initial pruning)     ...   2534 (   0.0 sec)
# of grid points (after weights+screening)   ...   2521 (   0.0 sec)
nearest neighbour list constructed           ...    0.0 sec
Grid point re-assignment to atoms done       ...    0.0 sec
Grid point division into batches done        ...    0.0 sec
Reduced shell lists constructed in    0.0 sec

Total number of grid points                  ...     2521
Total number of batches                      ...       40
Average number of points per batch           ...       63
Average number of grid points per atom       ...     1260
Average number of shells per batch           ...     6.78 (84.76%)
Average number of basis functions per batch  ...    13.95 (87.20%)
Average number of large shells per batch     ...     5.93 (87.41%)
Average number of large basis fcns per batch ...    12.37 (88.64%)
Maximum spatial batch extension              ...  14.74, 25.65, 25.65 au
Average spatial batch extension              ...   5.31,  7.16,  7.55 au

Time for grid setup =    0.013 sec

------------------------------
INITIAL GUESS: MODEL POTENTIAL
------------------------------
Loading Hartree-Fock densities                     ... done
Calculating cut-offs                               ... done
Setting up the integral package                    ... done
Initializing the effective Hamiltonian             ... done
Starting the Coulomb interaction                   ... done (   0.0 sec)
Reading the grid                                   ... done
Mapping shells                                     ... done
Starting the XC term evaluation                    ... done (   0.0 sec)
  promolecular density results
     # of electrons  =     10.000253006
     EX              =    -10.171366573
     EC              =     -0.312295587
     EX+EC           =    -10.483662160
Transforming the Hamiltonian                       ... done (   0.0 sec)
Diagonalizing the Hamiltonian                      ... done (   0.0 sec)
Back transforming the eigenvectors                 ... done (   0.0 sec)
Now organizing SCF variables                       ... done
                      ------------------
                      INITIAL GUESS DONE (   0.1 sec)
                      ------------------
--------------
SCF ITERATIONS
--------------
ITER       Energy         Delta-E        Max-DP      RMS-DP      [F,P]   Gradient Norm
               ***  Starting incremental Fock matrix formation  ***
                             ****Resetting KDIIS****
                             ****Turning on KDIIS(Cayley)****
  0    -99.8445304544   0.000000000000 0.04165435  0.00553825  0.2154203   0.190817065
  1    -99.8881627941  -0.043632339680 0.04373841  0.00596454  0.1721441   0.153747579
  2    -99.9298591628  -0.041696368765 0.13300744  0.01769552  0.1318933   0.122313398
  3   -100.0384222556  -0.108563092782 0.34897105  0.04129115  0.1168195   0.067787622
  4   -100.0452802466  -0.006857990939 0.42553724  0.06342522  0.1627839   0.115263554
  5    -99.9425707615   0.102709485028 0.16449995  0.01929113  0.0353865   0.021434404
  6    -99.9356002908   0.006970470713 0.25134965  0.03138975  0.0725893   0.065829677
  7    -99.9711156729  -0.035515382069 0.08357173  0.00988652  0.0857246   0.050528863
  8    -99.9438825924   0.027233080488 0.07162114  0.00768726  0.0448764   0.031264528
  9    -99.9351831137   0.008699478665 0.07092348  0.00761563  0.0162015   0.014490626
 10    -99.9391562676  -0.003973153879 0.05209944  0.00554194  0.0257795   0.011849398
 11    -99.9352121342   0.003944133413 0.02242093  0.00243663  0.0088199   0.007755923
 12    -99.9361618081  -0.000949673915 0.02376633  0.00252381  0.0122481   0.005972061
 13    -99.9353055046   0.000856303490 0.01440943  0.00117092  0.0059180   0.005155785
 14    -99.9354456070  -0.000140102354 0.01068725  0.00127907  0.0053614   0.005193591
 15    -99.9353919962   0.000053610796 0.00060428  0.00008257  0.0004432   0.000392062
                          ***Energy convergence achieved***
 16    -99.9353920569  -0.000000060746 0.00002707  0.00000415  0.0000223   0.000016817

            ***Energy convergence in two consecutive cycles with***
                    ***'reasonable' density convergence***
                       *** signaling convergence ***

                    *** KDIIS BlockDiag ( 0.000 sec) ***

               *****************************************************
               *                     SUCCESS                       *
               *           SCF CONVERGED AFTER  17 CYCLES          *
               *****************************************************

Setting up the final grid:

General Integration Accuracy     IntAcc      ...  4.670
Radial Grid Type                 RadialGrid  ... Gauss-Chebyshev
Angular Grid (max. acc.)         AngularGrid ... Lebedev-302
Angular grid pruning method      GridPruning ... 3 (G Style)
Weight generation scheme         WeightScheme... Becke
Basis function cutoff            BFCut       ...    1.0000e-10
Integration weight cutoff        WCut        ...    1.0000e-14
Grids for H and He will be reduced by one unit

# of grid points (after initial pruning)     ...   9666 (   0.0 sec)
# of grid points (after weights+screening)   ...   9650 (   0.0 sec)
nearest neighbour list constructed           ...    0.0 sec
Grid point re-assignment to atoms done       ...    0.0 sec
Grid point division into batches done        ...    0.0 sec
Reduced shell lists constructed in    0.1 sec

Total number of grid points                  ...     9650
Total number of batches                      ...      152
Average number of points per batch           ...       63
Average number of grid points per atom       ...     4825
Average number of shells per batch           ...     5.86 (73.28%)
Average number of basis functions per batch  ...    12.12 (75.78%)
Average number of large shells per batch     ...     5.07 (86.40%)
Average number of large basis fcns per batch ...    10.35 (85.34%)
Maximum spatial batch extension              ...  15.48, 17.58, 17.58 au
Average spatial batch extension              ...   3.66,  3.85,  3.84 au

Final grid set up in    0.1 sec
Final integration                            ... done (   0.1 sec)
Change in XC energy                          ...     0.001798116
Integrated number of electrons               ...    10.000070467
Previous integrated no of electrons          ...     9.998068296

----------------
TOTAL SCF ENERGY
----------------

Total Energy       :          -99.93359394 Eh           -2719.33134 eV

Components:
Nuclear Repulsion  :            1.80109841 Eh              49.01038 eV
Electronic Energy  :         -101.73469235 Eh           -2768.34172 eV
One Electron Energy:         -146.91298030 Eh           -3997.70543 eV
Two Electron Energy:           45.17828794 Eh            1229.36371 eV

Virial components:
Potential Energy   :         -199.54263135 Eh           -5429.83105 eV
Kinetic Energy     :           99.60903740 Eh            2710.49971 eV
Virial Ratio       :            2.00325830


DFT components:
N(Alpha)           :        5.000035233717 electrons
N(Beta)            :        5.000035233717 electrons
N(Total)           :       10.000070467433 electrons
E(XC)              :       -7.689487049838 Eh       

---------------
SCF CONVERGENCE
---------------

  Last Energy change         ...   -1.3756e-09  Tolerance :   1.0000e-06
  Last MAX-Density change    ...    1.1389e-05  Tolerance :   1.0000e-05
  Last RMS-Density change    ...    1.2436e-06  Tolerance :   1.0000e-06
  Last DIIS Error            ...    7.7573e-06  Tolerance :   1.0000e-06

             **** THE GBW FILE WAS UPDATED (Scan_22.gbw) ****
             **** DENSITY FILE WAS UPDATED (Scan_22.scfp.tmp) ****
             **** ENERGY FILE WAS UPDATED (Scan_22.en.tmp) ****
----------------
ORBITAL ENERGIES
----------------

  NO   OCC          E(Eh)            E(eV) 
   0   2.0000     -24.384480      -663.5354 
   1   2.0000      -0.869149       -23.6507 
   2   2.0000      -0.147054        -4.0015 
   3   2.0000      -0.139658        -3.8003 
   4   2.0000      -0.139658        -3.8003 
   5   0.0000      -0.313387        -8.5277 
   6   0.0000       0.622330        16.9345 
   7   0.0000       1.579343        42.9761 
   8   0.0000       1.579343        42.9761 
   9   0.0000       1.587834        43.2072 
  10   0.0000       1.754131        47.7323 
  11   0.0000       2.259665        61.4886 
  12   0.0000       2.264747        61.6269 
  13   0.0000       2.264747        61.6269 
  14   0.0000       2.270793        61.7914 
  15   0.0000       2.270794        61.7914 

                    ********************************
                    * MULLIKEN POPULATION ANALYSIS *
                    ********************************

-----------------------
MULLIKEN ATOMIC CHARGES
-----------------------
   0 F :   -0.984086
   1 H :    0.984086
Sum of atomic charges:   -0.0000000

--------------------------------
MULLIKEN REDUCED ORBITAL CHARGES
--------------------------------
  0 F s       :     3.997691  s :     3.997691
      pz      :     1.999911  p :     5.985985
      px      :     1.986162
      py      :     1.999911
      dz2     :     0.000058  d :     0.000410
      dxz     :     0.000089
      dyz     :     0.000000
      dx2y2   :     0.000174
      dxy     :     0.000089
  1 H s       :     0.015914  s :     0.015914


                     *******************************
                     * LOEWDIN POPULATION ANALYSIS *
                     *******************************

----------------------
LOEWDIN ATOMIC CHARGES
----------------------
   0 F :   -0.983862
   1 H :    0.983862

-------------------------------
LOEWDIN REDUCED ORBITAL CHARGES
-------------------------------
  0 F s       :     3.997160  s :     3.997160
      pz      :     1.999911  p :     5.986292
      px      :     1.986470
      py      :     1.999911
      dz2     :     0.000058  d :     0.000410
      dxz     :     0.000089
      dyz     :     0.000000
      dx2y2   :     0.000175
      dxy     :     0.000089
  1 H s       :     0.016138  s :     0.016138


                      *****************************
                      * MAYER POPULATION ANALYSIS *
                      *****************************

  NA   - Mulliken gross atomic population
  ZA   - Total nuclear charge
  QA   - Mulliken gross atomic charge
  VA   - Mayer's total valence
  BVA  - Mayer's bonded valence
  FA   - Mayer's free valence

  ATOM       NA         ZA         QA         VA         BVA        FA
  0 F      9.9841     9.0000    -0.9841     0.0316     0.0316    -0.0000
  1 H      0.0159     1.0000     0.9841     0.0316     0.0316    -0.0000

  Mayer bond orders larger than 0.1


-------
TIMINGS
-------

Total SCF time: 0 days 0 hours 0 min 3 sec 

Total time                  ....       3.376 sec
Sum of individual times     ....       3.208 sec  ( 95.0%)

Fock matrix formation       ....       3.020 sec  ( 89.5%)
  XC integration            ....       0.608 sec  ( 20.1% of F)
    Basis function eval.    ....       0.096 sec  ( 15.8% of XC)
    Density eval.           ....       0.024 sec  (  4.0% of XC)
    XC-Functional eval.     ....       0.173 sec  ( 28.4% of XC)
    XC-Potential eval.      ....       0.008 sec  (  1.4% of XC)
Diagonalization             ....       0.008 sec  (  0.2%)
Density matrix formation    ....       0.000 sec  (  0.0%)
Population analysis         ....       0.011 sec  (  0.3%)
Initial guess               ....       0.096 sec  (  2.9%)
Orbital Transformation      ....       0.000 sec  (  0.0%)
Orbital Orthonormalization  ....       0.000 sec  (  0.0%)
DIIS solution               ....       0.000 sec  (  0.0%)
Grid generation             ....       0.072 sec  (  2.1%)


-------------------------------------------------------------------------------
                          DFT DISPERSION CORRECTION                            
                                                                               
                              DFTD3 V3.1  Rev 1                                
                              USING zero damping                               
-------------------------------------------------------------------------------
The omegaB97X-D3 functional is recognized. Fit by Chai et al.
Active option DFTDOPT                   ...         3   

molecular C6(AA) [au] = 32.290920 


            DFT-D V3
 parameters
 s6 scaling factor         :     1.0000 
 rs6 scaling factor        :     1.2810 
 s8 scaling factor         :     1.0000 
 rs8 scaling factor        :     1.0940 
 Damping factor alpha6     :    14.0000 
 Damping factor alpha8     :    16.0000 
 ad hoc parameters k1-k3   :    16.0000     1.3333    -4.0000 

 Edisp/kcal,au: -0.163346580009  -0.000260309317 
 E6   /kcal   :  -0.043829996 
 E8   /kcal   :  -0.119516584 
 % E8         :  73.167485013 

-------------------------   ----------------
Dispersion correction           -0.000260309
-------------------------   ----------------


-------------------------   --------------------
FINAL SINGLE POINT ENERGY       -99.933854251554
-------------------------   --------------------


                            ***************************************
                            *     ORCA property calculations      *
                            ***************************************

                                    ---------------------
                                    Active property flags
                                    ---------------------
   (+) Dipole Moment


------------------------------------------------------------------------------
                       ORCA ELECTRIC PROPERTIES CALCULATION
------------------------------------------------------------------------------

Dipole Moment Calculation                       ... on
Quadrupole Moment Calculation                   ... off
Polarizability Calculation                      ... off
GBWName                                         ... Scan_22.gbw
Electron density file                           ... Scan_22.scfp.tmp

-------------
DIPOLE MOMENT
-------------
                                X             Y             Z
Electronic contribution:      2.37425      -0.00000       0.00000
Nuclear contribution   :      2.47924      -0.00000       0.00000
                        -----------------------------------------
Total Dipole Moment    :      4.85349      -0.00000       0.00000
                        -----------------------------------------
Magnitude (a.u.)       :      4.85349
Magnitude (Debye)      :     12.33660


Timings for individual modules:

Sum of individual times         ...        3.707 sec (=   0.062 min)
GTO integral calculation        ...        0.298 sec (=   0.005 min)   8.0 %
SCF iterations                  ...        3.409 sec (=   0.057 min)  92.0 %
                             ****ORCA TERMINATED NORMALLY****
TOTAL RUN TIME: 0 days 0 hours 0 minutes 4 seconds 21 msec
