
                                 *****************
                                 * O   R   C   A *
                                 *****************

           --- An Ab Initio, DFT and Semiempirical electronic structure package ---

                  #######################################################
                  #                        -***-                        #
                  #  Department of molecular theory and spectroscopy    #
                  #              Directorship: Frank Neese              #
                  # Max Planck Institute for Chemical Energy Conversion #
                  #                  D-45470 Muelheim/Ruhr              #
                  #                       Germany                       #
                  #                                                     #
                  #                  All rights reserved                #
                  #                        -***-                        #
                  #######################################################


                         Program Version 4.0.0.2 - RELEASE -


 With contributions from (in alphabetic order):
   Daniel Aravena         : Magnetic Properties
   Michael Atanasov       : Ab Initio Ligand Field Theory
   Ute Becker             : Parallelization
   Martin Brehm           : Molecular dynamics
   Dmytro Bykov           : SCF Hessian
   Vijay G. Chilkuri      : MRCI spin determinant printing
   Dipayan Datta          : RHF DLPNO-CCSD density
   Achintya Kumar Dutta   : EOM-CC, STEOM-CC
   Dmitry Ganyushin       : Spin-Orbit,Spin-Spin,Magnetic field MRCI
   Yang Guo               : DLPNO-NEVPT2, CIM, IAO-localization
   Andreas Hansen         : Spin unrestricted coupled pair/coupled cluster methods
   Lee Huntington         : MR-EOM, pCC
   Robert Izsak           : Overlap fitted RIJCOSX, COSX-SCS-MP3, EOM
   Christian Kollmar      : KDIIS, OOCD, Brueckner-CCSD(T), CCSD density
   Simone Kossmann        : Meta GGA functionals, TD-DFT gradient, OOMP2, MP2 Hessian
   Martin Krupicka        : AUTO-CI
   Dagmar Lenk            : GEPOL surface
   Dimitrios Liakos       : Extrapolation schemes; parallel MDCI
   Dimitrios Manganas     : ROCIS; embedding schemes
   Dimitrios Pantazis     : SARC Basis sets
   Taras Petrenko         : DFT Hessian,TD-DFT gradient, ASA, ECA, R-Raman, ABS, FL, XAS/XES, NRVS
   Peter Pinski           : DLPNO-MP2
   Christoph Reimann      : Effective Core Potentials
   Marius Retegan         : Local ZFS, SOC
   Christoph Riplinger    : Optimizer, TS searches, QM/MM, DLPNO-CCSD(T), (RO)-DLPNO pert. Triples
   Tobias Risthaus        : Range-separated hybrids, TD-DFT gradient, RPA, STAB
   Michael Roemelt        : Restricted open shell CIS
   Masaaki Saitow         : Open-shell DLPNO
   Barbara Sandhoefer     : DKH picture change effects
   Kantharuban Sivalingam : CASSCF convergence, NEVPT2, FIC-MRCI
   Georgi Stoychev        : AutoAux
   Boris Wezisla          : Elementary symmetry handling
   Frank Wennmohs         : Technical directorship


 We gratefully acknowledge several colleagues who have allowed us to
 interface, adapt or use parts of their codes:
   Stefan Grimme, W. Hujo, H. Kruse,             : VdW corrections, initial TS optimization,
                  C. Bannwarth                     DFT functionals, gCP, sTDA/sTD-DF
   Ed Valeev                                     : LibInt (2-el integral package), F12 methods
   Garnet Chan, S. Sharma, J. Yang, R. Olivares  : DMRG
   Ulf Ekstrom                                   : XCFun DFT Library
   Mihaly Kallay                                 : mrcc  (arbitrary order and MRCC methods)
   Jiri Pittner, Ondrej Demel                    : Mk-CCSD
   Frank Weinhold                                : gennbo (NPA and NBO analysis)
   Christopher J. Cramer and Donald G. Truhlar   : smd solvation model


 Your calculation uses the libint2 library for the computation of 2-el integrals
 For citations please refer to: http://libint.valeyev.net

 This ORCA versions uses:
   CBLAS   interface :  Fast vector & matrix operations
   LAPACKE interface :  Fast linear algebra routines
   SCALAPACK package :  Parallel linear algebra routines


Your calculation utilizes the atom-pairwise dispersion correction
with the zero-damping scheme (D30)
Cite in your paper:
S.Grimme, J.Antony, S.Ehrlich and H.Krieg, J.Chem.Phys., 132, (2010), 154104 
   

XCFun DFT library Copyright 2009-2010 Ulf Ekstrom and contributors.
See http://admol.org/xcfun for more information. This is free soft-
ware; see the source code for copying conditions. There is ABSOLUTELY
NO WARRANTY; not even for MERCHANTABILITY or FITNESS FOR A PARTICULAR
PURPOSE. For details see the documentation. Scientific users of this 
library should cite U. Ekstrom, L. Visscher, R. Bast, A. J. Thorvald-
sen and K. Ruud; J.Chem.Theor.Comp. 2010, DOI: 10.1021/ct100117s
XCFun Version 0.99 
Your calculation utilizes the basis: 6-31G(d)
   H-He, Li-Ne : W. J. Hehre, R. Ditchfield and J.A. Pople, J. Chem. Phys. 56, 2257 (1972).
                 Note: He and Ne are unpublished basis sets taken from the Gaussian program.
                 Note: Li and B from J. D. Dill and J. A. Pople, J. Chem. Phys. 62, 2921 (1975).
   Na - Ar     : M. M. Francl, W. J. Pietro, W. J. Hehre, J. S. Binkley, M. S. Gordon, 
                 D. J. DeFrees and J. A. Pople, J. Chem. Phys. 77, 3654 (1982).
   K - Zn      : V. A. Rassolov, J. A. Pople, M. A. Ratner, and T. L. Windus, J. Chem. Phys. 109, 1223 (1998).

================================================================================
                                        WARNINGS
                       Please study these warnings very carefully!
================================================================================

Warning: TCutStore was < 0. Adjusted to Thresh (uncritical)

INFO   : the flag for use of LIBINT has been found!

================================================================================
                                       INPUT FILE
================================================================================
NAME = initial23.inp
|  1> ! WB97X-D3 6-31G(d) VerySlowConv
|  2> ! KDIIS NOSOSCF
|  3> %base "Scan_23"
|  4> 
|  5> %scf
|  6> maxiter 999
|  7> end
|  8> 
|  9> * xyz 0 1
| 10> F         -1.365379584072    0.936930000000    0.000000000000
| 11> H          1.381929584072    0.936930000000   -0.000000000000
| 12> **                         ****END OF INPUT****
================================================================================

                       ****************************
                       * Single Point Calculation *
                       ****************************

---------------------------------
CARTESIAN COORDINATES (ANGSTROEM)
---------------------------------
  F     -1.365380    0.936930    0.000000
  H      1.381930    0.936930   -0.000000

----------------------------
CARTESIAN COORDINATES (A.U.)
----------------------------
  NO LB      ZA    FRAG     MASS         X           Y           Z
   0 F     9.0000    0    18.998   -2.580193    1.770541    0.000000
   1 H     1.0000    0     1.008    2.611468    1.770541   -0.000000

--------------------------------
INTERNAL COORDINATES (ANGSTROEM)
--------------------------------
 F      0   0   0     0.000000000000     0.00000000     0.00000000
 H      1   0   0     2.747309168144     0.00000000     0.00000000

---------------------------
INTERNAL COORDINATES (A.U.)
---------------------------
 F      0   0   0     0.000000000000     0.00000000     0.00000000
 H      1   0   0     5.191661933003     0.00000000     0.00000000

---------------------
BASIS SET INFORMATION
---------------------
There are 2 groups of distinct atoms

 Group   1 Type F   : 10s4p1d contracted to 3s2p1d pattern {631/31/1}
 Group   2 Type H   : 4s contracted to 2s pattern {31}

Atom   0F    basis set group =>   1
Atom   1H    basis set group =>   2
------------------------------------------------------------------------------
                           ORCA GTO INTEGRAL CALCULATION
------------------------------------------------------------------------------

                         BASIS SET STATISTICS AND STARTUP INFO

 # of primitive gaussian shells          ...   19
 # of primitive gaussian functions       ...   31
 # of contracted shells                  ...    8
 # of contracted basis functions         ...   16
 Highest angular momentum                ...    2
 Maximum contraction depth               ...    6
 Integral package used                   ... LIBINT
 Integral threshhold            Thresh   ...  1.000e-10
 Primitive cut-off              TCut     ...  1.000e-11


------------------------------ INTEGRAL EVALUATION ----------------------------


 * One electron integrals 
 Pre-screening matrix                    ... done
 Shell pair data                         ... done (   0.000 sec)

-------------------------------------------------------------------------------
                                 ORCA SCF
-------------------------------------------------------------------------------

------------
SCF SETTINGS
------------
Hamiltonian:
 Density Functional     Method          .... DFT(GTOs)
 Exchange Functional    Exchange        .... WB97X-D3
 Correlation Functional Correlation     .... WB97X-D3
 Gradients option       PostSCFGGA      .... off
 Hybrid DFT is turned on
   Fraction HF Exchange ScalHFX         ....  0.195728
   Scaling of DF-GGA-X  ScalDFX         ....  0.000000
   Scaling of DF-GGA-C  ScalDFC         ....  1.000000
   Scaling of DF-LDA-C  ScalLDAC        ....  1.000000
   Perturbative correction              ....  0.000000
 Long-range corrected/Screened/Range-Separated Hybrid DFT is turned on
   Amount of maximum screened exact exchange              ....  0.804272
   Range separation parameter mu (erf(mu*r12)/r12)        ....  0.250000


General Settings:
 Integral files         IntName         .... Scan_23
 Hartree-Fock type      HFTyp           .... RHF
 Total Charge           Charge          ....    0
 Multiplicity           Mult            ....    1
 Number of Electrons    NEL             ....   10
 Basis Dimension        Dim             ....   16
 Nuclear Repulsion      ENuc            ....      1.7335489321 Eh

Convergence Acceleration:
 DIIS                   CNVDIIS         .... on
   Start iteration      DIISMaxIt       ....     0
   Startup error        DIISStart       ....  0.200000
   # of expansion vecs  DIISMaxEq       ....     5
   Bias factor          DIISBfac        ....   1.050
   Max. coefficient     DIISMaxC        ....  10.000
 Newton-Raphson         CNVNR           .... off
 SOSCF                  CNVSOSCF        .... off
 Level Shifting         CNVShift        .... off
 Zerner damping         CNVZerner       .... off
 Static damping         CNVDamp         .... off
 Fernandez-Rico         CNVRico         .... off

SCF Procedure:
 Maximum # iterations   MaxIter         ....   999
 SCF integral mode      SCFMode         .... Direct
   Integral package                     .... LIBINT
 Reset frequeny         DirectResetFreq ....    20
 Integral Threshold     Thresh          ....  1.000e-10 Eh
 Primitive CutOff       TCut            ....  1.000e-11 Eh

Convergence Tolerance:
 Convergence Check Mode ConvCheckMode   .... All-Criteria
 Convergence forced     ConvForced      .... 0
 Energy Change          TolE            ....  1.000e-06 Eh
 Max Density Change     TolMaxP         ....  1.000e-05
 RMS Density Change     TolRMSP         ....  1.000e-06
 DIIS Error             TolErr          ....  1.000e-06


Diagonalization of the overlap matrix:
Smallest eigenvalue                        ... 2.302e-01
Time for diagonalization                   ...    0.000 sec
Threshold for overlap eigenvalues          ... 1.000e-08
Number of eigenvalues below threshold      ... 0
Time for construction of square roots      ...    0.007 sec
Total time needed                          ...    0.007 sec

-------------------
DFT GRID GENERATION
-------------------

General Integration Accuracy     IntAcc      ...  4.340
Radial Grid Type                 RadialGrid  ... Gauss-Chebyshev
Angular Grid (max. acc.)         AngularGrid ... Lebedev-110
Angular grid pruning method      GridPruning ... 3 (G Style)
Weight generation scheme         WeightScheme... Becke
Basis function cutoff            BFCut       ...    1.0000e-10
Integration weight cutoff        WCut        ...    1.0000e-14
Grids for H and He will be reduced by one unit

# of grid points (after initial pruning)     ...   2534 (   0.0 sec)
# of grid points (after weights+screening)   ...   2522 (   0.0 sec)
nearest neighbour list constructed           ...    0.0 sec
Grid point re-assignment to atoms done       ...    0.0 sec
Grid point division into batches done        ...    0.0 sec
Reduced shell lists constructed in    0.0 sec

Total number of grid points                  ...     2522
Total number of batches                      ...       40
Average number of points per batch           ...       63
Average number of grid points per atom       ...     1261
Average number of shells per batch           ...     6.78 (84.76%)
Average number of basis functions per batch  ...    13.85 (86.59%)
Average number of large shells per batch     ...     5.83 (85.97%)
Average number of large basis fcns per batch ...    12.17 (87.85%)
Maximum spatial batch extension              ...  14.74, 25.65, 25.65 au
Average spatial batch extension              ...   5.33,  7.05,  7.44 au

Time for grid setup =    0.013 sec

------------------------------
INITIAL GUESS: MODEL POTENTIAL
------------------------------
Loading Hartree-Fock densities                     ... done
Calculating cut-offs                               ... done
Setting up the integral package                    ... done
Initializing the effective Hamiltonian             ... done
Starting the Coulomb interaction                   ... done (   0.0 sec)
Reading the grid                                   ... done
Mapping shells                                     ... done
Starting the XC term evaluation                    ... done (   0.0 sec)
  promolecular density results
     # of electrons  =     10.000441504
     EX              =    -10.171101640
     EC              =     -0.312184858
     EX+EC           =    -10.483286499
Transforming the Hamiltonian                       ... done (   0.0 sec)
Diagonalizing the Hamiltonian                      ... done (   0.0 sec)
Back transforming the eigenvectors                 ... done (   0.0 sec)
Now organizing SCF variables                       ... done
                      ------------------
                      INITIAL GUESS DONE (   0.1 sec)
                      ------------------
--------------
SCF ITERATIONS
--------------
ITER       Energy         Delta-E        Max-DP      RMS-DP      [F,P]   Gradient Norm
               ***  Starting incremental Fock matrix formation  ***
                             ****Resetting KDIIS****
                             ****Turning on KDIIS(Cayley)****
  0    -99.8322718065   0.000000000000 0.04143427  0.00557878  0.2169890   0.191276064
  1    -99.8756425154  -0.043370708899 0.04435157  0.00599405  0.1736797   0.154064973
  2    -99.9161921018  -0.040549586393 0.13553121  0.01751160  0.1336140   0.122580901
  3   -100.0225476777  -0.106355575966 0.37176889  0.04414990  0.1180558   0.069425659
  4   -100.0216862124   0.000861465310 0.45243474  0.07228527  0.1802149   0.128034059
  5    -99.9261424465   0.095543765936 0.09240582  0.01086212  0.0485482   0.044034077
  6    -99.9309218626  -0.004779416081 0.01394701  0.00202303  0.0208696   0.010778001
  7    -99.9309761181  -0.000054255508 0.05051158  0.00508699  0.0230027   0.014964995
  8    -99.9377418818  -0.006765763744 0.02862682  0.00316665  0.0448060   0.028593729
  9    -99.9449013308  -0.007159448927 0.12144292  0.01275943  0.0583885   0.035292475
 10    -99.9911556344  -0.046254303647 0.34294345  0.03350538  0.0962188   0.046022118
 11    -99.9358069992   0.055348635256 0.09359392  0.00971898  0.0369001   0.028773668
 12    -99.9286155407   0.007191458405 0.01387834  0.00148427  0.0036794   0.003205720
 13    -99.9290345000  -0.000418959238 0.03603480  0.00349785  0.0101699   0.007342627
 14    -99.9287726870   0.000261812997 0.00043742  0.00004282  0.0058619   0.002956404
Warning: badly conditioned DIIS matrix, 1 vectors out of 5 destroyed
 15    -99.9287850532  -0.000012366166 0.01204416  0.00124071  0.0060649   0.003057172
 16    -99.9285916535   0.000193399666 0.00082825  0.00012521  0.0008905   0.000772712
 17    -99.9285932882  -0.000001634730 0.00015952  0.00002642  0.0001795   0.000150467
                          ***Energy convergence achieved***
 18    -99.9285933387  -0.000000050459 0.00002789  0.00000329  0.0000244   0.000017121
Warning: badly conditioned DIIS matrix, 1 vectors out of 5 destroyed
                           ***RMSP convergence achieved***
                           ***MAXP convergence achieved***
                    *** KDIIS BlockDiag ( 0.000 sec) ***

               *****************************************************
               *                     SUCCESS                       *
               *           SCF CONVERGED AFTER  19 CYCLES          *
               *****************************************************

Setting up the final grid:

General Integration Accuracy     IntAcc      ...  4.670
Radial Grid Type                 RadialGrid  ... Gauss-Chebyshev
Angular Grid (max. acc.)         AngularGrid ... Lebedev-302
Angular grid pruning method      GridPruning ... 3 (G Style)
Weight generation scheme         WeightScheme... Becke
Basis function cutoff            BFCut       ...    1.0000e-10
Integration weight cutoff        WCut        ...    1.0000e-14
Grids for H and He will be reduced by one unit

# of grid points (after initial pruning)     ...   9666 (   0.0 sec)
# of grid points (after weights+screening)   ...   9652 (   0.0 sec)
nearest neighbour list constructed           ...    0.0 sec
Grid point re-assignment to atoms done       ...    0.0 sec
Grid point division into batches done        ...    0.0 sec
Reduced shell lists constructed in    0.1 sec

Total number of grid points                  ...     9652
Total number of batches                      ...      152
Average number of points per batch           ...       63
Average number of grid points per atom       ...     4826
Average number of shells per batch           ...     5.80 (72.55%)
Average number of basis functions per batch  ...    12.00 (75.00%)
Average number of large shells per batch     ...     4.99 (85.92%)
Average number of large basis fcns per batch ...    10.20 (85.02%)
Maximum spatial batch extension              ...  15.54, 17.58, 17.58 au
Average spatial batch extension              ...   3.65,  3.87,  3.84 au

Final grid set up in    0.1 sec
Final integration                            ... done (   0.1 sec)
Change in XC energy                          ...     0.001881205
Integrated number of electrons               ...    10.000032546
Previous integrated no of electrons          ...     9.999616433

----------------
TOTAL SCF ENERGY
----------------

Total Energy       :          -99.92671213 Eh           -2719.14408 eV

Components:
Nuclear Repulsion  :            1.73354893 Eh              47.17226 eV
Electronic Energy  :         -101.66026107 Eh           -2766.31634 eV
One Electron Energy:         -146.84607624 Eh           -3995.88488 eV
Two Electron Energy:           45.18581518 Eh            1229.56854 eV

Virial components:
Potential Energy   :         -199.52849556 Eh           -5429.44639 eV
Kinetic Energy     :           99.60178343 Eh            2710.30232 eV
Virial Ratio       :            2.00326228


DFT components:
N(Alpha)           :        5.000016272817 electrons
N(Beta)            :        5.000016272817 electrons
N(Total)           :       10.000032545633 electrons
E(XC)              :       -7.689839953587 Eh       

---------------
SCF CONVERGENCE
---------------

  Last Energy change         ...   -6.9983e-10  Tolerance :   1.0000e-06
  Last MAX-Density change    ...    2.0104e-06  Tolerance :   1.0000e-05
  Last RMS-Density change    ...    3.4668e-07  Tolerance :   1.0000e-06
  Last DIIS Error            ...    1.1501e-06  Tolerance :   1.0000e-06

             **** THE GBW FILE WAS UPDATED (Scan_23.gbw) ****
             **** DENSITY FILE WAS UPDATED (Scan_23.scfp.tmp) ****
             **** ENERGY FILE WAS UPDATED (Scan_23.en.tmp) ****
----------------
ORBITAL ENERGIES
----------------

  NO   OCC          E(Eh)            E(eV) 
   0   2.0000     -24.376359      -663.3145 
   1   2.0000      -0.860703       -23.4209 
   2   2.0000      -0.138677        -3.7736 
   3   2.0000      -0.131624        -3.5817 
   4   2.0000      -0.131624        -3.5817 
   5   0.0000      -0.318128        -8.6567 
   6   0.0000       0.617588        16.8054 
   7   0.0000       1.586973        43.1837 
   8   0.0000       1.586973        43.1837 
   9   0.0000       1.591666        43.3114 
  10   0.0000       1.759268        47.8721 
  11   0.0000       2.268108        61.7184 
  12   0.0000       2.273096        61.8541 
  13   0.0000       2.273096        61.8541 
  14   0.0000       2.278577        62.0032 
  15   0.0000       2.278577        62.0032 

                    ********************************
                    * MULLIKEN POPULATION ANALYSIS *
                    ********************************

-----------------------
MULLIKEN ATOMIC CHARGES
-----------------------
   0 F :   -0.987439
   1 H :    0.987439
Sum of atomic charges:   -0.0000000

--------------------------------
MULLIKEN REDUCED ORBITAL CHARGES
--------------------------------
  0 F s       :     3.998372  s :     3.998372
      pz      :     1.999922  p :     5.988708
      px      :     1.988865
      py      :     1.999922
      dz2     :     0.000051  d :     0.000359
      dxz     :     0.000078
      dyz     :     0.000000
      dx2y2   :     0.000152
      dxy     :     0.000078
  1 H s       :     0.012561  s :     0.012561


                     *******************************
                     * LOEWDIN POPULATION ANALYSIS *
                     *******************************

----------------------
LOEWDIN ATOMIC CHARGES
----------------------
   0 F :   -0.987597
   1 H :    0.987597

-------------------------------
LOEWDIN REDUCED ORBITAL CHARGES
-------------------------------
  0 F s       :     3.998057  s :     3.998057
      pz      :     1.999922  p :     5.989179
      px      :     1.989336
      py      :     1.999922
      dz2     :     0.000051  d :     0.000360
      dxz     :     0.000078
      dyz     :     0.000000
      dx2y2   :     0.000153
      dxy     :     0.000078
  1 H s       :     0.012403  s :     0.012403


                      *****************************
                      * MAYER POPULATION ANALYSIS *
                      *****************************

  NA   - Mulliken gross atomic population
  ZA   - Total nuclear charge
  QA   - Mulliken gross atomic charge
  VA   - Mayer's total valence
  BVA  - Mayer's bonded valence
  FA   - Mayer's free valence

  ATOM       NA         ZA         QA         VA         BVA        FA
  0 F      9.9874     9.0000    -0.9874     0.0250     0.0250     0.0000
  1 H      0.0126     1.0000     0.9874     0.0250     0.0250     0.0000

  Mayer bond orders larger than 0.1


-------
TIMINGS
-------

Total SCF time: 0 days 0 hours 0 min 4 sec 

Total time                  ....       4.978 sec
Sum of individual times     ....       4.783 sec  ( 96.1%)

Fock matrix formation       ....       4.554 sec  ( 91.5%)
  XC integration            ....       0.689 sec  ( 15.1% of F)
    Basis function eval.    ....       0.109 sec  ( 15.9% of XC)
    Density eval.           ....       0.028 sec  (  4.1% of XC)
    XC-Functional eval.     ....       0.185 sec  ( 26.8% of XC)
    XC-Potential eval.      ....       0.010 sec  (  1.5% of XC)
Diagonalization             ....       0.030 sec  (  0.6%)
Density matrix formation    ....       0.000 sec  (  0.0%)
Population analysis         ....       0.010 sec  (  0.2%)
Initial guess               ....       0.114 sec  (  2.3%)
Orbital Transformation      ....       0.000 sec  (  0.0%)
Orbital Orthonormalization  ....       0.000 sec  (  0.0%)
DIIS solution               ....       0.000 sec  (  0.0%)
Grid generation             ....       0.076 sec  (  1.5%)


-------------------------------------------------------------------------------
                          DFT DISPERSION CORRECTION                            
                                                                               
                              DFTD3 V3.1  Rev 1                                
                              USING zero damping                               
-------------------------------------------------------------------------------
The omegaB97X-D3 functional is recognized. Fit by Chai et al.
Active option DFTDOPT                   ...         3   

molecular C6(AA) [au] = 32.291146 


            DFT-D V3
 parameters
 s6 scaling factor         :     1.0000 
 rs6 scaling factor        :     1.2810 
 s8 scaling factor         :     1.0000 
 rs8 scaling factor        :     1.0940 
 Damping factor alpha6     :    14.0000 
 Damping factor alpha8     :    16.0000 
 ad hoc parameters k1-k3   :    16.0000     1.3333    -4.0000 

 Edisp/kcal,au: -0.157468728758  -0.000250942366 
 E6   /kcal   :  -0.054055970 
 E8   /kcal   :  -0.103412759 
 % E8         :  65.671933491 

-------------------------   ----------------
Dispersion correction           -0.000250942
-------------------------   ----------------


-------------------------   --------------------
FINAL SINGLE POINT ENERGY       -99.926963076580
-------------------------   --------------------


                            ***************************************
                            *     ORCA property calculations      *
                            ***************************************

                                    ---------------------
                                    Active property flags
                                    ---------------------
   (+) Dipole Moment


------------------------------------------------------------------------------
                       ORCA ELECTRIC PROPERTIES CALCULATION
------------------------------------------------------------------------------

Dipole Moment Calculation                       ... on
Quadrupole Moment Calculation                   ... off
Polarizability Calculation                      ... off
GBWName                                         ... Scan_23.gbw
Electron density file                           ... Scan_23.scfp.tmp

-------------
DIPOLE MOMENT
-------------
                                X             Y             Z
Electronic contribution:      2.49042      -0.00000      -0.00000
Nuclear contribution   :      2.57585      -0.00000       0.00000
                        -----------------------------------------
Total Dipole Moment    :      5.06627      -0.00000      -0.00000
                        -----------------------------------------
Magnitude (a.u.)       :      5.06627
Magnitude (Debye)      :     12.87743


Timings for individual modules:

Sum of individual times         ...        5.439 sec (=   0.091 min)
GTO integral calculation        ...        0.414 sec (=   0.007 min)   7.6 %
SCF iterations                  ...        5.025 sec (=   0.084 min)  92.4 %
                             ****ORCA TERMINATED NORMALLY****
TOTAL RUN TIME: 0 days 0 hours 0 minutes 5 seconds 831 msec
