
                                 *****************
                                 * O   R   C   A *
                                 *****************

           --- An Ab Initio, DFT and Semiempirical electronic structure package ---

                  #######################################################
                  #                        -***-                        #
                  #  Department of molecular theory and spectroscopy    #
                  #              Directorship: Frank Neese              #
                  # Max Planck Institute for Chemical Energy Conversion #
                  #                  D-45470 Muelheim/Ruhr              #
                  #                       Germany                       #
                  #                                                     #
                  #                  All rights reserved                #
                  #                        -***-                        #
                  #######################################################


                         Program Version 4.0.0.2 - RELEASE -


 With contributions from (in alphabetic order):
   Daniel Aravena         : Magnetic Properties
   Michael Atanasov       : Ab Initio Ligand Field Theory
   Ute Becker             : Parallelization
   Martin Brehm           : Molecular dynamics
   Dmytro Bykov           : SCF Hessian
   Vijay G. Chilkuri      : MRCI spin determinant printing
   Dipayan Datta          : RHF DLPNO-CCSD density
   Achintya Kumar Dutta   : EOM-CC, STEOM-CC
   Dmitry Ganyushin       : Spin-Orbit,Spin-Spin,Magnetic field MRCI
   Yang Guo               : DLPNO-NEVPT2, CIM, IAO-localization
   Andreas Hansen         : Spin unrestricted coupled pair/coupled cluster methods
   Lee Huntington         : MR-EOM, pCC
   Robert Izsak           : Overlap fitted RIJCOSX, COSX-SCS-MP3, EOM
   Christian Kollmar      : KDIIS, OOCD, Brueckner-CCSD(T), CCSD density
   Simone Kossmann        : Meta GGA functionals, TD-DFT gradient, OOMP2, MP2 Hessian
   Martin Krupicka        : AUTO-CI
   Dagmar Lenk            : GEPOL surface
   Dimitrios Liakos       : Extrapolation schemes; parallel MDCI
   Dimitrios Manganas     : ROCIS; embedding schemes
   Dimitrios Pantazis     : SARC Basis sets
   Taras Petrenko         : DFT Hessian,TD-DFT gradient, ASA, ECA, R-Raman, ABS, FL, XAS/XES, NRVS
   Peter Pinski           : DLPNO-MP2
   Christoph Reimann      : Effective Core Potentials
   Marius Retegan         : Local ZFS, SOC
   Christoph Riplinger    : Optimizer, TS searches, QM/MM, DLPNO-CCSD(T), (RO)-DLPNO pert. Triples
   Tobias Risthaus        : Range-separated hybrids, TD-DFT gradient, RPA, STAB
   Michael Roemelt        : Restricted open shell CIS
   Masaaki Saitow         : Open-shell DLPNO
   Barbara Sandhoefer     : DKH picture change effects
   Kantharuban Sivalingam : CASSCF convergence, NEVPT2, FIC-MRCI
   Georgi Stoychev        : AutoAux
   Boris Wezisla          : Elementary symmetry handling
   Frank Wennmohs         : Technical directorship


 We gratefully acknowledge several colleagues who have allowed us to
 interface, adapt or use parts of their codes:
   Stefan Grimme, W. Hujo, H. Kruse,             : VdW corrections, initial TS optimization,
                  C. Bannwarth                     DFT functionals, gCP, sTDA/sTD-DF
   Ed Valeev                                     : LibInt (2-el integral package), F12 methods
   Garnet Chan, S. Sharma, J. Yang, R. Olivares  : DMRG
   Ulf Ekstrom                                   : XCFun DFT Library
   Mihaly Kallay                                 : mrcc  (arbitrary order and MRCC methods)
   Jiri Pittner, Ondrej Demel                    : Mk-CCSD
   Frank Weinhold                                : gennbo (NPA and NBO analysis)
   Christopher J. Cramer and Donald G. Truhlar   : smd solvation model


 Your calculation uses the libint2 library for the computation of 2-el integrals
 For citations please refer to: http://libint.valeyev.net

 This ORCA versions uses:
   CBLAS   interface :  Fast vector & matrix operations
   LAPACKE interface :  Fast linear algebra routines
   SCALAPACK package :  Parallel linear algebra routines


Your calculation utilizes the atom-pairwise dispersion correction
with the zero-damping scheme (D30)
Cite in your paper:
S.Grimme, J.Antony, S.Ehrlich and H.Krieg, J.Chem.Phys., 132, (2010), 154104 
   

XCFun DFT library Copyright 2009-2010 Ulf Ekstrom and contributors.
See http://admol.org/xcfun for more information. This is free soft-
ware; see the source code for copying conditions. There is ABSOLUTELY
NO WARRANTY; not even for MERCHANTABILITY or FITNESS FOR A PARTICULAR
PURPOSE. For details see the documentation. Scientific users of this 
library should cite U. Ekstrom, L. Visscher, R. Bast, A. J. Thorvald-
sen and K. Ruud; J.Chem.Theor.Comp. 2010, DOI: 10.1021/ct100117s
XCFun Version 0.99 
Your calculation utilizes the basis: 6-31G(d)
   H-He, Li-Ne : W. J. Hehre, R. Ditchfield and J.A. Pople, J. Chem. Phys. 56, 2257 (1972).
                 Note: He and Ne are unpublished basis sets taken from the Gaussian program.
                 Note: Li and B from J. D. Dill and J. A. Pople, J. Chem. Phys. 62, 2921 (1975).
   Na - Ar     : M. M. Francl, W. J. Pietro, W. J. Hehre, J. S. Binkley, M. S. Gordon, 
                 D. J. DeFrees and J. A. Pople, J. Chem. Phys. 77, 3654 (1982).
   K - Zn      : V. A. Rassolov, J. A. Pople, M. A. Ratner, and T. L. Windus, J. Chem. Phys. 109, 1223 (1998).

================================================================================
                                        WARNINGS
                       Please study these warnings very carefully!
================================================================================

Warning: TCutStore was < 0. Adjusted to Thresh (uncritical)

INFO   : the flag for use of LIBINT has been found!

================================================================================
                                       INPUT FILE
================================================================================
NAME = initial24.inp
|  1> ! WB97X-D3 6-31G(d) VerySlowConv
|  2> ! KDIIS NOSOSCF
|  3> %base "Scan_24"
|  4> 
|  5> %scf
|  6> maxiter 999
|  7> end
|  8> 
|  9> * xyz 0 1
| 10> F         -1.416784781644    0.936930000000    0.000000000000
| 11> H          1.433334781644    0.936930000000   -0.000000000000
| 12> **                         ****END OF INPUT****
================================================================================

                       ****************************
                       * Single Point Calculation *
                       ****************************

---------------------------------
CARTESIAN COORDINATES (ANGSTROEM)
---------------------------------
  F     -1.416785    0.936930    0.000000
  H      1.433335    0.936930   -0.000000

----------------------------
CARTESIAN COORDINATES (A.U.)
----------------------------
  NO LB      ZA    FRAG     MASS         X           Y           Z
   0 F     9.0000    0    18.998   -2.677335    1.770541    0.000000
   1 H     1.0000    0     1.008    2.708610    1.770541   -0.000000

--------------------------------
INTERNAL COORDINATES (ANGSTROEM)
--------------------------------
 F      0   0   0     0.000000000000     0.00000000     0.00000000
 H      1   0   0     2.850119563288     0.00000000     0.00000000

---------------------------
INTERNAL COORDINATES (A.U.)
---------------------------
 F      0   0   0     0.000000000000     0.00000000     0.00000000
 H      1   0   0     5.385945423546     0.00000000     0.00000000

---------------------
BASIS SET INFORMATION
---------------------
There are 2 groups of distinct atoms

 Group   1 Type F   : 10s4p1d contracted to 3s2p1d pattern {631/31/1}
 Group   2 Type H   : 4s contracted to 2s pattern {31}

Atom   0F    basis set group =>   1
Atom   1H    basis set group =>   2
------------------------------------------------------------------------------
                           ORCA GTO INTEGRAL CALCULATION
------------------------------------------------------------------------------

                         BASIS SET STATISTICS AND STARTUP INFO

 # of primitive gaussian shells          ...   19
 # of primitive gaussian functions       ...   31
 # of contracted shells                  ...    8
 # of contracted basis functions         ...   16
 Highest angular momentum                ...    2
 Maximum contraction depth               ...    6
 Integral package used                   ... LIBINT
 Integral threshhold            Thresh   ...  1.000e-10
 Primitive cut-off              TCut     ...  1.000e-11


------------------------------ INTEGRAL EVALUATION ----------------------------


 * One electron integrals 
 Pre-screening matrix                    ... done
 Shell pair data                         ... done (   0.000 sec)

-------------------------------------------------------------------------------
                                 ORCA SCF
-------------------------------------------------------------------------------

------------
SCF SETTINGS
------------
Hamiltonian:
 Density Functional     Method          .... DFT(GTOs)
 Exchange Functional    Exchange        .... WB97X-D3
 Correlation Functional Correlation     .... WB97X-D3
 Gradients option       PostSCFGGA      .... off
 Hybrid DFT is turned on
   Fraction HF Exchange ScalHFX         ....  0.195728
   Scaling of DF-GGA-X  ScalDFX         ....  0.000000
   Scaling of DF-GGA-C  ScalDFC         ....  1.000000
   Scaling of DF-LDA-C  ScalLDAC        ....  1.000000
   Perturbative correction              ....  0.000000
 Long-range corrected/Screened/Range-Separated Hybrid DFT is turned on
   Amount of maximum screened exact exchange              ....  0.804272
   Range separation parameter mu (erf(mu*r12)/r12)        ....  0.250000


General Settings:
 Integral files         IntName         .... Scan_24
 Hartree-Fock type      HFTyp           .... RHF
 Total Charge           Charge          ....    0
 Multiplicity           Mult            ....    1
 Number of Electrons    NEL             ....   10
 Basis Dimension        Dim             ....   16
 Nuclear Repulsion      ENuc            ....      1.6710158184 Eh

Convergence Acceleration:
 DIIS                   CNVDIIS         .... on
   Start iteration      DIISMaxIt       ....     0
   Startup error        DIISStart       ....  0.200000
   # of expansion vecs  DIISMaxEq       ....     5
   Bias factor          DIISBfac        ....   1.050
   Max. coefficient     DIISMaxC        ....  10.000
 Newton-Raphson         CNVNR           .... off
 SOSCF                  CNVSOSCF        .... off
 Level Shifting         CNVShift        .... off
 Zerner damping         CNVZerner       .... off
 Static damping         CNVDamp         .... off
 Fernandez-Rico         CNVRico         .... off

SCF Procedure:
 Maximum # iterations   MaxIter         ....   999
 SCF integral mode      SCFMode         .... Direct
   Integral package                     .... LIBINT
 Reset frequeny         DirectResetFreq ....    20
 Integral Threshold     Thresh          ....  1.000e-10 Eh
 Primitive CutOff       TCut            ....  1.000e-11 Eh

Convergence Tolerance:
 Convergence Check Mode ConvCheckMode   .... All-Criteria
 Convergence forced     ConvForced      .... 0
 Energy Change          TolE            ....  1.000e-06 Eh
 Max Density Change     TolMaxP         ....  1.000e-05
 RMS Density Change     TolRMSP         ....  1.000e-06
 DIIS Error             TolErr          ....  1.000e-06


Diagonalization of the overlap matrix:
Smallest eigenvalue                        ... 2.311e-01
Time for diagonalization                   ...    0.000 sec
Threshold for overlap eigenvalues          ... 1.000e-08
Number of eigenvalues below threshold      ... 0
Time for construction of square roots      ...    0.004 sec
Total time needed                          ...    0.004 sec

-------------------
DFT GRID GENERATION
-------------------

General Integration Accuracy     IntAcc      ...  4.340
Radial Grid Type                 RadialGrid  ... Gauss-Chebyshev
Angular Grid (max. acc.)         AngularGrid ... Lebedev-110
Angular grid pruning method      GridPruning ... 3 (G Style)
Weight generation scheme         WeightScheme... Becke
Basis function cutoff            BFCut       ...    1.0000e-10
Integration weight cutoff        WCut        ...    1.0000e-14
Grids for H and He will be reduced by one unit

# of grid points (after initial pruning)     ...   2534 (   0.0 sec)
# of grid points (after weights+screening)   ...   2522 (   0.0 sec)
nearest neighbour list constructed           ...    0.0 sec
Grid point re-assignment to atoms done       ...    0.0 sec
Grid point division into batches done        ...    0.0 sec
Reduced shell lists constructed in    0.0 sec

Total number of grid points                  ...     2522
Total number of batches                      ...       40
Average number of points per batch           ...       63
Average number of grid points per atom       ...     1261
Average number of shells per batch           ...     6.63 (82.93%)
Average number of basis functions per batch  ...    13.46 (84.15%)
Average number of large shells per batch     ...     5.78 (87.13%)
Average number of large basis fcns per batch ...    12.02 (89.31%)
Maximum spatial batch extension              ...  14.63, 25.65, 25.65 au
Average spatial batch extension              ...   5.31,  7.18,  7.61 au

Time for grid setup =    0.012 sec

------------------------------
INITIAL GUESS: MODEL POTENTIAL
------------------------------
Loading Hartree-Fock densities                     ... done
Calculating cut-offs                               ... done
Setting up the integral package                    ... done
Initializing the effective Hamiltonian             ... done
Starting the Coulomb interaction                   ... done (   0.0 sec)
Reading the grid                                   ... done
Mapping shells                                     ... done
Starting the XC term evaluation                    ... done (   0.0 sec)
  promolecular density results
     # of electrons  =     10.000729110
     EX              =    -10.170908577
     EC              =     -0.312113913
     EX+EC           =    -10.483022490
Transforming the Hamiltonian                       ... done (   0.0 sec)
Diagonalizing the Hamiltonian                      ... done (   0.0 sec)
Back transforming the eigenvectors                 ... done (   0.0 sec)
Now organizing SCF variables                       ... done
                      ------------------
                      INITIAL GUESS DONE (   0.1 sec)
                      ------------------
--------------
SCF ITERATIONS
--------------
ITER       Energy         Delta-E        Max-DP      RMS-DP      [F,P]   Gradient Norm
               ***  Starting incremental Fock matrix formation  ***
                             ****Resetting KDIIS****
                             ****Turning on KDIIS(Cayley)****
  0    -99.8216938668   0.000000000000 0.04097516  0.00559333  0.2181905   0.191584125
  1    -99.8646651401  -0.042971273263 0.04495767  0.00601996  0.1749445   0.154346899
  2    -99.9041258282  -0.039460688109 0.13849869  0.01752459  0.1351320   0.122862354
  3   -100.0092919536  -0.105166125351 0.36694154  0.04348189  0.1185903   0.070463936
  4   -100.0201365692  -0.010844615629 0.48133980  0.07238234  0.1717954   0.129894995
  5    -99.9267436966   0.093392872560 0.16877998  0.01977349  0.0508970   0.048724578
  6    -99.9322711818  -0.005527485122 0.13965471  0.01757757  0.0442126   0.021559633
  7    -99.9931964866  -0.060925304862 0.35373784  0.04896213  0.1048638   0.051684318
  8   -100.0381489897  -0.044952503047 0.07761019  0.00963674  0.1536496   0.092180038
  9   -100.0829075026  -0.044758512912 0.11006399  0.01434360  0.0733189   0.048923958
 10   -100.0921484017  -0.009240899083 0.13393896  0.01804541  0.0366515   0.016712846
 11   -100.0739008417   0.018247559932 0.05602333  0.00696442  0.0947013   0.054326287
 12   -100.0933977445  -0.019496902754 0.11610684  0.01393828  0.0355266   0.021795960
 13   -100.0876131643   0.005784580176 0.02158866  0.00284753  0.0504882   0.022901058
 14   -100.0818821530   0.005731011297 0.03440492  0.00359445  0.0608024   0.027392728
 15   -100.0882439249  -0.006361771861 0.06649058  0.00702186  0.0491776   0.022009211
 16   -100.0965379217  -0.008293996824 0.04138235  0.00421400  0.0160513   0.007182264
 17   -100.0972969379  -0.000759016235 0.00748822  0.00077648  0.0063499   0.002885032
 18   -100.0974098921  -0.000112954182 0.00310900  0.00032225  0.0018291   0.000834809
Warning: badly conditioned DIIS matrix, 1 vectors out of 5 destroyed
Warning: badly conditioned DIIS matrix, 1 vectors out of 4 destroyed
 19   -100.0974201567  -0.000010264631 0.00014709  0.00001474  0.0000525   0.000039016
               *** Restarting incremental Fock matrix formation ***
                             ****Resetting KDIIS****
                          ***Energy convergence achieved***
                           ***RMSP convergence achieved***
                           ***MAXP convergence achieved***
                    *** KDIIS BlockDiag ( 0.000 sec) ***

               *****************************************************
               *                     SUCCESS                       *
               *           SCF CONVERGED AFTER  20 CYCLES          *
               *****************************************************

Setting up the final grid:

General Integration Accuracy     IntAcc      ...  4.670
Radial Grid Type                 RadialGrid  ... Gauss-Chebyshev
Angular Grid (max. acc.)         AngularGrid ... Lebedev-302
Angular grid pruning method      GridPruning ... 3 (G Style)
Weight generation scheme         WeightScheme... Becke
Basis function cutoff            BFCut       ...    1.0000e-10
Integration weight cutoff        WCut        ...    1.0000e-14
Grids for H and He will be reduced by one unit

# of grid points (after initial pruning)     ...   9666 (   0.0 sec)
# of grid points (after weights+screening)   ...   9652 (   0.0 sec)
nearest neighbour list constructed           ...    0.0 sec
Grid point re-assignment to atoms done       ...    0.0 sec
Grid point division into batches done        ...    0.0 sec
Reduced shell lists constructed in    0.1 sec

Total number of grid points                  ...     9652
Total number of batches                      ...      152
Average number of points per batch           ...       63
Average number of grid points per atom       ...     4826
Average number of shells per batch           ...     5.75 (71.81%)
Average number of basis functions per batch  ...    11.84 (73.98%)
Average number of large shells per batch     ...     4.97 (86.58%)
Average number of large basis fcns per batch ...    10.14 (85.64%)
Maximum spatial batch extension              ...  15.98, 17.58, 17.58 au
Average spatial batch extension              ...   3.65,  3.85,  3.79 au

Final grid set up in    0.1 sec
Final integration                            ... done (   0.1 sec)
Change in XC energy                          ...     0.001184508
Integrated number of electrons               ...    10.000008582
Previous integrated no of electrons          ...     9.999157769

----------------
TOTAL SCF ENERGY
----------------

Total Energy       :         -100.09623566 Eh           -2723.75705 eV

Components:
Nuclear Repulsion  :            1.67101582 Eh              45.47065 eV
Electronic Energy  :         -101.76725148 Eh           -2769.22770 eV
One Electron Energy:         -144.07024497 Eh           -3920.35067 eV
Two Electron Energy:           42.30299349 Eh            1151.12297 eV

Virial components:
Potential Energy   :         -199.69159044 Eh           -5433.88443 eV
Kinetic Energy     :           99.59535478 Eh            2710.12738 eV
Virial Ratio       :            2.00502916


DFT components:
N(Alpha)           :        5.000004291113 electrons
N(Beta)            :        5.000004291113 electrons
N(Total)           :       10.000008582225 electrons
E(XC)              :       -7.529501164755 Eh       

---------------
SCF CONVERGENCE
---------------

  Last Energy change         ...   -1.2812e-08  Tolerance :   1.0000e-06
  Last MAX-Density change    ...    1.7374e-06  Tolerance :   1.0000e-05
  Last RMS-Density change    ...    2.3753e-07  Tolerance :   1.0000e-06
  Last DIIS Error            ...    1.3741e-05  Tolerance :   1.0000e-06

             **** THE GBW FILE WAS UPDATED (Scan_24.gbw) ****
             **** DENSITY FILE WAS UPDATED (Scan_24.scfp.tmp) ****
             **** ENERGY FILE WAS UPDATED (Scan_24.en.tmp) ****
----------------
ORBITAL ENERGIES
----------------

  NO   OCC          E(Eh)            E(eV) 
   0   2.0000     -24.746494      -673.3863 
   1   2.0000      -1.171589       -31.8805 
   2   2.0000      -0.430453       -11.7132 
   3   2.0000      -0.430453       -11.7132 
   4   2.0000      -0.405320       -11.0293 
   5   0.0000      -0.201807        -5.4914 
   6   0.0000       0.764655        20.8073 
   7   0.0000       1.338529        36.4232 
   8   0.0000       1.338529        36.4232 
   9   0.0000       1.340471        36.4761 
  10   0.0000       1.501604        40.8607 
  11   0.0000       1.997827        54.3636 
  12   0.0000       2.004347        54.5410 
  13   0.0000       2.004347        54.5410 
  14   0.0000       2.022945        55.0471 
  15   0.0000       2.022945        55.0471 

                    ********************************
                    * MULLIKEN POPULATION ANALYSIS *
                    ********************************

-----------------------
MULLIKEN ATOMIC CHARGES
-----------------------
   0 F :   -0.256863
   1 H :    0.256863
Sum of atomic charges:    0.0000000

--------------------------------
MULLIKEN REDUCED ORBITAL CHARGES
--------------------------------
  0 F s       :     3.999735  s :     3.999735
      pz      :     1.999996  p :     5.256905
      px      :     1.256914
      py      :     1.999996
      dz2     :     0.000054  d :     0.000224
      dxz     :     0.000004
      dyz     :     0.000000
      dx2y2   :     0.000161
      dxy     :     0.000004
  1 H s       :     0.743137  s :     0.743137


                     *******************************
                     * LOEWDIN POPULATION ANALYSIS *
                     *******************************

----------------------
LOEWDIN ATOMIC CHARGES
----------------------
   0 F :   -0.259210
   1 H :    0.259210

-------------------------------
LOEWDIN REDUCED ORBITAL CHARGES
-------------------------------
  0 F s       :     3.999569  s :     3.999569
      pz      :     1.999996  p :     5.259392
      px      :     1.259401
      py      :     1.999996
      dz2     :     0.000060  d :     0.000249
      dxz     :     0.000004
      dyz     :     0.000000
      dx2y2   :     0.000180
      dxy     :     0.000004
  1 H s       :     0.740790  s :     0.740790


                      *****************************
                      * MAYER POPULATION ANALYSIS *
                      *****************************

  NA   - Mulliken gross atomic population
  ZA   - Total nuclear charge
  QA   - Mulliken gross atomic charge
  VA   - Mayer's total valence
  BVA  - Mayer's bonded valence
  FA   - Mayer's free valence

  ATOM       NA         ZA         QA         VA         BVA        FA
  0 F      9.2569     9.0000    -0.2569     0.9342     0.9342    -0.0000
  1 H      0.7431     1.0000     0.2569     0.9342     0.9342     0.0000

  Mayer bond orders larger than 0.1
B(  0-F ,  1-H ) :   0.9342 

-------
TIMINGS
-------

Total SCF time: 0 days 0 hours 0 min 3 sec 

Total time                  ....       3.676 sec
Sum of individual times     ....       3.483 sec  ( 94.8%)

Fock matrix formation       ....       3.299 sec  ( 89.8%)
  XC integration            ....       0.689 sec  ( 20.9% of F)
    Basis function eval.    ....       0.107 sec  ( 15.5% of XC)
    Density eval.           ....       0.027 sec  (  3.9% of XC)
    XC-Functional eval.     ....       0.183 sec  ( 26.6% of XC)
    XC-Potential eval.      ....       0.010 sec  (  1.4% of XC)
Diagonalization             ....       0.007 sec  (  0.2%)
Density matrix formation    ....       0.000 sec  (  0.0%)
Population analysis         ....       0.012 sec  (  0.3%)
Initial guess               ....       0.095 sec  (  2.6%)
Orbital Transformation      ....       0.000 sec  (  0.0%)
Orbital Orthonormalization  ....       0.000 sec  (  0.0%)
DIIS solution               ....       0.000 sec  (  0.0%)
Grid generation             ....       0.070 sec  (  1.9%)


-------------------------------------------------------------------------------
                          DFT DISPERSION CORRECTION                            
                                                                               
                              DFTD3 V3.1  Rev 1                                
                              USING zero damping                               
-------------------------------------------------------------------------------
The omegaB97X-D3 functional is recognized. Fit by Chai et al.
Active option DFTDOPT                   ...         3   

molecular C6(AA) [au] = 32.291304 


            DFT-D V3
 parameters
 s6 scaling factor         :     1.0000 
 rs6 scaling factor        :     1.2810 
 s8 scaling factor         :     1.0000 
 rs8 scaling factor        :     1.0940 
 Damping factor alpha6     :    14.0000 
 Damping factor alpha8     :    16.0000 
 ad hoc parameters k1-k3   :    16.0000     1.3333    -4.0000 

 Edisp/kcal,au: -0.148033685389  -0.000235906669 
 E6   /kcal   :  -0.063136135 
 E8   /kcal   :  -0.084897550 
 % E8         :  57.350156661 

-------------------------   ----------------
Dispersion correction           -0.000235907
-------------------------   ----------------


-------------------------   --------------------
FINAL SINGLE POINT ENERGY      -100.096471567820
-------------------------   --------------------


                            ***************************************
                            *     ORCA property calculations      *
                            ***************************************

                                    ---------------------
                                    Active property flags
                                    ---------------------
   (+) Dipole Moment


------------------------------------------------------------------------------
                       ORCA ELECTRIC PROPERTIES CALCULATION
------------------------------------------------------------------------------

Dipole Moment Calculation                       ... on
Quadrupole Moment Calculation                   ... off
Polarizability Calculation                      ... off
GBWName                                         ... Scan_24.gbw
Electron density file                           ... Scan_24.scfp.tmp

-------------
DIPOLE MOMENT
-------------
                                X             Y             Z
Electronic contribution:     -1.25004       0.00000       0.00000
Nuclear contribution   :      2.67224      -0.00000       0.00000
                        -----------------------------------------
Total Dipole Moment    :      1.42221       0.00000       0.00000
                        -----------------------------------------
Magnitude (a.u.)       :      1.42221
Magnitude (Debye)      :      3.61496


Timings for individual modules:

Sum of individual times         ...        4.004 sec (=   0.067 min)
GTO integral calculation        ...        0.294 sec (=   0.005 min)   7.3 %
SCF iterations                  ...        3.710 sec (=   0.062 min)  92.7 %
                             ****ORCA TERMINATED NORMALLY****
TOTAL RUN TIME: 0 days 0 hours 0 minutes 4 seconds 313 msec
