
                                 *****************
                                 * O   R   C   A *
                                 *****************

           --- An Ab Initio, DFT and Semiempirical electronic structure package ---

                  #######################################################
                  #                        -***-                        #
                  #  Department of molecular theory and spectroscopy    #
                  #              Directorship: Frank Neese              #
                  # Max Planck Institute for Chemical Energy Conversion #
                  #                  D-45470 Muelheim/Ruhr              #
                  #                       Germany                       #
                  #                                                     #
                  #                  All rights reserved                #
                  #                        -***-                        #
                  #######################################################


                         Program Version 4.0.0.2 - RELEASE -


 With contributions from (in alphabetic order):
   Daniel Aravena         : Magnetic Properties
   Michael Atanasov       : Ab Initio Ligand Field Theory
   Ute Becker             : Parallelization
   Martin Brehm           : Molecular dynamics
   Dmytro Bykov           : SCF Hessian
   Vijay G. Chilkuri      : MRCI spin determinant printing
   Dipayan Datta          : RHF DLPNO-CCSD density
   Achintya Kumar Dutta   : EOM-CC, STEOM-CC
   Dmitry Ganyushin       : Spin-Orbit,Spin-Spin,Magnetic field MRCI
   Yang Guo               : DLPNO-NEVPT2, CIM, IAO-localization
   Andreas Hansen         : Spin unrestricted coupled pair/coupled cluster methods
   Lee Huntington         : MR-EOM, pCC
   Robert Izsak           : Overlap fitted RIJCOSX, COSX-SCS-MP3, EOM
   Christian Kollmar      : KDIIS, OOCD, Brueckner-CCSD(T), CCSD density
   Simone Kossmann        : Meta GGA functionals, TD-DFT gradient, OOMP2, MP2 Hessian
   Martin Krupicka        : AUTO-CI
   Dagmar Lenk            : GEPOL surface
   Dimitrios Liakos       : Extrapolation schemes; parallel MDCI
   Dimitrios Manganas     : ROCIS; embedding schemes
   Dimitrios Pantazis     : SARC Basis sets
   Taras Petrenko         : DFT Hessian,TD-DFT gradient, ASA, ECA, R-Raman, ABS, FL, XAS/XES, NRVS
   Peter Pinski           : DLPNO-MP2
   Christoph Reimann      : Effective Core Potentials
   Marius Retegan         : Local ZFS, SOC
   Christoph Riplinger    : Optimizer, TS searches, QM/MM, DLPNO-CCSD(T), (RO)-DLPNO pert. Triples
   Tobias Risthaus        : Range-separated hybrids, TD-DFT gradient, RPA, STAB
   Michael Roemelt        : Restricted open shell CIS
   Masaaki Saitow         : Open-shell DLPNO
   Barbara Sandhoefer     : DKH picture change effects
   Kantharuban Sivalingam : CASSCF convergence, NEVPT2, FIC-MRCI
   Georgi Stoychev        : AutoAux
   Boris Wezisla          : Elementary symmetry handling
   Frank Wennmohs         : Technical directorship


 We gratefully acknowledge several colleagues who have allowed us to
 interface, adapt or use parts of their codes:
   Stefan Grimme, W. Hujo, H. Kruse,             : VdW corrections, initial TS optimization,
                  C. Bannwarth                     DFT functionals, gCP, sTDA/sTD-DF
   Ed Valeev                                     : LibInt (2-el integral package), F12 methods
   Garnet Chan, S. Sharma, J. Yang, R. Olivares  : DMRG
   Ulf Ekstrom                                   : XCFun DFT Library
   Mihaly Kallay                                 : mrcc  (arbitrary order and MRCC methods)
   Jiri Pittner, Ondrej Demel                    : Mk-CCSD
   Frank Weinhold                                : gennbo (NPA and NBO analysis)
   Christopher J. Cramer and Donald G. Truhlar   : smd solvation model


 Your calculation uses the libint2 library for the computation of 2-el integrals
 For citations please refer to: http://libint.valeyev.net

 This ORCA versions uses:
   CBLAS   interface :  Fast vector & matrix operations
   LAPACKE interface :  Fast linear algebra routines
   SCALAPACK package :  Parallel linear algebra routines


Your calculation utilizes the atom-pairwise dispersion correction
with the zero-damping scheme (D30)
Cite in your paper:
S.Grimme, J.Antony, S.Ehrlich and H.Krieg, J.Chem.Phys., 132, (2010), 154104 
   

XCFun DFT library Copyright 2009-2010 Ulf Ekstrom and contributors.
See http://admol.org/xcfun for more information. This is free soft-
ware; see the source code for copying conditions. There is ABSOLUTELY
NO WARRANTY; not even for MERCHANTABILITY or FITNESS FOR A PARTICULAR
PURPOSE. For details see the documentation. Scientific users of this 
library should cite U. Ekstrom, L. Visscher, R. Bast, A. J. Thorvald-
sen and K. Ruud; J.Chem.Theor.Comp. 2010, DOI: 10.1021/ct100117s
XCFun Version 0.99 
Your calculation utilizes the basis: 6-31G(d)
   H-He, Li-Ne : W. J. Hehre, R. Ditchfield and J.A. Pople, J. Chem. Phys. 56, 2257 (1972).
                 Note: He and Ne are unpublished basis sets taken from the Gaussian program.
                 Note: Li and B from J. D. Dill and J. A. Pople, J. Chem. Phys. 62, 2921 (1975).
   Na - Ar     : M. M. Francl, W. J. Pietro, W. J. Hehre, J. S. Binkley, M. S. Gordon, 
                 D. J. DeFrees and J. A. Pople, J. Chem. Phys. 77, 3654 (1982).
   K - Zn      : V. A. Rassolov, J. A. Pople, M. A. Ratner, and T. L. Windus, J. Chem. Phys. 109, 1223 (1998).

================================================================================
                                        WARNINGS
                       Please study these warnings very carefully!
================================================================================

Warning: TCutStore was < 0. Adjusted to Thresh (uncritical)

INFO   : the flag for use of LIBINT has been found!

================================================================================
                                       INPUT FILE
================================================================================
NAME = initial3.inp
|  1> ! WB97X-D3 6-31G(d) VerySlowConv
|  2> ! KDIIS NOSOSCF
|  3> %base "Scan_3"
|  4> 
|  5> %scf
|  6> maxiter 999
|  7> end
|  8> 
|  9> * xyz 0 1
| 10> F         -0.413689585555    0.936930000000   -0.000000000000
| 11> H          0.430239585555    0.936930000000   -0.000000000000
| 12> **                         ****END OF INPUT****
================================================================================

                       ****************************
                       * Single Point Calculation *
                       ****************************

---------------------------------
CARTESIAN COORDINATES (ANGSTROEM)
---------------------------------
  F     -0.413690    0.936930   -0.000000
  H      0.430240    0.936930   -0.000000

----------------------------
CARTESIAN COORDINATES (A.U.)
----------------------------
  NO LB      ZA    FRAG     MASS         X           Y           Z
   0 F     9.0000    0    18.998   -0.781760    1.770541   -0.000000
   1 H     1.0000    0     1.008    0.813035    1.770541   -0.000000

--------------------------------
INTERNAL COORDINATES (ANGSTROEM)
--------------------------------
 F      0   0   0     0.000000000000     0.00000000     0.00000000
 H      1   0   0     0.843929171110     0.00000000     0.00000000

---------------------------
INTERNAL COORDINATES (A.U.)
---------------------------
 F      0   0   0     0.000000000000     0.00000000     0.00000000
 H      1   0   0     1.594795009825     0.00000000     0.00000000

---------------------
BASIS SET INFORMATION
---------------------
There are 2 groups of distinct atoms

 Group   1 Type F   : 10s4p1d contracted to 3s2p1d pattern {631/31/1}
 Group   2 Type H   : 4s contracted to 2s pattern {31}

Atom   0F    basis set group =>   1
Atom   1H    basis set group =>   2
------------------------------------------------------------------------------
                           ORCA GTO INTEGRAL CALCULATION
------------------------------------------------------------------------------

                         BASIS SET STATISTICS AND STARTUP INFO

 # of primitive gaussian shells          ...   19
 # of primitive gaussian functions       ...   31
 # of contracted shells                  ...    8
 # of contracted basis functions         ...   16
 Highest angular momentum                ...    2
 Maximum contraction depth               ...    6
 Integral package used                   ... LIBINT
 Integral threshhold            Thresh   ...  1.000e-10
 Primitive cut-off              TCut     ...  1.000e-11


------------------------------ INTEGRAL EVALUATION ----------------------------


 * One electron integrals 
 Pre-screening matrix                    ... done
 Shell pair data                         ... done (   0.000 sec)

-------------------------------------------------------------------------------
                                 ORCA SCF
-------------------------------------------------------------------------------

------------
SCF SETTINGS
------------
Hamiltonian:
 Density Functional     Method          .... DFT(GTOs)
 Exchange Functional    Exchange        .... WB97X-D3
 Correlation Functional Correlation     .... WB97X-D3
 Gradients option       PostSCFGGA      .... off
 Hybrid DFT is turned on
   Fraction HF Exchange ScalHFX         ....  0.195728
   Scaling of DF-GGA-X  ScalDFX         ....  0.000000
   Scaling of DF-GGA-C  ScalDFC         ....  1.000000
   Scaling of DF-LDA-C  ScalLDAC        ....  1.000000
   Perturbative correction              ....  0.000000
 Long-range corrected/Screened/Range-Separated Hybrid DFT is turned on
   Amount of maximum screened exact exchange              ....  0.804272
   Range separation parameter mu (erf(mu*r12)/r12)        ....  0.250000


General Settings:
 Integral files         IntName         .... Scan_3
 Hartree-Fock type      HFTyp           .... RHF
 Total Charge           Charge          ....    0
 Multiplicity           Mult            ....    1
 Number of Electrons    NEL             ....   10
 Basis Dimension        Dim             ....   16
 Nuclear Repulsion      ENuc            ....      5.6433585160 Eh

Convergence Acceleration:
 DIIS                   CNVDIIS         .... on
   Start iteration      DIISMaxIt       ....     0
   Startup error        DIISStart       ....  0.200000
   # of expansion vecs  DIISMaxEq       ....     5
   Bias factor          DIISBfac        ....   1.050
   Max. coefficient     DIISMaxC        ....  10.000
 Newton-Raphson         CNVNR           .... off
 SOSCF                  CNVSOSCF        .... off
 Level Shifting         CNVShift        .... off
 Zerner damping         CNVZerner       .... off
 Static damping         CNVDamp         .... off
 Fernandez-Rico         CNVRico         .... off

SCF Procedure:
 Maximum # iterations   MaxIter         ....   999
 SCF integral mode      SCFMode         .... Direct
   Integral package                     .... LIBINT
 Reset frequeny         DirectResetFreq ....    20
 Integral Threshold     Thresh          ....  1.000e-10 Eh
 Primitive CutOff       TCut            ....  1.000e-11 Eh

Convergence Tolerance:
 Convergence Check Mode ConvCheckMode   .... All-Criteria
 Convergence forced     ConvForced      .... 0
 Energy Change          TolE            ....  1.000e-06 Eh
 Max Density Change     TolMaxP         ....  1.000e-05
 RMS Density Change     TolRMSP         ....  1.000e-06
 DIIS Error             TolErr          ....  1.000e-06


Diagonalization of the overlap matrix:
Smallest eigenvalue                        ... 7.377e-02
Time for diagonalization                   ...    0.000 sec
Threshold for overlap eigenvalues          ... 1.000e-08
Number of eigenvalues below threshold      ... 0
Time for construction of square roots      ...    0.005 sec
Total time needed                          ...    0.005 sec

-------------------
DFT GRID GENERATION
-------------------

General Integration Accuracy     IntAcc      ...  4.340
Radial Grid Type                 RadialGrid  ... Gauss-Chebyshev
Angular Grid (max. acc.)         AngularGrid ... Lebedev-110
Angular grid pruning method      GridPruning ... 3 (G Style)
Weight generation scheme         WeightScheme... Becke
Basis function cutoff            BFCut       ...    1.0000e-10
Integration weight cutoff        WCut        ...    1.0000e-14
Grids for H and He will be reduced by one unit

# of grid points (after initial pruning)     ...   2534 (   0.0 sec)
# of grid points (after weights+screening)   ...   2507 (   0.0 sec)
nearest neighbour list constructed           ...    0.0 sec
Grid point re-assignment to atoms done       ...    0.0 sec
Grid point division into batches done        ...    0.0 sec
Reduced shell lists constructed in    0.0 sec

Total number of grid points                  ...     2507
Total number of batches                      ...       41
Average number of points per batch           ...       61
Average number of grid points per atom       ...     1254
Average number of shells per batch           ...     7.21 (90.18%)
Average number of basis functions per batch  ...    14.60 (91.22%)
Average number of large shells per batch     ...     6.90 (95.71%)
Average number of large basis fcns per batch ...    14.19 (97.23%)
Maximum spatial batch extension              ...  15.37, 25.65, 25.65 au
Average spatial batch extension              ...   4.79,  7.12,  6.99 au

Time for grid setup =    0.039 sec

------------------------------
INITIAL GUESS: MODEL POTENTIAL
------------------------------
Loading Hartree-Fock densities                     ... done
Calculating cut-offs                               ... done
Setting up the integral package                    ... done
Initializing the effective Hamiltonian             ... done
Starting the Coulomb interaction                   ... done (   0.0 sec)
Reading the grid                                   ... done
Mapping shells                                     ... done
Starting the XC term evaluation                    ... done (   0.0 sec)
  promolecular density results
     # of electrons  =      9.998407362
     EX              =    -10.296390467
     EC              =     -0.331842862
     EX+EC           =    -10.628233328
Transforming the Hamiltonian                       ... done (   0.0 sec)
Diagonalizing the Hamiltonian                      ... done (   0.0 sec)
Back transforming the eigenvectors                 ... done (   0.0 sec)
Now organizing SCF variables                       ... done
                      ------------------
                      INITIAL GUESS DONE (   0.3 sec)
                      ------------------
--------------
SCF ITERATIONS
--------------
ITER       Energy         Delta-E        Max-DP      RMS-DP      [F,P]   Gradient Norm
               ***  Starting incremental Fock matrix formation  ***
                             ****Resetting KDIIS****
                             ****Turning on KDIIS(Cayley)****
  0   -100.3518007777   0.000000000000 0.02074000  0.00266547  0.1179112   0.108118731
  1   -100.3641427152  -0.012341937492 0.01610843  0.00212083  0.0950228   0.087211689
  2   -100.3721742307  -0.008031515554 0.02602842  0.00342505  0.0765226   0.070329481
  3   -100.3815356673  -0.009361436530 0.03842587  0.00512480  0.0464050   0.042910173
  4   -100.3870976419  -0.005561974592 0.00086105  0.00010300  0.0031074   0.002093663
  5   -100.3871062374  -0.000008595484 0.00066025  0.00007535  0.0026139   0.001786654
Warning: badly conditioned DIIS matrix, 1 vectors out of 5 destroyed
  6   -100.3871127297  -0.000006492355 0.00359338  0.00042405  0.0022226   0.001531699
Warning: badly conditioned DIIS matrix, 1 vectors out of 5 destroyed
  7   -100.3871304968  -0.000017767140 0.00002708  0.00000298  0.0000147   0.000011665
                          ***Energy convergence achieved***
                           ***RMSP convergence achieved***
                           ***MAXP convergence achieved***
                    *** KDIIS BlockDiag ( 0.000 sec) ***

               *****************************************************
               *                     SUCCESS                       *
               *           SCF CONVERGED AFTER   8 CYCLES          *
               *****************************************************

Setting up the final grid:

General Integration Accuracy     IntAcc      ...  4.670
Radial Grid Type                 RadialGrid  ... Gauss-Chebyshev
Angular Grid (max. acc.)         AngularGrid ... Lebedev-302
Angular grid pruning method      GridPruning ... 3 (G Style)
Weight generation scheme         WeightScheme... Becke
Basis function cutoff            BFCut       ...    1.0000e-10
Integration weight cutoff        WCut        ...    1.0000e-14
Grids for H and He will be reduced by one unit

# of grid points (after initial pruning)     ...   9666 (   0.0 sec)
# of grid points (after weights+screening)   ...   9635 (   0.0 sec)
nearest neighbour list constructed           ...    0.0 sec
Grid point re-assignment to atoms done       ...    0.0 sec
Grid point division into batches done        ...    0.1 sec
Reduced shell lists constructed in    0.1 sec

Total number of grid points                  ...     9635
Total number of batches                      ...      152
Average number of points per batch           ...       63
Average number of grid points per atom       ...     4818
Average number of shells per batch           ...     6.50 (81.29%)
Average number of basis functions per batch  ...    13.29 (83.05%)
Average number of large shells per batch     ...     6.12 (94.17%)
Average number of large basis fcns per batch ...    12.56 (94.49%)
Maximum spatial batch extension              ...  15.73, 19.94, 19.94 au
Average spatial batch extension              ...   3.35,  3.87,  3.80 au

Final grid set up in    0.1 sec
Final integration                            ... done (   0.2 sec)
Change in XC energy                          ...     0.000276101
Integrated number of electrons               ...     9.999997379
Previous integrated no of electrons          ...     9.995755677

----------------
TOTAL SCF ENERGY
----------------

Total Energy       :         -100.38685440 Eh           -2731.66518 eV

Components:
Nuclear Repulsion  :            5.64335852 Eh             153.56359 eV
Electronic Energy  :         -106.03021291 Eh           -2885.22878 eV
One Electron Energy:         -151.44714396 Eh           -4121.08630 eV
Two Electron Energy:           45.41693105 Eh            1235.85752 eV

Virial components:
Potential Energy   :         -200.59411997 Eh           -5458.44351 eV
Kinetic Energy     :          100.20726558 Eh            2726.77832 eV
Virial Ratio       :            2.00179217


DFT components:
N(Alpha)           :        4.999998689397 electrons
N(Beta)            :        4.999998689397 electrons
N(Total)           :        9.999997378794 electrons
E(XC)              :       -7.738610153054 Eh       

---------------
SCF CONVERGENCE
---------------

  Last Energy change         ...   -6.6134e-10  Tolerance :   1.0000e-06
  Last MAX-Density change    ...    3.0661e-06  Tolerance :   1.0000e-05
  Last RMS-Density change    ...    3.7972e-07  Tolerance :   1.0000e-06
  Last DIIS Error            ...    2.4485e-06  Tolerance :   1.0000e-06

             **** THE GBW FILE WAS UPDATED (Scan_3.gbw) ****
             **** DENSITY FILE WAS UPDATED (Scan_3.scfp.tmp) ****
             **** ENERGY FILE WAS UPDATED (Scan_3.en.tmp) ****
----------------
ORBITAL ENERGIES
----------------

  NO   OCC          E(Eh)            E(eV) 
   0   2.0000     -24.756411      -673.6562 
   1   2.0000      -1.315286       -35.7908 
   2   2.0000      -0.642563       -17.4850 
   3   2.0000      -0.488006       -13.2793 
   4   2.0000      -0.488006       -13.2793 
   5   0.0000       0.202527         5.5110 
   6   0.0000       1.019104        27.7312 
   7   0.0000       1.286446        35.0060 
   8   0.0000       1.286446        35.0060 
   9   0.0000       1.349425        36.7197 
  10   0.0000       1.781271        48.4708 
  11   0.0000       1.884373        51.2764 
  12   0.0000       1.884373        51.2764 
  13   0.0000       1.961703        53.3806 
  14   0.0000       1.962999        53.4159 
  15   0.0000       2.901164        78.9447 

                    ********************************
                    * MULLIKEN POPULATION ANALYSIS *
                    ********************************

-----------------------
MULLIKEN ATOMIC CHARGES
-----------------------
   0 F :   -0.495119
   1 H :    0.495119
Sum of atomic charges:    0.0000000

--------------------------------
MULLIKEN REDUCED ORBITAL CHARGES
--------------------------------
  0 F s       :     3.950137  s :     3.950137
      pz      :     1.997688  p :     5.527646
      px      :     1.532270
      py      :     1.997688
      dz2     :     0.003178  d :     0.017336
      dxz     :     0.002312
      dyz     :     0.000000
      dx2y2   :     0.009535
      dxy     :     0.002312
  1 H s       :     0.504881  s :     0.504881


                     *******************************
                     * LOEWDIN POPULATION ANALYSIS *
                     *******************************

----------------------
LOEWDIN ATOMIC CHARGES
----------------------
   0 F :   -0.370787
   1 H :    0.370787

-------------------------------
LOEWDIN REDUCED ORBITAL CHARGES
-------------------------------
  0 F s       :     3.794947  s :     3.794947
      pz      :     1.997688  p :     5.553554
      px      :     1.558177
      py      :     1.997688
      dz2     :     0.004416  d :     0.022285
      dxz     :     0.002312
      dyz     :     0.000000
      dx2y2   :     0.013247
      dxy     :     0.002312
  1 H s       :     0.629213  s :     0.629213


                      *****************************
                      * MAYER POPULATION ANALYSIS *
                      *****************************

  NA   - Mulliken gross atomic population
  ZA   - Total nuclear charge
  QA   - Mulliken gross atomic charge
  VA   - Mayer's total valence
  BVA  - Mayer's bonded valence
  FA   - Mayer's free valence

  ATOM       NA         ZA         QA         VA         BVA        FA
  0 F      9.4951     9.0000    -0.4951     0.7291     0.7291     0.0000
  1 H      0.5049     1.0000     0.4951     0.7291     0.7291    -0.0000

  Mayer bond orders larger than 0.1
B(  0-F ,  1-H ) :   0.7291 

-------
TIMINGS
-------

Total SCF time: 0 days 0 hours 0 min 7 sec 

Total time                  ....       7.529 sec
Sum of individual times     ....       7.133 sec  ( 94.7%)

Fock matrix formation       ....       6.408 sec  ( 85.1%)
  XC integration            ....       1.127 sec  ( 17.6% of F)
    Basis function eval.    ....       0.080 sec  (  7.1% of XC)
    Density eval.           ....       0.025 sec  (  2.3% of XC)
    XC-Functional eval.     ....       0.169 sec  ( 15.0% of XC)
    XC-Potential eval.      ....       0.007 sec  (  0.6% of XC)
Diagonalization             ....       0.123 sec  (  1.6%)
Density matrix formation    ....       0.000 sec  (  0.0%)
Population analysis         ....       0.150 sec  (  2.0%)
Initial guess               ....       0.301 sec  (  4.0%)
Orbital Transformation      ....       0.000 sec  (  0.0%)
Orbital Orthonormalization  ....       0.000 sec  (  0.0%)
DIIS solution               ....       0.000 sec  (  0.0%)
Grid generation             ....       0.151 sec  (  2.0%)


-------------------------------------------------------------------------------
                          DFT DISPERSION CORRECTION                            
                                                                               
                              DFTD3 V3.1  Rev 1                                
                              USING zero damping                               
-------------------------------------------------------------------------------
The omegaB97X-D3 functional is recognized. Fit by Chai et al.
Active option DFTDOPT                   ...         3   

molecular C6(AA) [au] = 18.908490 


            DFT-D V3
 parameters
 s6 scaling factor         :     1.0000 
 rs6 scaling factor        :     1.2810 
 s8 scaling factor         :     1.0000 
 rs8 scaling factor        :     1.0940 
 Damping factor alpha6     :    14.0000 
 Damping factor alpha8     :    16.0000 
 ad hoc parameters k1-k3   :    16.0000     1.3333    -4.0000 

 Edisp/kcal,au: -0.000025530606  -0.000000040686 
 E6   /kcal   :  -0.000003117 
 E8   /kcal   :  -0.000022414 
 % E8         :  87.790892436 

-------------------------   ----------------
Dispersion correction           -0.000000041
-------------------------   ----------------


-------------------------   --------------------
FINAL SINGLE POINT ENERGY      -100.386854437614
-------------------------   --------------------


                            ***************************************
                            *     ORCA property calculations      *
                            ***************************************

                                    ---------------------
                                    Active property flags
                                    ---------------------
   (+) Dipole Moment


------------------------------------------------------------------------------
                       ORCA ELECTRIC PROPERTIES CALCULATION
------------------------------------------------------------------------------

Dipole Moment Calculation                       ... on
Quadrupole Moment Calculation                   ... off
Polarizability Calculation                      ... off
GBWName                                         ... Scan_3.gbw
Electron density file                           ... Scan_3.scfp.tmp

-------------
DIPOLE MOMENT
-------------
                                X             Y             Z
Electronic contribution:     -0.09441      -0.00000      -0.00000
Nuclear contribution   :      0.79126      -0.00000       0.00000
                        -----------------------------------------
Total Dipole Moment    :      0.69685      -0.00000      -0.00000
                        -----------------------------------------
Magnitude (a.u.)       :      0.69685
Magnitude (Debye)      :      1.77125


Timings for individual modules:

Sum of individual times         ...        9.213 sec (=   0.154 min)
GTO integral calculation        ...        1.434 sec (=   0.024 min)  15.6 %
SCF iterations                  ...        7.778 sec (=   0.130 min)  84.4 %
                             ****ORCA TERMINATED NORMALLY****
TOTAL RUN TIME: 0 days 0 hours 0 minutes 10 seconds 536 msec
