3
Point_1/orca1.out	Energy:     -93.3265541
C         -3.46261        0.40136       -0.00000
N         -2.44703        0.43136        0.00000
H         -4.53014        0.36981       -0.00000
