3
Point_10/orca10.out	Energy:     -93.3755299
C         -3.53899        0.39910        0.00000
N         -2.30757        0.43549        0.00000
H         -4.59321        0.36795        0.00000
