3
Point_11/orca11.out	Energy:     -93.3582627
C         -3.55539        0.39861        0.00000
N         -2.27584        0.43642        0.00000
H         -4.60854        0.36749        0.00000
