3
Point_12/orca12.out	Energy:     -93.3297081
C         -3.57606        0.39800        0.00000
N         -2.23536        0.43762        0.00000
H         -4.62836        0.36691        0.00000
