3
Point_13/orca13.out	Energy:     -93.2845240
C         -3.60347        0.39719       -0.00000
N         -2.18074        0.43923        0.00000
H         -4.65557        0.36610        0.00000
