3
Point_14/orca14.out	Energy:     -93.2159927
C         -3.64155        0.39607       -0.00000
N         -2.10361        0.44151        0.00000
H         -4.69462        0.36495        0.00000
