3
Point_15/orca15.out	Energy:     -93.1273076
C         -3.69185        0.39458        0.00000
N         -2.00120        0.44454        0.00000
H         -4.74673        0.36341        0.00000
