3
Point_16/orca16.out	Energy:     -93.0445395
C         -3.74408        0.39304        0.00000
N         -1.89176        0.44777        0.00000
H         -4.80394        0.36172       -0.00000
