3
Point_17/orca17.out	Energy:     -92.9817191
C         -3.79196        0.39162        0.00000
N         -1.79037        0.45077        0.00000
H         -4.85745        0.36014       -0.00000
