3
Point_18/orca18.out	Energy:     -92.9342345
C         -3.83689        0.39030        0.00000
N         -1.69060        0.45372        0.00000
H         -4.91229        0.35852        0.00000
