3
Point_19/orca19.out	Energy:     -92.8996878
C         -3.87894        0.38905        0.00000
N         -1.59323        0.45659        0.00000
H         -4.96760        0.35688        0.00000
