3
Point_2/orca2.out	Energy:     -93.3408690
C         -3.46807        0.40119       -0.00000
N         -2.43757        0.43164        0.00000
H         -4.53413        0.36969       -0.00000
