3
Point_20/orca20.out	Energy:     -92.8759650
C         -3.91747        0.38791        0.00000
N         -1.50675        0.45915        0.00000
H         -5.01556        0.35547        0.00000
