3
Point_21/orca21.out	Energy:     -92.8586087
C         -3.95366        0.38684        0.00000
N         -1.42808        0.46147        0.00000
H         -5.05804        0.35421        0.00000
