3
Point_22/orca22.out	Energy:     -92.8448722
C         -3.98997        0.38577        0.00000
N         -1.35447        0.46365        0.00000
H         -5.09535        0.35311        0.00000
