3
Point_23/orca23.out	Energy:     -92.8337160
C         -4.02464        0.38474       -0.00000
N         -1.28235        0.46578        0.00000
H         -5.13279        0.35201       -0.00000
