3
Point_24/orca24.out	Energy:     -92.8243880
C         -4.05930        0.38372        0.00000
N         -1.21205        0.46785        0.00000
H         -5.16843        0.35096       -0.00000
