3
Point_25/orca25.out	Energy:     -92.8163967
C         -4.09374        0.38270        0.00000
N         -1.14261        0.46990        0.00000
H         -5.20343        0.34993        0.00000
