3
Point_26/orca26.out	Energy:     -92.6442109
C         -4.12803        0.38168        0.00000
N         -1.07371        0.47194        0.00000
H         -5.23804        0.34891       -0.00000
