3
Point_27/orca27.out	Energy:     -92.6403950
C         -4.16223        0.38067       -0.00000
N         -1.00513        0.47396        0.00000
H         -5.27241        0.34789        0.00000
