3
Point_28/orca28.out	Energy:     -92.7980838
C         -4.19639        0.37966        0.00000
N         -0.93673        0.47598        0.00000
H         -5.30666        0.34688        0.00000
