3
Point_29/orca29.out	Energy:     -92.6332851
C         -4.23051        0.37865        0.00000
N         -0.86843        0.47800        0.00000
H         -5.34083        0.34588       -0.00000
