3
Point_3/orca3.out	Energy:     -93.3539344
C         -3.47403        0.40102       -0.00000
N         -2.42722        0.43195        0.00000
H         -4.53853        0.36956       -0.00000
