3
Point_30/orca30.out	Energy:     -92.6299843
C         -4.26462        0.37764        0.00000
N         -0.80020        0.48002        0.00000
H         -5.37496        0.34487       -0.00000
