3
Point_31/orca31.out	Energy:     -92.6268650
C         -4.29871        0.37663        0.00000
N         -0.73201        0.48203        0.00000
H         -5.40906        0.34387       -0.00000
