3
Point_32/orca32.out	Energy:     -92.6240313
C         -4.33280        0.37562        0.00000
N         -0.66384        0.48405       -0.00000
H         -5.44314        0.34286        0.00000
