3
Point_33/orca33.out	Energy:     -92.6226096
C         -4.36688        0.37461       -0.00000
N         -0.59568        0.48606       -0.00000
H         -5.47721        0.34186        0.00000
