3
Point_34/orca34.out	Energy:     -92.6205092
C         -4.40097        0.37360       -0.00000
N         -0.52753        0.48807       -0.00000
H         -5.51128        0.34085        0.00000
