3
Point_35/orca35.out	Energy:     -92.6345877
C         -4.43505        0.37259        0.00000
N         -0.45938        0.49009        0.00000
H         -5.54535        0.33985        0.00000
