3
Point_36/orca36.out	Energy:     -92.6184197
C         -4.46913        0.37158       -0.00000
N         -0.39123        0.49210       -0.00000
H         -5.57942        0.33885        0.00000
