3
Point_37/orca37.out	Energy:     -92.6275427
C         -4.50320        0.37057        0.00000
N         -0.32309        0.49411        0.00000
H         -5.61349        0.33784       -0.00000
