3
Point_38/orca38.out	Energy:     -92.6133322
C         -4.53728        0.36956        0.00000
N         -0.25494        0.49612        0.00000
H         -5.64756        0.33684       -0.00000
