3
Point_39/orca39.out	Energy:     -92.6109826
C         -4.57136        0.36855       -0.00000
N         -0.18679        0.49814        0.00000
H         -5.68163        0.33584        0.00000
