3
Point_4/orca4.out	Energy:     -93.3654145
C         -3.48050        0.40083       -0.00000
N         -2.41583        0.43229        0.00000
H         -4.54345        0.36942       -0.00000
