3
Point_40/orca40.out	Energy:     -92.6086176
C         -4.60544        0.36754        0.00000
N         -0.11864        0.50015        0.00000
H         -5.71570        0.33484       -0.00000
