3
Point_41/orca41.out	Energy:     -92.6062758
C         -4.63952        0.36653        0.00000
N         -0.05049        0.50216        0.00000
H         -5.74977        0.33384       -0.00000
