3
Point_42/orca42.out	Energy:     -92.6041794
C         -4.67360        0.36552        0.00000
N          0.01766        0.50418        0.00000
H         -5.78384        0.33284       -0.00000
