3
Point_43/orca43.out	Energy:     -92.6020227
C         -4.70768        0.36451        0.00000
N          0.08581        0.50619        0.00000
H         -5.81791        0.33183       -0.00000
