3
Point_44/orca44.out	Energy:     -92.6001430
C         -4.74176        0.36349       -0.00000
N          0.15396        0.50820       -0.00000
H         -5.85198        0.33083        0.00000
