3
Point_45/orca45.out	Energy:     -92.5982525
C         -4.77583        0.36248        0.00000
N          0.22211        0.51021        0.00000
H         -5.88605        0.32984       -0.00000
