3
Point_5/orca5.out	Energy:     -93.3750231
C         -3.48758        0.40062        0.00000
N         -2.40322        0.43266        0.00000
H         -4.54898        0.36925       -0.00000
