3
Point_6/orca6.out	Energy:     -93.3823751
C         -3.49540        0.40039        0.00000
N         -2.38910        0.43308       -0.00000
H         -4.55528        0.36907       -0.00000
