3
Point_7/orca7.out	Energy:     -93.3869300
C         -3.50412        0.40013        0.00000
N         -2.37326        0.43354        0.00000
H         -4.56239        0.36886       -0.00000
