3
Point_8/orca8.out	Energy:     -93.3880664
C         -3.51404        0.39983        0.00000
N         -2.35480        0.43409        0.00000
H         -4.57093        0.36861       -0.00000
