3
Point_9/orca9.out	Energy:     -93.3847243
C         -3.52552        0.39950        0.00000
N         -2.33319        0.43473        0.00000
H         -4.58107        0.36831       -0.00000
