
                                 *****************
                                 * O   R   C   A *
                                 *****************

           --- An Ab Initio, DFT and Semiempirical electronic structure package ---

                  #######################################################
                  #                        -***-                        #
                  #  Department of molecular theory and spectroscopy    #
                  #              Directorship: Frank Neese              #
                  # Max Planck Institute for Chemical Energy Conversion #
                  #                  D-45470 Muelheim/Ruhr              #
                  #                       Germany                       #
                  #                                                     #
                  #                  All rights reserved                #
                  #                        -***-                        #
                  #######################################################


                         Program Version 4.0.0.2 - RELEASE -


 With contributions from (in alphabetic order):
   Daniel Aravena         : Magnetic Properties
   Michael Atanasov       : Ab Initio Ligand Field Theory
   Ute Becker             : Parallelization
   Martin Brehm           : Molecular dynamics
   Dmytro Bykov           : SCF Hessian
   Vijay G. Chilkuri      : MRCI spin determinant printing
   Dipayan Datta          : RHF DLPNO-CCSD density
   Achintya Kumar Dutta   : EOM-CC, STEOM-CC
   Dmitry Ganyushin       : Spin-Orbit,Spin-Spin,Magnetic field MRCI
   Yang Guo               : DLPNO-NEVPT2, CIM, IAO-localization
   Andreas Hansen         : Spin unrestricted coupled pair/coupled cluster methods
   Lee Huntington         : MR-EOM, pCC
   Robert Izsak           : Overlap fitted RIJCOSX, COSX-SCS-MP3, EOM
   Christian Kollmar      : KDIIS, OOCD, Brueckner-CCSD(T), CCSD density
   Simone Kossmann        : Meta GGA functionals, TD-DFT gradient, OOMP2, MP2 Hessian
   Martin Krupicka        : AUTO-CI
   Dagmar Lenk            : GEPOL surface
   Dimitrios Liakos       : Extrapolation schemes; parallel MDCI
   Dimitrios Manganas     : ROCIS; embedding schemes
   Dimitrios Pantazis     : SARC Basis sets
   Taras Petrenko         : DFT Hessian,TD-DFT gradient, ASA, ECA, R-Raman, ABS, FL, XAS/XES, NRVS
   Peter Pinski           : DLPNO-MP2
   Christoph Reimann      : Effective Core Potentials
   Marius Retegan         : Local ZFS, SOC
   Christoph Riplinger    : Optimizer, TS searches, QM/MM, DLPNO-CCSD(T), (RO)-DLPNO pert. Triples
   Tobias Risthaus        : Range-separated hybrids, TD-DFT gradient, RPA, STAB
   Michael Roemelt        : Restricted open shell CIS
   Masaaki Saitow         : Open-shell DLPNO
   Barbara Sandhoefer     : DKH picture change effects
   Kantharuban Sivalingam : CASSCF convergence, NEVPT2, FIC-MRCI
   Georgi Stoychev        : AutoAux
   Boris Wezisla          : Elementary symmetry handling
   Frank Wennmohs         : Technical directorship


 We gratefully acknowledge several colleagues who have allowed us to
 interface, adapt or use parts of their codes:
   Stefan Grimme, W. Hujo, H. Kruse,             : VdW corrections, initial TS optimization,
                  C. Bannwarth                     DFT functionals, gCP, sTDA/sTD-DF
   Ed Valeev                                     : LibInt (2-el integral package), F12 methods
   Garnet Chan, S. Sharma, J. Yang, R. Olivares  : DMRG
   Ulf Ekstrom                                   : XCFun DFT Library
   Mihaly Kallay                                 : mrcc  (arbitrary order and MRCC methods)
   Jiri Pittner, Ondrej Demel                    : Mk-CCSD
   Frank Weinhold                                : gennbo (NPA and NBO analysis)
   Christopher J. Cramer and Donald G. Truhlar   : smd solvation model


 Your calculation uses the libint2 library for the computation of 2-el integrals
 For citations please refer to: http://libint.valeyev.net

 This ORCA versions uses:
   CBLAS   interface :  Fast vector & matrix operations
   LAPACKE interface :  Fast linear algebra routines
   SCALAPACK package :  Parallel linear algebra routines


Your calculation utilizes the atom-pairwise dispersion correction
with the zero-damping scheme (D30)
Cite in your paper:
S.Grimme, J.Antony, S.Ehrlich and H.Krieg, J.Chem.Phys., 132, (2010), 154104 
   

XCFun DFT library Copyright 2009-2010 Ulf Ekstrom and contributors.
See http://admol.org/xcfun for more information. This is free soft-
ware; see the source code for copying conditions. There is ABSOLUTELY
NO WARRANTY; not even for MERCHANTABILITY or FITNESS FOR A PARTICULAR
PURPOSE. For details see the documentation. Scientific users of this 
library should cite U. Ekstrom, L. Visscher, R. Bast, A. J. Thorvald-
sen and K. Ruud; J.Chem.Theor.Comp. 2010, DOI: 10.1021/ct100117s
XCFun Version 0.99 
Your calculation utilizes the basis: 6-31G(d)
   H-He, Li-Ne : W. J. Hehre, R. Ditchfield and J.A. Pople, J. Chem. Phys. 56, 2257 (1972).
                 Note: He and Ne are unpublished basis sets taken from the Gaussian program.
                 Note: Li and B from J. D. Dill and J. A. Pople, J. Chem. Phys. 62, 2921 (1975).
   Na - Ar     : M. M. Francl, W. J. Pietro, W. J. Hehre, J. S. Binkley, M. S. Gordon, 
                 D. J. DeFrees and J. A. Pople, J. Chem. Phys. 77, 3654 (1982).
   K - Zn      : V. A. Rassolov, J. A. Pople, M. A. Ratner, and T. L. Windus, J. Chem. Phys. 109, 1223 (1998).

================================================================================
                                        WARNINGS
                       Please study these warnings very carefully!
================================================================================

Warning: TCutStore was < 0. Adjusted to Thresh (uncritical)

INFO   : the flag for use of LIBINT has been found!

================================================================================
                                       INPUT FILE
================================================================================
NAME = initial11.inp
|  1> ! WB97X-D3 6-31G(d) VerySlowConv
|  2> ! KDIIS NOSOSCF
|  3> %base "Scan_11"
|  4> 
|  5> %scf
|  6> maxiter 999
|  7> end
|  8> 
|  9> * xyz 0 1
| 10> O         -0.215757222625    1.431958967565   -0.146418732856
| 11> H          1.189214473888    1.544713620839   -0.034069474271
| 12> H         -0.534017251263    2.407867411596    0.825998207126
| 13> **                         ****END OF INPUT****
================================================================================

                       ****************************
                       * Single Point Calculation *
                       ****************************

---------------------------------
CARTESIAN COORDINATES (ANGSTROEM)
---------------------------------
  O     -0.215757    1.431959   -0.146419
  H      1.189214    1.544714   -0.034069
  H     -0.534017    2.407867    0.825998

----------------------------
CARTESIAN COORDINATES (A.U.)
----------------------------
  NO LB      ZA    FRAG     MASS         X           Y           Z
   0 O     8.0000    0    15.999   -0.407722    2.706010   -0.276691
   1 H     1.0000    0     1.008    2.247290    2.919086   -0.064382
   2 H     1.0000    0     1.008   -1.009146    4.550210    1.560910

--------------------------------
INTERNAL COORDINATES (ANGSTROEM)
--------------------------------
 O      0   0   0     0.000000000000     0.00000000     0.00000000
 H      1   0   0     1.413959488720     0.00000000     0.00000000
 H      1   2   0     1.413959490977    96.54421075     0.00000000

---------------------------
INTERNAL COORDINATES (A.U.)
---------------------------
 O      0   0   0     0.000000000000     0.00000000     0.00000000
 H      1   0   0     2.671996198141     0.00000000     0.00000000
 H      1   2   0     2.671996202405    96.54421075     0.00000000

---------------------
BASIS SET INFORMATION
---------------------
There are 2 groups of distinct atoms

 Group   1 Type O   : 10s4p1d contracted to 3s2p1d pattern {631/31/1}
 Group   2 Type H   : 4s contracted to 2s pattern {31}

Atom   0O    basis set group =>   1
Atom   1H    basis set group =>   2
Atom   2H    basis set group =>   2
------------------------------------------------------------------------------
                           ORCA GTO INTEGRAL CALCULATION
------------------------------------------------------------------------------

                         BASIS SET STATISTICS AND STARTUP INFO

 # of primitive gaussian shells          ...   23
 # of primitive gaussian functions       ...   35
 # of contracted shells                  ...   10
 # of contracted basis functions         ...   18
 Highest angular momentum                ...    2
 Maximum contraction depth               ...    6
 Integral package used                   ... LIBINT
 Integral threshhold            Thresh   ...  1.000e-10
 Primitive cut-off              TCut     ...  1.000e-11


------------------------------ INTEGRAL EVALUATION ----------------------------


 * One electron integrals 
 Pre-screening matrix                    ... done
 Shell pair data                         ... done (   0.000 sec)

-------------------------------------------------------------------------------
                                 ORCA SCF
-------------------------------------------------------------------------------

------------
SCF SETTINGS
------------
Hamiltonian:
 Density Functional     Method          .... DFT(GTOs)
 Exchange Functional    Exchange        .... WB97X-D3
 Correlation Functional Correlation     .... WB97X-D3
 Gradients option       PostSCFGGA      .... off
 Hybrid DFT is turned on
   Fraction HF Exchange ScalHFX         ....  0.195728
   Scaling of DF-GGA-X  ScalDFX         ....  0.000000
   Scaling of DF-GGA-C  ScalDFC         ....  1.000000
   Scaling of DF-LDA-C  ScalLDAC        ....  1.000000
   Perturbative correction              ....  0.000000
 Long-range corrected/Screened/Range-Separated Hybrid DFT is turned on
   Amount of maximum screened exact exchange              ....  0.804272
   Range separation parameter mu (erf(mu*r12)/r12)        ....  0.250000


General Settings:
 Integral files         IntName         .... Scan_11
 Hartree-Fock type      HFTyp           .... RHF
 Total Charge           Charge          ....    0
 Multiplicity           Mult            ....    1
 Number of Electrons    NEL             ....   10
 Basis Dimension        Dim             ....   18
 Nuclear Repulsion      ENuc            ....      6.2387660170 Eh

Convergence Acceleration:
 DIIS                   CNVDIIS         .... on
   Start iteration      DIISMaxIt       ....     0
   Startup error        DIISStart       ....  0.200000
   # of expansion vecs  DIISMaxEq       ....     5
   Bias factor          DIISBfac        ....   1.050
   Max. coefficient     DIISMaxC        ....  10.000
 Newton-Raphson         CNVNR           .... off
 SOSCF                  CNVSOSCF        .... off
 Level Shifting         CNVShift        .... off
 Zerner damping         CNVZerner       .... off
 Static damping         CNVDamp         .... off
 Fernandez-Rico         CNVRico         .... off

SCF Procedure:
 Maximum # iterations   MaxIter         ....   999
 SCF integral mode      SCFMode         .... Direct
   Integral package                     .... LIBINT
 Reset frequeny         DirectResetFreq ....    20
 Integral Threshold     Thresh          ....  1.000e-10 Eh
 Primitive CutOff       TCut            ....  1.000e-11 Eh

Convergence Tolerance:
 Convergence Check Mode ConvCheckMode   .... All-Criteria
 Convergence forced     ConvForced      .... 0
 Energy Change          TolE            ....  1.000e-06 Eh
 Max Density Change     TolMaxP         ....  1.000e-05
 RMS Density Change     TolRMSP         ....  1.000e-06
 DIIS Error             TolErr          ....  1.000e-06


Diagonalization of the overlap matrix:
Smallest eigenvalue                        ... 1.354e-01
Time for diagonalization                   ...    0.000 sec
Threshold for overlap eigenvalues          ... 1.000e-08
Number of eigenvalues below threshold      ... 0
Time for construction of square roots      ...    0.005 sec
Total time needed                          ...    0.005 sec

-------------------
DFT GRID GENERATION
-------------------

General Integration Accuracy     IntAcc      ...  4.340
Radial Grid Type                 RadialGrid  ... Gauss-Chebyshev
Angular Grid (max. acc.)         AngularGrid ... Lebedev-110
Angular grid pruning method      GridPruning ... 3 (G Style)
Weight generation scheme         WeightScheme... Becke
Basis function cutoff            BFCut       ...    1.0000e-10
Integration weight cutoff        WCut        ...    1.0000e-14
Grids for H and He will be reduced by one unit

# of grid points (after initial pruning)     ...   3304 (   0.0 sec)
# of grid points (after weights+screening)   ...   3283 (   0.0 sec)
nearest neighbour list constructed           ...    0.0 sec
Grid point re-assignment to atoms done       ...    0.0 sec
Grid point division into batches done        ...    0.0 sec
Reduced shell lists constructed in    0.0 sec

Total number of grid points                  ...     3283
Total number of batches                      ...       53
Average number of points per batch           ...       61
Average number of grid points per atom       ...     1094
Average number of shells per batch           ...     9.06 (90.56%)
Average number of basis functions per batch  ...    16.54 (91.87%)
Average number of large shells per batch     ...     8.54 (94.27%)
Average number of large basis fcns per batch ...    15.76 (95.30%)
Maximum spatial batch extension              ...  18.68, 20.95, 25.65 au
Average spatial batch extension              ...   5.13,  5.60,  5.48 au

Time for grid setup =    0.016 sec

------------------------------
INITIAL GUESS: MODEL POTENTIAL
------------------------------
Loading Hartree-Fock densities                     ... done
Calculating cut-offs                               ... done
Setting up the integral package                    ... done
Initializing the effective Hamiltonian             ... done
Starting the Coulomb interaction                   ... done (   0.0 sec)
Reading the grid                                   ... done
Mapping shells                                     ... done
Starting the XC term evaluation                    ... done (   0.0 sec)
  promolecular density results
     # of electrons  =      9.999881128
     EX              =     -8.594235159
     EC              =     -0.298278794
     EX+EC           =     -8.892513953
Transforming the Hamiltonian                       ... done (   0.0 sec)
Diagonalizing the Hamiltonian                      ... done (   0.0 sec)
Back transforming the eigenvectors                 ... done (   0.0 sec)
Now organizing SCF variables                       ... done
                      ------------------
                      INITIAL GUESS DONE (   0.1 sec)
                      ------------------
--------------
SCF ITERATIONS
--------------
ITER       Energy         Delta-E        Max-DP      RMS-DP      [F,P]   Gradient Norm
               ***  Starting incremental Fock matrix formation  ***
                             ****Resetting KDIIS****
                             ****Turning on KDIIS(Cayley)****
  0    -76.1078060744   0.000000000000 0.03688552  0.00420348  0.1710113   0.158544947
  1    -76.1495971448  -0.041791070433 0.05702729  0.00744930  0.1419347   0.123977663
  2    -76.2000369736  -0.050439828740 0.09366465  0.01393281  0.0879217   0.075327074
  3    -76.2252130370  -0.025176063398 0.04503528  0.00625298  0.0348220   0.031352203
  4    -76.2226474411   0.002565595834 0.02177648  0.00285820  0.0349833   0.022096540
  5    -76.2260295741  -0.003382132965 0.03152478  0.00428418  0.0245840   0.015436492
  6    -76.2289543864  -0.002924812353 0.01896001  0.00266191  0.0099802   0.006131833
  7    -76.2294941852  -0.000539798754 0.00023989  0.00003070  0.0001623   0.000136394
                          ***Energy convergence achieved***
  8    -76.2294943107  -0.000000125471 0.00005446  0.00000856  0.0000436   0.000031341
                           ***MAXP convergence achieved***

            ***Energy convergence in two consecutive cycles with***
                    ***'reasonable' density convergence***
                       *** signaling convergence ***

                    *** KDIIS BlockDiag ( 0.000 sec) ***

               *****************************************************
               *                     SUCCESS                       *
               *           SCF CONVERGED AFTER   9 CYCLES          *
               *****************************************************

Setting up the final grid:

General Integration Accuracy     IntAcc      ...  4.670
Radial Grid Type                 RadialGrid  ... Gauss-Chebyshev
Angular Grid (max. acc.)         AngularGrid ... Lebedev-302
Angular grid pruning method      GridPruning ... 3 (G Style)
Weight generation scheme         WeightScheme... Becke
Basis function cutoff            BFCut       ...    1.0000e-10
Integration weight cutoff        WCut        ...    1.0000e-14
Grids for H and He will be reduced by one unit

# of grid points (after initial pruning)     ...  13000 (   0.0 sec)
# of grid points (after weights+screening)   ...  12917 (   0.0 sec)
nearest neighbour list constructed           ...    0.0 sec
Grid point re-assignment to atoms done       ...    0.0 sec
Grid point division into batches done        ...    0.0 sec
Reduced shell lists constructed in    0.1 sec

Total number of grid points                  ...    12917
Total number of batches                      ...      203
Average number of points per batch           ...       63
Average number of grid points per atom       ...     4306
Average number of shells per batch           ...     8.23 (82.30%)
Average number of basis functions per batch  ...    15.08 (83.80%)
Average number of large shells per batch     ...     7.66 (93.09%)
Average number of large basis fcns per batch ...    14.13 (93.70%)
Maximum spatial batch extension              ...  15.69, 16.88, 16.88 au
Average spatial batch extension              ...   3.30,  3.53,  3.51 au

Final grid set up in    0.1 sec
Final integration                            ... done (   0.1 sec)
Change in XC energy                          ...     0.000001636
Integrated number of electrons               ...     9.999981669
Previous integrated no of electrons          ...     9.997880345

----------------
TOTAL SCF ENERGY
----------------

Total Energy       :          -76.22949268 Eh           -2074.30995 eV

Components:
Nuclear Repulsion  :            6.23876602 Eh             169.76545 eV
Electronic Energy  :          -82.46825870 Eh           -2244.07541 eV
One Electron Energy:         -117.45245065 Eh           -3196.04367 eV
Two Electron Energy:           34.98419195 Eh             951.96826 eV

Virial components:
Potential Energy   :         -151.38462342 Eh           -4119.38503 eV
Kinetic Energy     :           75.15513074 Eh            2045.07508 eV
Virial Ratio       :            2.01429526


DFT components:
N(Alpha)           :        4.999990834327 electrons
N(Beta)            :        4.999990834327 electrons
N(Total)           :        9.999981668654 electrons
E(XC)              :       -6.267949229314 Eh       

---------------
SCF CONVERGENCE
---------------

  Last Energy change         ...   -7.6149e-09  Tolerance :   1.0000e-06
  Last MAX-Density change    ...    8.3394e-06  Tolerance :   1.0000e-05
  Last RMS-Density change    ...    1.3971e-06  Tolerance :   1.0000e-06
  Last DIIS Error            ...    5.3367e-06  Tolerance :   1.0000e-06

             **** THE GBW FILE WAS UPDATED (Scan_11.gbw) ****
             **** DENSITY FILE WAS UPDATED (Scan_11.scfp.tmp) ****
             **** ENERGY FILE WAS UPDATED (Scan_11.en.tmp) ****
----------------
ORBITAL ENERGIES
----------------

  NO   OCC          E(Eh)            E(eV) 
   0   2.0000     -19.302989      -525.2610 
   1   2.0000      -1.009781       -27.4775 
   2   2.0000      -0.486882       -13.2487 
   3   2.0000      -0.453556       -12.3419 
   4   2.0000      -0.381795       -10.3892 
   5   0.0000       0.025224         0.6864 
   6   0.0000       0.068395         1.8611 
   7   0.0000       0.776705        21.1352 
   8   0.0000       0.823829        22.4175 
   9   0.0000       0.998602        27.1734 
  10   0.0000       1.069300        29.0971 
  11   0.0000       1.130038        30.7499 
  12   0.0000       1.370416        37.2909 
  13   0.0000       1.884153        51.2704 
  14   0.0000       1.909536        51.9611 
  15   0.0000       1.917172        52.1689 
  16   0.0000       2.010556        54.7100 
  17   0.0000       2.075047        56.4649 

                    ********************************
                    * MULLIKEN POPULATION ANALYSIS *
                    ********************************

-----------------------
MULLIKEN ATOMIC CHARGES
-----------------------
   0 O :   -0.532975
   1 H :    0.266112
   2 H :    0.266863
Sum of atomic charges:   -0.0000000

--------------------------------
MULLIKEN REDUCED ORBITAL CHARGES
--------------------------------
  0 O s       :     3.977119  s :     3.977119
      pz      :     1.644029  p :     4.544822
      px      :     1.259328
      py      :     1.641466
      dz2     :     0.001700  d :     0.011033
      dxz     :     0.000555
      dyz     :     0.003855
      dx2y2   :     0.004366
      dxy     :     0.000558
  1 H s       :     0.733888  s :     0.733888
  2 H s       :     0.733137  s :     0.733137


                     *******************************
                     * LOEWDIN POPULATION ANALYSIS *
                     *******************************

----------------------
LOEWDIN ATOMIC CHARGES
----------------------
   0 O :   -0.495068
   1 H :    0.247251
   2 H :    0.247816

-------------------------------
LOEWDIN REDUCED ORBITAL CHARGES
-------------------------------
  0 O s       :     3.893697  s :     3.893697
      pz      :     1.653987  p :     4.587569
      px      :     1.282088
      py      :     1.651495
      dz2     :     0.002115  d :     0.013801
      dxz     :     0.000709
      dyz     :     0.004646
      dx2y2   :     0.005619
      dxy     :     0.000712
  1 H s       :     0.752749  s :     0.752749
  2 H s       :     0.752184  s :     0.752184


                      *****************************
                      * MAYER POPULATION ANALYSIS *
                      *****************************

  NA   - Mulliken gross atomic population
  ZA   - Total nuclear charge
  QA   - Mulliken gross atomic charge
  VA   - Mayer's total valence
  BVA  - Mayer's bonded valence
  FA   - Mayer's free valence

  ATOM       NA         ZA         QA         VA         BVA        FA
  0 O      8.5330     8.0000    -0.5330     1.8340     1.8340    -0.0000
  1 H      0.7339     1.0000     0.2661     0.9162     0.9162    -0.0000
  2 H      0.7331     1.0000     0.2669     0.9158     0.9158     0.0000

  Mayer bond orders larger than 0.1
B(  0-O ,  1-H ) :   0.9172 B(  0-O ,  2-H ) :   0.9168 

-------
TIMINGS
-------

Total SCF time: 0 days 0 hours 0 min 2 sec 

Total time                  ....       2.141 sec
Sum of individual times     ....       2.028 sec  ( 94.7%)

Fock matrix formation       ....       1.813 sec  ( 84.7%)
  XC integration            ....       0.455 sec  ( 25.1% of F)
    Basis function eval.    ....       0.106 sec  ( 23.3% of XC)
    Density eval.           ....       0.018 sec  (  4.1% of XC)
    XC-Functional eval.     ....       0.137 sec  ( 30.1% of XC)
    XC-Potential eval.      ....       0.010 sec  (  2.1% of XC)
Diagonalization             ....       0.004 sec  (  0.2%)
Density matrix formation    ....       0.000 sec  (  0.0%)
Population analysis         ....       0.010 sec  (  0.5%)
Initial guess               ....       0.103 sec  (  4.8%)
Orbital Transformation      ....       0.000 sec  (  0.0%)
Orbital Orthonormalization  ....       0.000 sec  (  0.0%)
DIIS solution               ....       0.000 sec  (  0.0%)
Grid generation             ....       0.097 sec  (  4.5%)


-------------------------------------------------------------------------------
                          DFT DISPERSION CORRECTION                            
                                                                               
                              DFTD3 V3.1  Rev 1                                
                              USING zero damping                               
-------------------------------------------------------------------------------
The omegaB97X-D3 functional is recognized. Fit by Chai et al.
Active option DFTDOPT                   ...         3   

molecular C6(AA) [au] = 81.730537 


            DFT-D V3
 parameters
 s6 scaling factor         :     1.0000 
 rs6 scaling factor        :     1.2810 
 s8 scaling factor         :     1.0000 
 rs8 scaling factor        :     1.0940 
 Damping factor alpha6     :    14.0000 
 Damping factor alpha8     :    16.0000 
 ad hoc parameters k1-k3   :    16.0000     1.3333    -4.0000 

 Edisp/kcal,au: -0.025705517949  -0.000040964346 
 E6   /kcal   :  -0.003964826 
 E8   /kcal   :  -0.021740692 
 % E8         :  84.575971893 

-------------------------   ----------------
Dispersion correction           -0.000040964
-------------------------   ----------------


-------------------------   --------------------
FINAL SINGLE POINT ENERGY       -76.229533646288
-------------------------   --------------------


                            ***************************************
                            *     ORCA property calculations      *
                            ***************************************

                                    ---------------------
                                    Active property flags
                                    ---------------------
   (+) Dipole Moment


------------------------------------------------------------------------------
                       ORCA ELECTRIC PROPERTIES CALCULATION
------------------------------------------------------------------------------

Dipole Moment Calculation                       ... on
Quadrupole Moment Calculation                   ... off
Polarizability Calculation                      ... off
GBWName                                         ... Scan_11.gbw
Electron density file                           ... Scan_11.scfp.tmp

-------------
DIPOLE MOMENT
-------------
                                X             Y             Z
Electronic contribution:     -0.40635      -0.40505      -0.40360
Nuclear contribution   :      0.90454       0.90616       0.90292
                        -----------------------------------------
Total Dipole Moment    :      0.49818       0.50111       0.49932
                        -----------------------------------------
Magnitude (a.u.)       :      0.86523
Magnitude (Debye)      :      2.19924


Timings for individual modules:

Sum of individual times         ...        2.469 sec (=   0.041 min)
GTO integral calculation        ...        0.293 sec (=   0.005 min)  11.9 %
SCF iterations                  ...        2.175 sec (=   0.036 min)  88.1 %
                             ****ORCA TERMINATED NORMALLY****
TOTAL RUN TIME: 0 days 0 hours 0 minutes 2 seconds 789 msec
