
                                 *****************
                                 * O   R   C   A *
                                 *****************

           --- An Ab Initio, DFT and Semiempirical electronic structure package ---

                  #######################################################
                  #                        -***-                        #
                  #  Department of molecular theory and spectroscopy    #
                  #              Directorship: Frank Neese              #
                  # Max Planck Institute for Chemical Energy Conversion #
                  #                  D-45470 Muelheim/Ruhr              #
                  #                       Germany                       #
                  #                                                     #
                  #                  All rights reserved                #
                  #                        -***-                        #
                  #######################################################


                         Program Version 4.0.0.2 - RELEASE -


 With contributions from (in alphabetic order):
   Daniel Aravena         : Magnetic Properties
   Michael Atanasov       : Ab Initio Ligand Field Theory
   Ute Becker             : Parallelization
   Martin Brehm           : Molecular dynamics
   Dmytro Bykov           : SCF Hessian
   Vijay G. Chilkuri      : MRCI spin determinant printing
   Dipayan Datta          : RHF DLPNO-CCSD density
   Achintya Kumar Dutta   : EOM-CC, STEOM-CC
   Dmitry Ganyushin       : Spin-Orbit,Spin-Spin,Magnetic field MRCI
   Yang Guo               : DLPNO-NEVPT2, CIM, IAO-localization
   Andreas Hansen         : Spin unrestricted coupled pair/coupled cluster methods
   Lee Huntington         : MR-EOM, pCC
   Robert Izsak           : Overlap fitted RIJCOSX, COSX-SCS-MP3, EOM
   Christian Kollmar      : KDIIS, OOCD, Brueckner-CCSD(T), CCSD density
   Simone Kossmann        : Meta GGA functionals, TD-DFT gradient, OOMP2, MP2 Hessian
   Martin Krupicka        : AUTO-CI
   Dagmar Lenk            : GEPOL surface
   Dimitrios Liakos       : Extrapolation schemes; parallel MDCI
   Dimitrios Manganas     : ROCIS; embedding schemes
   Dimitrios Pantazis     : SARC Basis sets
   Taras Petrenko         : DFT Hessian,TD-DFT gradient, ASA, ECA, R-Raman, ABS, FL, XAS/XES, NRVS
   Peter Pinski           : DLPNO-MP2
   Christoph Reimann      : Effective Core Potentials
   Marius Retegan         : Local ZFS, SOC
   Christoph Riplinger    : Optimizer, TS searches, QM/MM, DLPNO-CCSD(T), (RO)-DLPNO pert. Triples
   Tobias Risthaus        : Range-separated hybrids, TD-DFT gradient, RPA, STAB
   Michael Roemelt        : Restricted open shell CIS
   Masaaki Saitow         : Open-shell DLPNO
   Barbara Sandhoefer     : DKH picture change effects
   Kantharuban Sivalingam : CASSCF convergence, NEVPT2, FIC-MRCI
   Georgi Stoychev        : AutoAux
   Boris Wezisla          : Elementary symmetry handling
   Frank Wennmohs         : Technical directorship


 We gratefully acknowledge several colleagues who have allowed us to
 interface, adapt or use parts of their codes:
   Stefan Grimme, W. Hujo, H. Kruse,             : VdW corrections, initial TS optimization,
                  C. Bannwarth                     DFT functionals, gCP, sTDA/sTD-DF
   Ed Valeev                                     : LibInt (2-el integral package), F12 methods
   Garnet Chan, S. Sharma, J. Yang, R. Olivares  : DMRG
   Ulf Ekstrom                                   : XCFun DFT Library
   Mihaly Kallay                                 : mrcc  (arbitrary order and MRCC methods)
   Jiri Pittner, Ondrej Demel                    : Mk-CCSD
   Frank Weinhold                                : gennbo (NPA and NBO analysis)
   Christopher J. Cramer and Donald G. Truhlar   : smd solvation model


 Your calculation uses the libint2 library for the computation of 2-el integrals
 For citations please refer to: http://libint.valeyev.net

 This ORCA versions uses:
   CBLAS   interface :  Fast vector & matrix operations
   LAPACKE interface :  Fast linear algebra routines
   SCALAPACK package :  Parallel linear algebra routines


Your calculation utilizes the atom-pairwise dispersion correction
with the zero-damping scheme (D30)
Cite in your paper:
S.Grimme, J.Antony, S.Ehrlich and H.Krieg, J.Chem.Phys., 132, (2010), 154104 
   

XCFun DFT library Copyright 2009-2010 Ulf Ekstrom and contributors.
See http://admol.org/xcfun for more information. This is free soft-
ware; see the source code for copying conditions. There is ABSOLUTELY
NO WARRANTY; not even for MERCHANTABILITY or FITNESS FOR A PARTICULAR
PURPOSE. For details see the documentation. Scientific users of this 
library should cite U. Ekstrom, L. Visscher, R. Bast, A. J. Thorvald-
sen and K. Ruud; J.Chem.Theor.Comp. 2010, DOI: 10.1021/ct100117s
XCFun Version 0.99 
Your calculation utilizes the basis: 6-31G(d)
   H-He, Li-Ne : W. J. Hehre, R. Ditchfield and J.A. Pople, J. Chem. Phys. 56, 2257 (1972).
                 Note: He and Ne are unpublished basis sets taken from the Gaussian program.
                 Note: Li and B from J. D. Dill and J. A. Pople, J. Chem. Phys. 62, 2921 (1975).
   Na - Ar     : M. M. Francl, W. J. Pietro, W. J. Hehre, J. S. Binkley, M. S. Gordon, 
                 D. J. DeFrees and J. A. Pople, J. Chem. Phys. 77, 3654 (1982).
   K - Zn      : V. A. Rassolov, J. A. Pople, M. A. Ratner, and T. L. Windus, J. Chem. Phys. 109, 1223 (1998).

================================================================================
                                        WARNINGS
                       Please study these warnings very carefully!
================================================================================

Warning: TCutStore was < 0. Adjusted to Thresh (uncritical)

INFO   : the flag for use of LIBINT has been found!

================================================================================
                                       INPUT FILE
================================================================================
NAME = initial17.inp
|  1> ! WB97X-D3 6-31G(d) VerySlowConv
|  2> ! KDIIS NOSOSCF
|  3> %base "Scan_17"
|  4> 
|  5> %scf
|  6> maxiter 999
|  7> end
|  8> 
|  9> * xyz 0 1
| 10> O         -0.398975756172    1.248410303992   -0.329310379069
| 11> H          1.676831357650    1.438130347397   -0.140272051069
| 12> H         -0.838415601478    2.697999348611    1.115092430139
| 13> **                         ****END OF INPUT****
================================================================================

                       ****************************
                       * Single Point Calculation *
                       ****************************

---------------------------------
CARTESIAN COORDINATES (ANGSTROEM)
---------------------------------
  O     -0.398976    1.248410   -0.329310
  H      1.676831    1.438130   -0.140272
  H     -0.838416    2.697999    1.115092

----------------------------
CARTESIAN COORDINATES (A.U.)
----------------------------
  NO LB      ZA    FRAG     MASS         X           Y           Z
   0 O     8.0000    0    15.999   -0.753955    2.359154   -0.622306
   1 H     1.0000    0     1.008    3.168752    2.717673   -0.265076
   2 H     1.0000    0     1.008   -1.584376    5.098480    2.107219

--------------------------------
INTERNAL COORDINATES (ANGSTROEM)
--------------------------------
 O      0   0   0     0.000000000000     0.00000000     0.00000000
 H      1   0   0     2.093013224544     0.00000000     0.00000000
 H      1   2   0     2.093015826784    94.76798092     0.00000000

---------------------------
INTERNAL COORDINATES (A.U.)
---------------------------
 O      0   0   0     0.000000000000     0.00000000     0.00000000
 H      1   0   0     3.955221789064     0.00000000     0.00000000
 H      1   2   0     3.955226706585    94.76798092     0.00000000

---------------------
BASIS SET INFORMATION
---------------------
There are 2 groups of distinct atoms

 Group   1 Type O   : 10s4p1d contracted to 3s2p1d pattern {631/31/1}
 Group   2 Type H   : 4s contracted to 2s pattern {31}

Atom   0O    basis set group =>   1
Atom   1H    basis set group =>   2
Atom   2H    basis set group =>   2
------------------------------------------------------------------------------
                           ORCA GTO INTEGRAL CALCULATION
------------------------------------------------------------------------------

                         BASIS SET STATISTICS AND STARTUP INFO

 # of primitive gaussian shells          ...   23
 # of primitive gaussian functions       ...   35
 # of contracted shells                  ...   10
 # of contracted basis functions         ...   18
 Highest angular momentum                ...    2
 Maximum contraction depth               ...    6
 Integral package used                   ... LIBINT
 Integral threshhold            Thresh   ...  1.000e-10
 Primitive cut-off              TCut     ...  1.000e-11


------------------------------ INTEGRAL EVALUATION ----------------------------


 * One electron integrals 
 Pre-screening matrix                    ... done
 Shell pair data                         ... done (   0.000 sec)

-------------------------------------------------------------------------------
                                 ORCA SCF
-------------------------------------------------------------------------------

------------
SCF SETTINGS
------------
Hamiltonian:
 Density Functional     Method          .... DFT(GTOs)
 Exchange Functional    Exchange        .... WB97X-D3
 Correlation Functional Correlation     .... WB97X-D3
 Gradients option       PostSCFGGA      .... off
 Hybrid DFT is turned on
   Fraction HF Exchange ScalHFX         ....  0.195728
   Scaling of DF-GGA-X  ScalDFX         ....  0.000000
   Scaling of DF-GGA-C  ScalDFC         ....  1.000000
   Scaling of DF-LDA-C  ScalLDAC        ....  1.000000
   Perturbative correction              ....  0.000000
 Long-range corrected/Screened/Range-Separated Hybrid DFT is turned on
   Amount of maximum screened exact exchange              ....  0.804272
   Range separation parameter mu (erf(mu*r12)/r12)        ....  0.250000


General Settings:
 Integral files         IntName         .... Scan_17
 Hartree-Fock type      HFTyp           .... RHF
 Total Charge           Charge          ....    0
 Multiplicity           Mult            ....    1
 Number of Electrons    NEL             ....   10
 Basis Dimension        Dim             ....   18
 Nuclear Repulsion      ENuc            ....      4.2170637562 Eh

Convergence Acceleration:
 DIIS                   CNVDIIS         .... on
   Start iteration      DIISMaxIt       ....     0
   Startup error        DIISStart       ....  0.200000
   # of expansion vecs  DIISMaxEq       ....     5
   Bias factor          DIISBfac        ....   1.050
   Max. coefficient     DIISMaxC        ....  10.000
 Newton-Raphson         CNVNR           .... off
 SOSCF                  CNVSOSCF        .... off
 Level Shifting         CNVShift        .... off
 Zerner damping         CNVZerner       .... off
 Static damping         CNVDamp         .... off
 Fernandez-Rico         CNVRico         .... off

SCF Procedure:
 Maximum # iterations   MaxIter         ....   999
 SCF integral mode      SCFMode         .... Direct
   Integral package                     .... LIBINT
 Reset frequeny         DirectResetFreq ....    20
 Integral Threshold     Thresh          ....  1.000e-10 Eh
 Primitive CutOff       TCut            ....  1.000e-11 Eh

Convergence Tolerance:
 Convergence Check Mode ConvCheckMode   .... All-Criteria
 Convergence forced     ConvForced      .... 0
 Energy Change          TolE            ....  1.000e-06 Eh
 Max Density Change     TolMaxP         ....  1.000e-05
 RMS Density Change     TolRMSP         ....  1.000e-06
 DIIS Error             TolErr          ....  1.000e-06


Diagonalization of the overlap matrix:
Smallest eigenvalue                        ... 1.903e-01
Time for diagonalization                   ...    0.000 sec
Threshold for overlap eigenvalues          ... 1.000e-08
Number of eigenvalues below threshold      ... 0
Time for construction of square roots      ...    0.007 sec
Total time needed                          ...    0.007 sec

-------------------
DFT GRID GENERATION
-------------------

General Integration Accuracy     IntAcc      ...  4.340
Radial Grid Type                 RadialGrid  ... Gauss-Chebyshev
Angular Grid (max. acc.)         AngularGrid ... Lebedev-110
Angular grid pruning method      GridPruning ... 3 (G Style)
Weight generation scheme         WeightScheme... Becke
Basis function cutoff            BFCut       ...    1.0000e-10
Integration weight cutoff        WCut        ...    1.0000e-14
Grids for H and He will be reduced by one unit

# of grid points (after initial pruning)     ...   3304 (   0.0 sec)
# of grid points (after weights+screening)   ...   3296 (   0.0 sec)
nearest neighbour list constructed           ...    0.0 sec
Grid point re-assignment to atoms done       ...    0.0 sec
Grid point division into batches done        ...    0.0 sec
Reduced shell lists constructed in    0.0 sec

Total number of grid points                  ...     3296
Total number of batches                      ...       53
Average number of points per batch           ...       62
Average number of grid points per atom       ...     1099
Average number of shells per batch           ...     8.69 (86.85%)
Average number of basis functions per batch  ...    16.13 (89.61%)
Average number of large shells per batch     ...     7.81 (89.98%)
Average number of large basis fcns per batch ...    14.56 (90.24%)
Maximum spatial batch extension              ...  18.46, 20.95, 25.65 au
Average spatial batch extension              ...   5.56,  6.11,  5.98 au

Time for grid setup =    0.018 sec

------------------------------
INITIAL GUESS: MODEL POTENTIAL
------------------------------
Loading Hartree-Fock densities                     ... done
Calculating cut-offs                               ... done
Setting up the integral package                    ... done
Initializing the effective Hamiltonian             ... done
Starting the Coulomb interaction                   ... done (   0.0 sec)
Reading the grid                                   ... done
Mapping shells                                     ... done
Starting the XC term evaluation                    ... done (   0.0 sec)
  promolecular density results
     # of electrons  =      9.997486673
     EX              =     -8.533954677
     EC              =     -0.281857149
     EX+EC           =     -8.815811826
Transforming the Hamiltonian                       ... done (   0.0 sec)
Diagonalizing the Hamiltonian                      ... done (   0.0 sec)
Back transforming the eigenvectors                 ... done (   0.0 sec)
Now organizing SCF variables                       ... done
                      ------------------
                      INITIAL GUESS DONE (   0.1 sec)
                      ------------------
--------------
SCF ITERATIONS
--------------
ITER       Energy         Delta-E        Max-DP      RMS-DP      [F,P]   Gradient Norm
               ***  Starting incremental Fock matrix formation  ***
                             ****Resetting KDIIS****
                             ****Turning on KDIIS(Cayley)****
  0    -75.5107731812   0.000000000000 0.06084771  0.00732157  0.2598755   0.267481549
  1    -75.6154491988  -0.104676017512 0.06527286  0.00842829  0.2355567   0.217981654
  2    -75.7400547468  -0.124605548004 0.11757499  0.01609200  0.2035950   0.165408512
  3    -75.9089349091  -0.168880162360 0.20890921  0.02795049  0.1135502   0.074625898
  4    -75.9252774416  -0.016342532485 0.15801008  0.02158476  0.1356819   0.116781781
  5    -75.9478404396  -0.022562997949 0.02947093  0.00514714  0.0741323   0.048307810
  6    -75.9625684273  -0.014727987763 0.00112934  0.00018834  0.0550426   0.037526531
  7    -75.9625231526   0.000045274741 0.06235698  0.00824397  0.0544480   0.037433320
  8    -75.9662652021  -0.003742049517 0.04577656  0.00675245  0.0534368   0.034652922
  9    -75.9774625338  -0.011197331699 0.05814703  0.00929498  0.0324188   0.022509660
 10    -75.9650378285   0.012424705262 0.11579296  0.01698916  0.0449045   0.026460338
 11    -75.9827090694  -0.017671240849 0.01321043  0.00207096  0.0128035   0.011753702
 12    -75.9834326673  -0.000723597881 0.00308419  0.00038002  0.0022875   0.001621751
 13    -75.9834636456  -0.000030978376 0.00344215  0.00044836  0.0011733   0.000774350
 14    -75.9834801250  -0.000016479359 0.00120638  0.00016212  0.0001858   0.000181156
 15    -75.9834819974  -0.000001872373 0.00051145  0.00007237  0.0000928   0.000116082
                          ***Energy convergence achieved***
 16    -75.9834822851  -0.000000287699 0.00018342  0.00002118  0.0000350   0.000034478
 17    -75.9834823127  -0.000000027675 0.00006771  0.00001067  0.0000229   0.000019312

            ***Energy convergence in two consecutive cycles with***
                    ***'reasonable' density convergence***
                       *** signaling convergence ***

                    *** KDIIS BlockDiag ( 0.000 sec) ***

               *****************************************************
               *                     SUCCESS                       *
               *           SCF CONVERGED AFTER  18 CYCLES          *
               *****************************************************

Setting up the final grid:

General Integration Accuracy     IntAcc      ...  4.670
Radial Grid Type                 RadialGrid  ... Gauss-Chebyshev
Angular Grid (max. acc.)         AngularGrid ... Lebedev-302
Angular grid pruning method      GridPruning ... 3 (G Style)
Weight generation scheme         WeightScheme... Becke
Basis function cutoff            BFCut       ...    1.0000e-10
Integration weight cutoff        WCut        ...    1.0000e-14
Grids for H and He will be reduced by one unit

# of grid points (after initial pruning)     ...  13000 (   0.0 sec)
# of grid points (after weights+screening)   ...  12950 (   0.0 sec)
nearest neighbour list constructed           ...    0.0 sec
Grid point re-assignment to atoms done       ...    0.0 sec
Grid point division into batches done        ...    0.0 sec
Reduced shell lists constructed in    0.1 sec

Total number of grid points                  ...    12950
Total number of batches                      ...      204
Average number of points per batch           ...       63
Average number of grid points per atom       ...     4317
Average number of shells per batch           ...     7.93 (79.27%)
Average number of basis functions per batch  ...    14.62 (81.22%)
Average number of large shells per batch     ...     6.84 (86.28%)
Average number of large basis fcns per batch ...    12.78 (87.42%)
Maximum spatial batch extension              ...  16.55, 16.88, 16.88 au
Average spatial batch extension              ...   3.49,  3.61,  3.56 au

Final grid set up in    0.1 sec
Final integration                            ... done (   0.1 sec)
Change in XC energy                          ...    -0.000567557
Integrated number of electrons               ...    10.000068990
Previous integrated no of electrons          ...    10.002332767

----------------
TOTAL SCF ENERGY
----------------

Total Energy       :          -75.98404987 Eh           -2067.63111 eV

Components:
Nuclear Repulsion  :            4.21706376 Eh             114.75214 eV
Electronic Energy  :          -80.20111363 Eh           -2182.38325 eV
One Electron Energy:         -113.22341637 Eh           -3080.96579 eV
Two Electron Energy:           33.02230274 Eh             898.58254 eV

Virial components:
Potential Energy   :         -151.00282358 Eh           -4108.99573 eV
Kinetic Energy     :           75.01877371 Eh            2041.36461 eV
Virial Ratio       :            2.01286713


DFT components:
N(Alpha)           :        5.000034495113 electrons
N(Beta)            :        5.000034495113 electrons
N(Total)           :       10.000068990226 electrons
E(XC)              :       -6.149882780780 Eh       

---------------
SCF CONVERGENCE
---------------

  Last Energy change         ...   -3.0389e-09  Tolerance :   1.0000e-06
  Last MAX-Density change    ...    2.1665e-05  Tolerance :   1.0000e-05
  Last RMS-Density change    ...    3.3843e-06  Tolerance :   1.0000e-06
  Last DIIS Error            ...    1.9493e-05  Tolerance :   1.0000e-06

             **** THE GBW FILE WAS UPDATED (Scan_17.gbw) ****
             **** DENSITY FILE WAS UPDATED (Scan_17.scfp.tmp) ****
             **** ENERGY FILE WAS UPDATED (Scan_17.en.tmp) ****
----------------
ORBITAL ENERGIES
----------------

  NO   OCC          E(Eh)            E(eV) 
   0   2.0000     -19.331804      -526.0451 
   1   2.0000      -0.989265       -26.9193 
   2   2.0000      -0.407454       -11.0874 
   3   2.0000      -0.402879       -10.9629 
   4   2.0000      -0.387715       -10.5503 
   5   0.0000      -0.097195        -2.6448 
   6   0.0000      -0.086853        -2.3634 
   7   0.0000       0.812646        22.1132 
   8   0.0000       0.893033        24.3007 
   9   0.0000       1.002975        27.2923 
  10   0.0000       1.022451        27.8223 
  11   0.0000       1.049517        28.5588 
  12   0.0000       1.203145        32.7392 
  13   0.0000       1.900039        51.7027 
  14   0.0000       1.917357        52.1739 
  15   0.0000       1.922716        52.3198 
  16   0.0000       1.924838        52.3775 
  17   0.0000       1.934023        52.6275 

                    ********************************
                    * MULLIKEN POPULATION ANALYSIS *
                    ********************************

-----------------------
MULLIKEN ATOMIC CHARGES
-----------------------
   0 O :   -0.269572
   1 H :    0.135269
   2 H :    0.134303
Sum of atomic charges:    0.0000000

--------------------------------
MULLIKEN REDUCED ORBITAL CHARGES
--------------------------------
  0 O s       :     3.994237  s :     3.994237
      pz      :     1.562298  p :     4.273730
      px      :     1.152204
      py      :     1.559228
      dz2     :     0.000219  d :     0.001605
      dxz     :     0.000077
      dyz     :     0.000609
      dx2y2   :     0.000623
      dxy     :     0.000077
  1 H s       :     0.864731  s :     0.864731
  2 H s       :     0.865697  s :     0.865697


                     *******************************
                     * LOEWDIN POPULATION ANALYSIS *
                     *******************************

----------------------
LOEWDIN ATOMIC CHARGES
----------------------
   0 O :   -0.287417
   1 H :    0.144175
   2 H :    0.143243

-------------------------------
LOEWDIN REDUCED ORBITAL CHARGES
-------------------------------
  0 O s       :     3.985081  s :     3.985081
      pz      :     1.568805  p :     4.300107
      px      :     1.165521
      py      :     1.565782
      dz2     :     0.000309  d :     0.002229
      dxz     :     0.000105
      dyz     :     0.000817
      dx2y2   :     0.000893
      dxy     :     0.000105
  1 H s       :     0.855825  s :     0.855825
  2 H s       :     0.856757  s :     0.856757


                      *****************************
                      * MAYER POPULATION ANALYSIS *
                      *****************************

  NA   - Mulliken gross atomic population
  ZA   - Total nuclear charge
  QA   - Mulliken gross atomic charge
  VA   - Mayer's total valence
  BVA  - Mayer's bonded valence
  FA   - Mayer's free valence

  ATOM       NA         ZA         QA         VA         BVA        FA
  0 O      8.2696     8.0000    -0.2696     1.9568     1.9568     0.0000
  1 H      0.8647     1.0000     0.1353     0.9807     0.9807    -0.0000
  2 H      0.8657     1.0000     0.1343     0.9810     0.9810     0.0000

  Mayer bond orders larger than 0.1
B(  0-O ,  1-H ) :   0.9783 B(  0-O ,  2-H ) :   0.9785 

-------
TIMINGS
-------

Total SCF time: 0 days 0 hours 0 min 4 sec 

Total time                  ....       4.178 sec
Sum of individual times     ....       3.916 sec  ( 93.7%)

Fock matrix formation       ....       3.700 sec  ( 88.6%)
  XC integration            ....       0.840 sec  ( 22.7% of F)
    Basis function eval.    ....       0.162 sec  ( 19.3% of XC)
    Density eval.           ....       0.032 sec  (  3.8% of XC)
    XC-Functional eval.     ....       0.236 sec  ( 28.1% of XC)
    XC-Potential eval.      ....       0.014 sec  (  1.7% of XC)
Diagonalization             ....       0.007 sec  (  0.2%)
Density matrix formation    ....       0.000 sec  (  0.0%)
Population analysis         ....       0.011 sec  (  0.3%)
Initial guess               ....       0.102 sec  (  2.4%)
Orbital Transformation      ....       0.000 sec  (  0.0%)
Orbital Orthonormalization  ....       0.000 sec  (  0.0%)
DIIS solution               ....       0.000 sec  (  0.0%)
Grid generation             ....       0.097 sec  (  2.3%)


-------------------------------------------------------------------------------
                          DFT DISPERSION CORRECTION                            
                                                                               
                              DFTD3 V3.1  Rev 1                                
                              USING zero damping                               
-------------------------------------------------------------------------------
The omegaB97X-D3 functional is recognized. Fit by Chai et al.
Active option DFTDOPT                   ...         3   

molecular C6(AA) [au] = 85.391267 


            DFT-D V3
 parameters
 s6 scaling factor         :     1.0000 
 rs6 scaling factor        :     1.2810 
 s8 scaling factor         :     1.0000 
 rs8 scaling factor        :     1.0940 
 Damping factor alpha6     :    14.0000 
 Damping factor alpha8     :    16.0000 
 ad hoc parameters k1-k3   :    16.0000     1.3333    -4.0000 

 Edisp/kcal,au: -0.163748303214  -0.000260949504 
 E6   /kcal   :  -0.056808507 
 E8   /kcal   :  -0.106939796 
 % E8         :  65.307422603 

-------------------------   ----------------
Dispersion correction           -0.000260950
-------------------------   ----------------


-------------------------   --------------------
FINAL SINGLE POINT ENERGY       -75.984310822095
-------------------------   --------------------


                            ***************************************
                            *     ORCA property calculations      *
                            ***************************************

                                    ---------------------
                                    Active property flags
                                    ---------------------
   (+) Dipole Moment


------------------------------------------------------------------------------
                       ORCA ELECTRIC PROPERTIES CALCULATION
------------------------------------------------------------------------------

Dipole Moment Calculation                       ... on
Quadrupole Moment Calculation                   ... off
Polarizability Calculation                      ... off
GBWName                                         ... Scan_17.gbw
Electron density file                           ... Scan_17.scfp.tmp

-------------
DIPOLE MOMENT
-------------
                                X             Y             Z
Electronic contribution:     -0.89033      -0.89576      -0.89256
Nuclear contribution   :      1.36205       1.36450       1.35961
                        -----------------------------------------
Total Dipole Moment    :      0.47172       0.46874       0.46705
                        -----------------------------------------
Magnitude (a.u.)       :      0.81263
Magnitude (Debye)      :      2.06554


Timings for individual modules:

Sum of individual times         ...        4.514 sec (=   0.075 min)
GTO integral calculation        ...        0.301 sec (=   0.005 min)   6.7 %
SCF iterations                  ...        4.213 sec (=   0.070 min)  93.3 %
                             ****ORCA TERMINATED NORMALLY****
TOTAL RUN TIME: 0 days 0 hours 0 minutes 4 seconds 852 msec
