
                                 *****************
                                 * O   R   C   A *
                                 *****************

           --- An Ab Initio, DFT and Semiempirical electronic structure package ---

                  #######################################################
                  #                        -***-                        #
                  #  Department of molecular theory and spectroscopy    #
                  #              Directorship: Frank Neese              #
                  # Max Planck Institute for Chemical Energy Conversion #
                  #                  D-45470 Muelheim/Ruhr              #
                  #                       Germany                       #
                  #                                                     #
                  #                  All rights reserved                #
                  #                        -***-                        #
                  #######################################################


                         Program Version 4.0.0.2 - RELEASE -


 With contributions from (in alphabetic order):
   Daniel Aravena         : Magnetic Properties
   Michael Atanasov       : Ab Initio Ligand Field Theory
   Ute Becker             : Parallelization
   Martin Brehm           : Molecular dynamics
   Dmytro Bykov           : SCF Hessian
   Vijay G. Chilkuri      : MRCI spin determinant printing
   Dipayan Datta          : RHF DLPNO-CCSD density
   Achintya Kumar Dutta   : EOM-CC, STEOM-CC
   Dmitry Ganyushin       : Spin-Orbit,Spin-Spin,Magnetic field MRCI
   Yang Guo               : DLPNO-NEVPT2, CIM, IAO-localization
   Andreas Hansen         : Spin unrestricted coupled pair/coupled cluster methods
   Lee Huntington         : MR-EOM, pCC
   Robert Izsak           : Overlap fitted RIJCOSX, COSX-SCS-MP3, EOM
   Christian Kollmar      : KDIIS, OOCD, Brueckner-CCSD(T), CCSD density
   Simone Kossmann        : Meta GGA functionals, TD-DFT gradient, OOMP2, MP2 Hessian
   Martin Krupicka        : AUTO-CI
   Dagmar Lenk            : GEPOL surface
   Dimitrios Liakos       : Extrapolation schemes; parallel MDCI
   Dimitrios Manganas     : ROCIS; embedding schemes
   Dimitrios Pantazis     : SARC Basis sets
   Taras Petrenko         : DFT Hessian,TD-DFT gradient, ASA, ECA, R-Raman, ABS, FL, XAS/XES, NRVS
   Peter Pinski           : DLPNO-MP2
   Christoph Reimann      : Effective Core Potentials
   Marius Retegan         : Local ZFS, SOC
   Christoph Riplinger    : Optimizer, TS searches, QM/MM, DLPNO-CCSD(T), (RO)-DLPNO pert. Triples
   Tobias Risthaus        : Range-separated hybrids, TD-DFT gradient, RPA, STAB
   Michael Roemelt        : Restricted open shell CIS
   Masaaki Saitow         : Open-shell DLPNO
   Barbara Sandhoefer     : DKH picture change effects
   Kantharuban Sivalingam : CASSCF convergence, NEVPT2, FIC-MRCI
   Georgi Stoychev        : AutoAux
   Boris Wezisla          : Elementary symmetry handling
   Frank Wennmohs         : Technical directorship


 We gratefully acknowledge several colleagues who have allowed us to
 interface, adapt or use parts of their codes:
   Stefan Grimme, W. Hujo, H. Kruse,             : VdW corrections, initial TS optimization,
                  C. Bannwarth                     DFT functionals, gCP, sTDA/sTD-DF
   Ed Valeev                                     : LibInt (2-el integral package), F12 methods
   Garnet Chan, S. Sharma, J. Yang, R. Olivares  : DMRG
   Ulf Ekstrom                                   : XCFun DFT Library
   Mihaly Kallay                                 : mrcc  (arbitrary order and MRCC methods)
   Jiri Pittner, Ondrej Demel                    : Mk-CCSD
   Frank Weinhold                                : gennbo (NPA and NBO analysis)
   Christopher J. Cramer and Donald G. Truhlar   : smd solvation model


 Your calculation uses the libint2 library for the computation of 2-el integrals
 For citations please refer to: http://libint.valeyev.net

 This ORCA versions uses:
   CBLAS   interface :  Fast vector & matrix operations
   LAPACKE interface :  Fast linear algebra routines
   SCALAPACK package :  Parallel linear algebra routines


Your calculation utilizes the atom-pairwise dispersion correction
with the zero-damping scheme (D30)
Cite in your paper:
S.Grimme, J.Antony, S.Ehrlich and H.Krieg, J.Chem.Phys., 132, (2010), 154104 
   

XCFun DFT library Copyright 2009-2010 Ulf Ekstrom and contributors.
See http://admol.org/xcfun for more information. This is free soft-
ware; see the source code for copying conditions. There is ABSOLUTELY
NO WARRANTY; not even for MERCHANTABILITY or FITNESS FOR A PARTICULAR
PURPOSE. For details see the documentation. Scientific users of this 
library should cite U. Ekstrom, L. Visscher, R. Bast, A. J. Thorvald-
sen and K. Ruud; J.Chem.Theor.Comp. 2010, DOI: 10.1021/ct100117s
XCFun Version 0.99 
Your calculation utilizes the basis: 6-31G(d)
   H-He, Li-Ne : W. J. Hehre, R. Ditchfield and J.A. Pople, J. Chem. Phys. 56, 2257 (1972).
                 Note: He and Ne are unpublished basis sets taken from the Gaussian program.
                 Note: Li and B from J. D. Dill and J. A. Pople, J. Chem. Phys. 62, 2921 (1975).
   Na - Ar     : M. M. Francl, W. J. Pietro, W. J. Hehre, J. S. Binkley, M. S. Gordon, 
                 D. J. DeFrees and J. A. Pople, J. Chem. Phys. 77, 3654 (1982).
   K - Zn      : V. A. Rassolov, J. A. Pople, M. A. Ratner, and T. L. Windus, J. Chem. Phys. 109, 1223 (1998).

================================================================================
                                        WARNINGS
                       Please study these warnings very carefully!
================================================================================

Warning: TCutStore was < 0. Adjusted to Thresh (uncritical)

INFO   : the flag for use of LIBINT has been found!

================================================================================
                                       INPUT FILE
================================================================================
NAME = initial18.inp
|  1> ! WB97X-D3 6-31G(d) VerySlowConv
|  2> ! KDIIS NOSOSCF
|  3> %base "Scan_18"
|  4> 
|  5> %scf
|  6> maxiter 999
|  7> end
|  8> 
|  9> * xyz 0 1
| 10> O         -0.392815037078    1.254588964266   -0.323153835466
| 11> H          1.806920610731    1.368339555233   -0.209813301325
| 12> H         -0.974665573652    2.761611480501    1.178477136790
| 13> **                         ****END OF INPUT****
================================================================================

                       ****************************
                       * Single Point Calculation *
                       ****************************

---------------------------------
CARTESIAN COORDINATES (ANGSTROEM)
---------------------------------
  O     -0.392815    1.254589   -0.323154
  H      1.806921    1.368340   -0.209813
  H     -0.974666    2.761611    1.178477

----------------------------
CARTESIAN COORDINATES (A.U.)
----------------------------
  NO LB      ZA    FRAG     MASS         X           Y           Z
   0 O     8.0000    0    15.999   -0.742313    2.370830   -0.610672
   1 H     1.0000    0     1.008    3.414585    2.585787   -0.396490
   2 H     1.0000    0     1.008   -1.841851    5.218689    2.226999

--------------------------------
INTERNAL COORDINATES (ANGSTROEM)
--------------------------------
 O      0   0   0     0.000000000000     0.00000000     0.00000000
 H      1   0   0     2.205588854222     0.00000000     0.00000000
 H      1   2   0     2.205575319092   101.12107894     0.00000000

---------------------------
INTERNAL COORDINATES (A.U.)
---------------------------
 O      0   0   0     0.000000000000     0.00000000     0.00000000
 H      1   0   0     4.167958898508     0.00000000     0.00000000
 H      1   2   0     4.167933320820   101.12107894     0.00000000

---------------------
BASIS SET INFORMATION
---------------------
There are 2 groups of distinct atoms

 Group   1 Type O   : 10s4p1d contracted to 3s2p1d pattern {631/31/1}
 Group   2 Type H   : 4s contracted to 2s pattern {31}

Atom   0O    basis set group =>   1
Atom   1H    basis set group =>   2
Atom   2H    basis set group =>   2
------------------------------------------------------------------------------
                           ORCA GTO INTEGRAL CALCULATION
------------------------------------------------------------------------------

                         BASIS SET STATISTICS AND STARTUP INFO

 # of primitive gaussian shells          ...   23
 # of primitive gaussian functions       ...   35
 # of contracted shells                  ...   10
 # of contracted basis functions         ...   18
 Highest angular momentum                ...    2
 Maximum contraction depth               ...    6
 Integral package used                   ... LIBINT
 Integral threshhold            Thresh   ...  1.000e-10
 Primitive cut-off              TCut     ...  1.000e-11


------------------------------ INTEGRAL EVALUATION ----------------------------


 * One electron integrals 
 Pre-screening matrix                    ... done
 Shell pair data                         ... done (   0.000 sec)

-------------------------------------------------------------------------------
                                 ORCA SCF
-------------------------------------------------------------------------------

------------
SCF SETTINGS
------------
Hamiltonian:
 Density Functional     Method          .... DFT(GTOs)
 Exchange Functional    Exchange        .... WB97X-D3
 Correlation Functional Correlation     .... WB97X-D3
 Gradients option       PostSCFGGA      .... off
 Hybrid DFT is turned on
   Fraction HF Exchange ScalHFX         ....  0.195728
   Scaling of DF-GGA-X  ScalDFX         ....  0.000000
   Scaling of DF-GGA-C  ScalDFC         ....  1.000000
   Scaling of DF-LDA-C  ScalLDAC        ....  1.000000
   Perturbative correction              ....  0.000000
 Long-range corrected/Screened/Range-Separated Hybrid DFT is turned on
   Amount of maximum screened exact exchange              ....  0.804272
   Range separation parameter mu (erf(mu*r12)/r12)        ....  0.250000


General Settings:
 Integral files         IntName         .... Scan_18
 Hartree-Fock type      HFTyp           .... RHF
 Total Charge           Charge          ....    0
 Multiplicity           Mult            ....    1
 Number of Electrons    NEL             ....   10
 Basis Dimension        Dim             ....   18
 Nuclear Repulsion      ENuc            ....      3.9941543197 Eh

Convergence Acceleration:
 DIIS                   CNVDIIS         .... on
   Start iteration      DIISMaxIt       ....     0
   Startup error        DIISStart       ....  0.200000
   # of expansion vecs  DIISMaxEq       ....     5
   Bias factor          DIISBfac        ....   1.050
   Max. coefficient     DIISMaxC        ....  10.000
 Newton-Raphson         CNVNR           .... off
 SOSCF                  CNVSOSCF        .... off
 Level Shifting         CNVShift        .... off
 Zerner damping         CNVZerner       .... off
 Static damping         CNVDamp         .... off
 Fernandez-Rico         CNVRico         .... off

SCF Procedure:
 Maximum # iterations   MaxIter         ....   999
 SCF integral mode      SCFMode         .... Direct
   Integral package                     .... LIBINT
 Reset frequeny         DirectResetFreq ....    20
 Integral Threshold     Thresh          ....  1.000e-10 Eh
 Primitive CutOff       TCut            ....  1.000e-11 Eh

Convergence Tolerance:
 Convergence Check Mode ConvCheckMode   .... All-Criteria
 Convergence forced     ConvForced      .... 0
 Energy Change          TolE            ....  1.000e-06 Eh
 Max Density Change     TolMaxP         ....  1.000e-05
 RMS Density Change     TolRMSP         ....  1.000e-06
 DIIS Error             TolErr          ....  1.000e-06


Diagonalization of the overlap matrix:
Smallest eigenvalue                        ... 1.971e-01
Time for diagonalization                   ...    0.000 sec
Threshold for overlap eigenvalues          ... 1.000e-08
Number of eigenvalues below threshold      ... 0
Time for construction of square roots      ...    0.004 sec
Total time needed                          ...    0.005 sec

-------------------
DFT GRID GENERATION
-------------------

General Integration Accuracy     IntAcc      ...  4.340
Radial Grid Type                 RadialGrid  ... Gauss-Chebyshev
Angular Grid (max. acc.)         AngularGrid ... Lebedev-110
Angular grid pruning method      GridPruning ... 3 (G Style)
Weight generation scheme         WeightScheme... Becke
Basis function cutoff            BFCut       ...    1.0000e-10
Integration weight cutoff        WCut        ...    1.0000e-14
Grids for H and He will be reduced by one unit

# of grid points (after initial pruning)     ...   3304 (   0.0 sec)
# of grid points (after weights+screening)   ...   3289 (   0.0 sec)
nearest neighbour list constructed           ...    0.0 sec
Grid point re-assignment to atoms done       ...    0.0 sec
Grid point division into batches done        ...    0.0 sec
Reduced shell lists constructed in    0.0 sec

Total number of grid points                  ...     3289
Total number of batches                      ...       53
Average number of points per batch           ...       62
Average number of grid points per atom       ...     1096
Average number of shells per batch           ...     8.57 (85.74%)
Average number of basis functions per batch  ...    15.94 (88.58%)
Average number of large shells per batch     ...     7.76 (90.50%)
Average number of large basis fcns per batch ...    14.57 (91.41%)
Maximum spatial batch extension              ...  18.19, 20.95, 25.65 au
Average spatial batch extension              ...   5.47,  6.19,  5.96 au

Time for grid setup =    0.017 sec

------------------------------
INITIAL GUESS: MODEL POTENTIAL
------------------------------
Loading Hartree-Fock densities                     ... done
Calculating cut-offs                               ... done
Setting up the integral package                    ... done
Initializing the effective Hamiltonian             ... done
Starting the Coulomb interaction                   ... done (   0.0 sec)
Reading the grid                                   ... done
Mapping shells                                     ... done
Starting the XC term evaluation                    ... done (   0.0 sec)
  promolecular density results
     # of electrons  =      9.997814044
     EX              =     -8.531281636
     EC              =     -0.280455616
     EX+EC           =     -8.811737252
Transforming the Hamiltonian                       ... done (   0.0 sec)
Diagonalizing the Hamiltonian                      ... done (   0.0 sec)
Back transforming the eigenvectors                 ... done (   0.0 sec)
Now organizing SCF variables                       ... done
                      ------------------
                      INITIAL GUESS DONE (   0.1 sec)
                      ------------------
--------------
SCF ITERATIONS
--------------
ITER       Energy         Delta-E        Max-DP      RMS-DP      [F,P]   Gradient Norm
               ***  Starting incremental Fock matrix formation  ***
                             ****Resetting KDIIS****
                             ****Turning on KDIIS(Cayley)****
  0    -75.3928375004   0.000000000000 0.06782764  0.00809847  0.2776458   0.283466819
  1    -75.5113908163  -0.118553315864 0.06983956  0.00941011  0.2450605   0.230469939
  2    -75.6533625543  -0.141971738047 0.10643547  0.01557051  0.2169210   0.175848924
  3    -75.8225168270  -0.169154272724 0.23169465  0.03107017  0.1394476   0.089160282
  4    -75.8977675823  -0.075250755238 0.14968557  0.02025043  0.1293737   0.110223105
  5    -75.8988417075  -0.001074125172 0.02129992  0.00325578  0.0861256   0.056573111
  6    -75.9126193591  -0.013777651685 0.01339734  0.00276896  0.0726278   0.049478133
  7    -75.9227373845  -0.010118025378 0.05602785  0.00803221  0.0651966   0.044086977
  8    -75.9446071980  -0.021869813437 0.02885810  0.00394790  0.0402346   0.025654959
  9    -75.9508319257  -0.006224727723 0.00850705  0.00148041  0.0160279   0.010384573
 10    -75.9515921856  -0.000760259947 0.01501804  0.00282488  0.0141072   0.008777215
 11    -75.9528012955  -0.001209109909 0.01536838  0.00201254  0.0047816   0.003328513
 12    -75.9530707450  -0.000269449443 0.00644529  0.00075498  0.0013535   0.001218057
 13    -75.9531094511  -0.000038706119 0.00207416  0.00029328  0.0010469   0.000737349
 14    -75.9531191233  -0.000009672200 0.00337937  0.00036613  0.0003892   0.000241214
 15    -75.9531246608  -0.000005537513 0.00070602  0.00008373  0.0002792   0.000213074
                          ***Energy convergence achieved***
 16    -75.9531251288  -0.000000468013 0.00014352  0.00002192  0.0000561   0.000049732

            ***Energy convergence in two consecutive cycles with***
                    ***'reasonable' density convergence***
                       *** signaling convergence ***

                    *** KDIIS BlockDiag ( 0.000 sec) ***

               *****************************************************
               *                     SUCCESS                       *
               *           SCF CONVERGED AFTER  17 CYCLES          *
               *****************************************************

Setting up the final grid:

General Integration Accuracy     IntAcc      ...  4.670
Radial Grid Type                 RadialGrid  ... Gauss-Chebyshev
Angular Grid (max. acc.)         AngularGrid ... Lebedev-302
Angular grid pruning method      GridPruning ... 3 (G Style)
Weight generation scheme         WeightScheme... Becke
Basis function cutoff            BFCut       ...    1.0000e-10
Integration weight cutoff        WCut        ...    1.0000e-14
Grids for H and He will be reduced by one unit

# of grid points (after initial pruning)     ...  13000 (   0.0 sec)
# of grid points (after weights+screening)   ...  12947 (   0.0 sec)
nearest neighbour list constructed           ...    0.0 sec
Grid point re-assignment to atoms done       ...    0.0 sec
Grid point division into batches done        ...    0.0 sec
Reduced shell lists constructed in    0.1 sec

Total number of grid points                  ...    12947
Total number of batches                      ...      204
Average number of points per batch           ...       63
Average number of grid points per atom       ...     4316
Average number of shells per batch           ...     7.80 (77.95%)
Average number of basis functions per batch  ...    14.50 (80.54%)
Average number of large shells per batch     ...     6.67 (85.61%)
Average number of large basis fcns per batch ...    12.44 (85.80%)
Maximum spatial batch extension              ...  16.28, 16.09, 16.88 au
Average spatial batch extension              ...   3.46,  3.58,  3.51 au

Final grid set up in    0.1 sec
Final integration                            ... done (   0.1 sec)
Change in XC energy                          ...    -0.000448301
Integrated number of electrons               ...    10.000018805
Previous integrated no of electrons          ...    10.000664921

----------------
TOTAL SCF ENERGY
----------------

Total Energy       :          -75.95357345 Eh           -2066.80181 eV

Components:
Nuclear Repulsion  :            3.99415432 Eh             108.68646 eV
Electronic Energy  :          -79.94772777 Eh           -2175.48827 eV
One Electron Energy:         -112.75791923 Eh           -3068.29897 eV
Two Electron Energy:           32.81019146 Eh             892.81070 eV

Virial components:
Potential Energy   :         -150.98815796 Eh           -4108.59666 eV
Kinetic Energy     :           75.03458451 Eh            2041.79485 eV
Virial Ratio       :            2.01224754


DFT components:
N(Alpha)           :        5.000009402376 electrons
N(Beta)            :        5.000009402376 electrons
N(Total)           :       10.000018804751 electrons
E(XC)              :       -6.142877792886 Eh       

---------------
SCF CONVERGENCE
---------------

  Last Energy change         ...   -2.2329e-08  Tolerance :   1.0000e-06
  Last MAX-Density change    ...    1.0927e-05  Tolerance :   1.0000e-05
  Last RMS-Density change    ...    1.8437e-06  Tolerance :   1.0000e-06
  Last DIIS Error            ...    7.4118e-06  Tolerance :   1.0000e-06

             **** THE GBW FILE WAS UPDATED (Scan_18.gbw) ****
             **** DENSITY FILE WAS UPDATED (Scan_18.scfp.tmp) ****
             **** ENERGY FILE WAS UPDATED (Scan_18.en.tmp) ****
----------------
ORBITAL ENERGIES
----------------

  NO   OCC          E(Eh)            E(eV) 
   0   2.0000     -19.331471      -526.0361 
   1   2.0000      -0.988324       -26.8937 
   2   2.0000      -0.400894       -10.9089 
   3   2.0000      -0.392394       -10.6776 
   4   2.0000      -0.387759       -10.5515 
   5   0.0000      -0.110852        -3.0164 
   6   0.0000      -0.098640        -2.6841 
   7   0.0000       0.810125        22.0446 
   8   0.0000       0.869208        23.6524 
   9   0.0000       1.004606        27.3367 
  10   0.0000       1.018345        27.7106 
  11   0.0000       1.056716        28.7547 
  12   0.0000       1.201705        32.7001 
  13   0.0000       1.901049        51.7302 
  14   0.0000       1.915880        52.1337 
  15   0.0000       1.923045        52.3287 
  16   0.0000       1.924074        52.3567 
  17   0.0000       1.933837        52.6224 

                    ********************************
                    * MULLIKEN POPULATION ANALYSIS *
                    ********************************

-----------------------
MULLIKEN ATOMIC CHARGES
-----------------------
   0 O :   -0.256231
   1 H :    0.129103
   2 H :    0.127128
Sum of atomic charges:   -0.0000000

--------------------------------
MULLIKEN REDUCED ORBITAL CHARGES
--------------------------------
  0 O s       :     3.995580  s :     3.995580
      pz      :     1.562877  p :     4.259425
      px      :     1.136725
      py      :     1.559823
      dz2     :     0.000172  d :     0.001226
      dxz     :     0.000052
      dyz     :     0.000459
      dx2y2   :     0.000490
      dxy     :     0.000053
  1 H s       :     0.870897  s :     0.870897
  2 H s       :     0.872872  s :     0.872872


                     *******************************
                     * LOEWDIN POPULATION ANALYSIS *
                     *******************************

----------------------
LOEWDIN ATOMIC CHARGES
----------------------
   0 O :   -0.273231
   1 H :    0.137606
   2 H :    0.135625

-------------------------------
LOEWDIN REDUCED ORBITAL CHARGES
-------------------------------
  0 O s       :     3.989251  s :     3.989251
      pz      :     1.568383  p :     4.282268
      px      :     1.148517
      py      :     1.565367
      dz2     :     0.000241  d :     0.001712
      dxz     :     0.000080
      dyz     :     0.000612
      dx2y2   :     0.000698
      dxy     :     0.000081
  1 H s       :     0.862394  s :     0.862394
  2 H s       :     0.864375  s :     0.864375


                      *****************************
                      * MAYER POPULATION ANALYSIS *
                      *****************************

  NA   - Mulliken gross atomic population
  ZA   - Total nuclear charge
  QA   - Mulliken gross atomic charge
  VA   - Mayer's total valence
  BVA  - Mayer's bonded valence
  FA   - Mayer's free valence

  ATOM       NA         ZA         QA         VA         BVA        FA
  0 O      8.2562     8.0000    -0.2562     1.9651     1.9651    -0.0000
  1 H      0.8709     1.0000     0.1291     0.9827     0.9827     0.0000
  2 H      0.8729     1.0000     0.1271     0.9833     0.9833    -0.0000

  Mayer bond orders larger than 0.1
B(  0-O ,  1-H ) :   0.9823 B(  0-O ,  2-H ) :   0.9828 

-------
TIMINGS
-------

Total SCF time: 0 days 0 hours 0 min 4 sec 

Total time                  ....       4.078 sec
Sum of individual times     ....       3.874 sec  ( 95.0%)

Fock matrix formation       ....       3.651 sec  ( 89.5%)
  XC integration            ....       0.825 sec  ( 22.6% of F)
    Basis function eval.    ....       0.160 sec  ( 19.3% of XC)
    Density eval.           ....       0.032 sec  (  3.8% of XC)
    XC-Functional eval.     ....       0.230 sec  ( 27.8% of XC)
    XC-Potential eval.      ....       0.014 sec  (  1.8% of XC)
Diagonalization             ....       0.007 sec  (  0.2%)
Density matrix formation    ....       0.000 sec  (  0.0%)
Population analysis         ....       0.010 sec  (  0.3%)
Initial guess               ....       0.106 sec  (  2.6%)
Orbital Transformation      ....       0.000 sec  (  0.0%)
Orbital Orthonormalization  ....       0.000 sec  (  0.0%)
DIIS solution               ....       0.000 sec  (  0.0%)
Grid generation             ....       0.099 sec  (  2.4%)


-------------------------------------------------------------------------------
                          DFT DISPERSION CORRECTION                            
                                                                               
                              DFTD3 V3.1  Rev 1                                
                              USING zero damping                               
-------------------------------------------------------------------------------
The omegaB97X-D3 functional is recognized. Fit by Chai et al.
Active option DFTDOPT                   ...         3   

molecular C6(AA) [au] = 85.399126 


            DFT-D V3
 parameters
 s6 scaling factor         :     1.0000 
 rs6 scaling factor        :     1.2810 
 s8 scaling factor         :     1.0000 
 rs8 scaling factor        :     1.0940 
 Damping factor alpha6     :    14.0000 
 Damping factor alpha8     :    16.0000 
 ad hoc parameters k1-k3   :    16.0000     1.3333    -4.0000 

 Edisp/kcal,au: -0.182167896760  -0.000290302991 
 E6   /kcal   :  -0.062353807 
 E8   /kcal   :  -0.119814090 
 % E8         :  65.771243112 

-------------------------   ----------------
Dispersion correction           -0.000290303
-------------------------   ----------------


-------------------------   --------------------
FINAL SINGLE POINT ENERGY       -75.953863755372
-------------------------   --------------------


                            ***************************************
                            *     ORCA property calculations      *
                            ***************************************

                                    ---------------------
                                    Active property flags
                                    ---------------------
   (+) Dipole Moment


------------------------------------------------------------------------------
                       ORCA ELECTRIC PROPERTIES CALCULATION
------------------------------------------------------------------------------

Dipole Moment Calculation                       ... on
Quadrupole Moment Calculation                   ... off
Polarizability Calculation                      ... off
GBWName                                         ... Scan_18.gbw
Electron density file                           ... Scan_18.scfp.tmp

-------------
DIPOLE MOMENT
-------------
                                X             Y             Z
Electronic contribution:     -0.89846      -0.90860      -0.90535
Nuclear contribution   :      1.34666       1.34907       1.34424
                        -----------------------------------------
Total Dipole Moment    :      0.44821       0.44047       0.43889
                        -----------------------------------------
Magnitude (a.u.)       :      0.76651
Magnitude (Debye)      :      1.94830


Timings for individual modules:

Sum of individual times         ...        4.423 sec (=   0.074 min)
GTO integral calculation        ...        0.307 sec (=   0.005 min)   6.9 %
SCF iterations                  ...        4.116 sec (=   0.069 min)  93.1 %
                             ****ORCA TERMINATED NORMALLY****
TOTAL RUN TIME: 0 days 0 hours 0 minutes 4 seconds 763 msec
