
                                 *****************
                                 * O   R   C   A *
                                 *****************

           --- An Ab Initio, DFT and Semiempirical electronic structure package ---

                  #######################################################
                  #                        -***-                        #
                  #  Department of molecular theory and spectroscopy    #
                  #              Directorship: Frank Neese              #
                  # Max Planck Institute for Chemical Energy Conversion #
                  #                  D-45470 Muelheim/Ruhr              #
                  #                       Germany                       #
                  #                                                     #
                  #                  All rights reserved                #
                  #                        -***-                        #
                  #######################################################


                         Program Version 4.0.0.2 - RELEASE -


 With contributions from (in alphabetic order):
   Daniel Aravena         : Magnetic Properties
   Michael Atanasov       : Ab Initio Ligand Field Theory
   Ute Becker             : Parallelization
   Martin Brehm           : Molecular dynamics
   Dmytro Bykov           : SCF Hessian
   Vijay G. Chilkuri      : MRCI spin determinant printing
   Dipayan Datta          : RHF DLPNO-CCSD density
   Achintya Kumar Dutta   : EOM-CC, STEOM-CC
   Dmitry Ganyushin       : Spin-Orbit,Spin-Spin,Magnetic field MRCI
   Yang Guo               : DLPNO-NEVPT2, CIM, IAO-localization
   Andreas Hansen         : Spin unrestricted coupled pair/coupled cluster methods
   Lee Huntington         : MR-EOM, pCC
   Robert Izsak           : Overlap fitted RIJCOSX, COSX-SCS-MP3, EOM
   Christian Kollmar      : KDIIS, OOCD, Brueckner-CCSD(T), CCSD density
   Simone Kossmann        : Meta GGA functionals, TD-DFT gradient, OOMP2, MP2 Hessian
   Martin Krupicka        : AUTO-CI
   Dagmar Lenk            : GEPOL surface
   Dimitrios Liakos       : Extrapolation schemes; parallel MDCI
   Dimitrios Manganas     : ROCIS; embedding schemes
   Dimitrios Pantazis     : SARC Basis sets
   Taras Petrenko         : DFT Hessian,TD-DFT gradient, ASA, ECA, R-Raman, ABS, FL, XAS/XES, NRVS
   Peter Pinski           : DLPNO-MP2
   Christoph Reimann      : Effective Core Potentials
   Marius Retegan         : Local ZFS, SOC
   Christoph Riplinger    : Optimizer, TS searches, QM/MM, DLPNO-CCSD(T), (RO)-DLPNO pert. Triples
   Tobias Risthaus        : Range-separated hybrids, TD-DFT gradient, RPA, STAB
   Michael Roemelt        : Restricted open shell CIS
   Masaaki Saitow         : Open-shell DLPNO
   Barbara Sandhoefer     : DKH picture change effects
   Kantharuban Sivalingam : CASSCF convergence, NEVPT2, FIC-MRCI
   Georgi Stoychev        : AutoAux
   Boris Wezisla          : Elementary symmetry handling
   Frank Wennmohs         : Technical directorship


 We gratefully acknowledge several colleagues who have allowed us to
 interface, adapt or use parts of their codes:
   Stefan Grimme, W. Hujo, H. Kruse,             : VdW corrections, initial TS optimization,
                  C. Bannwarth                     DFT functionals, gCP, sTDA/sTD-DF
   Ed Valeev                                     : LibInt (2-el integral package), F12 methods
   Garnet Chan, S. Sharma, J. Yang, R. Olivares  : DMRG
   Ulf Ekstrom                                   : XCFun DFT Library
   Mihaly Kallay                                 : mrcc  (arbitrary order and MRCC methods)
   Jiri Pittner, Ondrej Demel                    : Mk-CCSD
   Frank Weinhold                                : gennbo (NPA and NBO analysis)
   Christopher J. Cramer and Donald G. Truhlar   : smd solvation model


 Your calculation uses the libint2 library for the computation of 2-el integrals
 For citations please refer to: http://libint.valeyev.net

 This ORCA versions uses:
   CBLAS   interface :  Fast vector & matrix operations
   LAPACKE interface :  Fast linear algebra routines
   SCALAPACK package :  Parallel linear algebra routines


Your calculation utilizes the atom-pairwise dispersion correction
with the zero-damping scheme (D30)
Cite in your paper:
S.Grimme, J.Antony, S.Ehrlich and H.Krieg, J.Chem.Phys., 132, (2010), 154104 
   

XCFun DFT library Copyright 2009-2010 Ulf Ekstrom and contributors.
See http://admol.org/xcfun for more information. This is free soft-
ware; see the source code for copying conditions. There is ABSOLUTELY
NO WARRANTY; not even for MERCHANTABILITY or FITNESS FOR A PARTICULAR
PURPOSE. For details see the documentation. Scientific users of this 
library should cite U. Ekstrom, L. Visscher, R. Bast, A. J. Thorvald-
sen and K. Ruud; J.Chem.Theor.Comp. 2010, DOI: 10.1021/ct100117s
XCFun Version 0.99 
Your calculation utilizes the basis: 6-31G(d)
   H-He, Li-Ne : W. J. Hehre, R. Ditchfield and J.A. Pople, J. Chem. Phys. 56, 2257 (1972).
                 Note: He and Ne are unpublished basis sets taken from the Gaussian program.
                 Note: Li and B from J. D. Dill and J. A. Pople, J. Chem. Phys. 62, 2921 (1975).
   Na - Ar     : M. M. Francl, W. J. Pietro, W. J. Hehre, J. S. Binkley, M. S. Gordon, 
                 D. J. DeFrees and J. A. Pople, J. Chem. Phys. 77, 3654 (1982).
   K - Zn      : V. A. Rassolov, J. A. Pople, M. A. Ratner, and T. L. Windus, J. Chem. Phys. 109, 1223 (1998).

================================================================================
                                        WARNINGS
                       Please study these warnings very carefully!
================================================================================

Warning: TCutStore was < 0. Adjusted to Thresh (uncritical)

INFO   : the flag for use of LIBINT has been found!

================================================================================
                                       INPUT FILE
================================================================================
NAME = initial2.inp
|  1> ! WB97X-D3 6-31G(d) VerySlowConv
|  2> ! KDIIS NOSOSCF
|  3> %base "Scan_2"
|  4> 
|  5> %scf
|  6> maxiter 999
|  7> end
|  8> 
|  9> * xyz 0 1
| 10> O         -0.026847760505    1.621207658278    0.042152537097
| 11> H          0.798320217880    1.598573600716    0.019598326972
| 12> H         -0.332032457375    2.164758741005    0.583759135931
| 13> **                         ****END OF INPUT****
================================================================================

                       ****************************
                       * Single Point Calculation *
                       ****************************

---------------------------------
CARTESIAN COORDINATES (ANGSTROEM)
---------------------------------
  O     -0.026848    1.621208    0.042153
  H      0.798320    1.598574    0.019598
  H     -0.332032    2.164759    0.583759

----------------------------
CARTESIAN COORDINATES (A.U.)
----------------------------
  NO LB      ZA    FRAG     MASS         X           Y           Z
   0 O     8.0000    0    15.999   -0.050735    3.063638    0.079657
   1 H     1.0000    0     1.008    1.508607    3.020866    0.037035
   2 H     1.0000    0     1.008   -0.627450    4.090801    1.103145

--------------------------------
INTERNAL COORDINATES (ANGSTROEM)
--------------------------------
 O      0   0   0     0.000000000000     0.00000000     0.00000000
 H      1   0   0     0.825786404289     0.00000000     0.00000000
 H      1   2   0     0.825786404973   113.90656863     0.00000000

---------------------------
INTERNAL COORDINATES (A.U.)
---------------------------
 O      0   0   0     0.000000000000     0.00000000     0.00000000
 H      1   0   0     1.560510149221     0.00000000     0.00000000
 H      1   2   0     1.560510150514   113.90656863     0.00000000

---------------------
BASIS SET INFORMATION
---------------------
There are 2 groups of distinct atoms

 Group   1 Type O   : 10s4p1d contracted to 3s2p1d pattern {631/31/1}
 Group   2 Type H   : 4s contracted to 2s pattern {31}

Atom   0O    basis set group =>   1
Atom   1H    basis set group =>   2
Atom   2H    basis set group =>   2
------------------------------------------------------------------------------
                           ORCA GTO INTEGRAL CALCULATION
------------------------------------------------------------------------------

                         BASIS SET STATISTICS AND STARTUP INFO

 # of primitive gaussian shells          ...   23
 # of primitive gaussian functions       ...   35
 # of contracted shells                  ...   10
 # of contracted basis functions         ...   18
 Highest angular momentum                ...    2
 Maximum contraction depth               ...    6
 Integral package used                   ... LIBINT
 Integral threshhold            Thresh   ...  1.000e-10
 Primitive cut-off              TCut     ...  1.000e-11


------------------------------ INTEGRAL EVALUATION ----------------------------


 * One electron integrals 
 Pre-screening matrix                    ... done
 Shell pair data                         ... done (   0.000 sec)

-------------------------------------------------------------------------------
                                 ORCA SCF
-------------------------------------------------------------------------------

------------
SCF SETTINGS
------------
Hamiltonian:
 Density Functional     Method          .... DFT(GTOs)
 Exchange Functional    Exchange        .... WB97X-D3
 Correlation Functional Correlation     .... WB97X-D3
 Gradients option       PostSCFGGA      .... off
 Hybrid DFT is turned on
   Fraction HF Exchange ScalHFX         ....  0.195728
   Scaling of DF-GGA-X  ScalDFX         ....  0.000000
   Scaling of DF-GGA-C  ScalDFC         ....  1.000000
   Scaling of DF-LDA-C  ScalLDAC        ....  1.000000
   Perturbative correction              ....  0.000000
 Long-range corrected/Screened/Range-Separated Hybrid DFT is turned on
   Amount of maximum screened exact exchange              ....  0.804272
   Range separation parameter mu (erf(mu*r12)/r12)        ....  0.250000


General Settings:
 Integral files         IntName         .... Scan_2
 Hartree-Fock type      HFTyp           .... RHF
 Total Charge           Charge          ....    0
 Multiplicity           Mult            ....    1
 Number of Electrons    NEL             ....   10
 Basis Dimension        Dim             ....   18
 Nuclear Repulsion      ENuc            ....     10.6353026191 Eh

Convergence Acceleration:
 DIIS                   CNVDIIS         .... on
   Start iteration      DIISMaxIt       ....     0
   Startup error        DIISStart       ....  0.200000
   # of expansion vecs  DIISMaxEq       ....     5
   Bias factor          DIISBfac        ....   1.050
   Max. coefficient     DIISMaxC        ....  10.000
 Newton-Raphson         CNVNR           .... off
 SOSCF                  CNVSOSCF        .... off
 Level Shifting         CNVShift        .... off
 Zerner damping         CNVZerner       .... off
 Static damping         CNVDamp         .... off
 Fernandez-Rico         CNVRico         .... off

SCF Procedure:
 Maximum # iterations   MaxIter         ....   999
 SCF integral mode      SCFMode         .... Direct
   Integral package                     .... LIBINT
 Reset frequeny         DirectResetFreq ....    20
 Integral Threshold     Thresh          ....  1.000e-10 Eh
 Primitive CutOff       TCut            ....  1.000e-11 Eh

Convergence Tolerance:
 Convergence Check Mode ConvCheckMode   .... All-Criteria
 Convergence forced     ConvForced      .... 0
 Energy Change          TolE            ....  1.000e-06 Eh
 Max Density Change     TolMaxP         ....  1.000e-05
 RMS Density Change     TolRMSP         ....  1.000e-06
 DIIS Error             TolErr          ....  1.000e-06


Diagonalization of the overlap matrix:
Smallest eigenvalue                        ... 4.570e-02
Time for diagonalization                   ...    0.000 sec
Threshold for overlap eigenvalues          ... 1.000e-08
Number of eigenvalues below threshold      ... 0
Time for construction of square roots      ...    0.014 sec
Total time needed                          ...    0.015 sec

-------------------
DFT GRID GENERATION
-------------------

General Integration Accuracy     IntAcc      ...  4.340
Radial Grid Type                 RadialGrid  ... Gauss-Chebyshev
Angular Grid (max. acc.)         AngularGrid ... Lebedev-110
Angular grid pruning method      GridPruning ... 3 (G Style)
Weight generation scheme         WeightScheme... Becke
Basis function cutoff            BFCut       ...    1.0000e-10
Integration weight cutoff        WCut        ...    1.0000e-14
Grids for H and He will be reduced by one unit

# of grid points (after initial pruning)     ...   3304 (   0.0 sec)
# of grid points (after weights+screening)   ...   3269 (   0.0 sec)
nearest neighbour list constructed           ...    0.0 sec
Grid point re-assignment to atoms done       ...    0.0 sec
Grid point division into batches done        ...    0.0 sec
Reduced shell lists constructed in    0.0 sec

Total number of grid points                  ...     3269
Total number of batches                      ...       52
Average number of points per batch           ...       62
Average number of grid points per atom       ...     1090
Average number of shells per batch           ...     9.36 (93.58%)
Average number of basis functions per batch  ...    16.94 (94.13%)
Average number of large shells per batch     ...     8.85 (94.56%)
Average number of large basis fcns per batch ...    16.21 (95.66%)
Maximum spatial batch extension              ...  16.41, 22.59, 25.65 au
Average spatial batch extension              ...   4.78,  5.90,  5.50 au

Time for grid setup =    0.038 sec

------------------------------
INITIAL GUESS: MODEL POTENTIAL
------------------------------
Loading Hartree-Fock densities                     ... done
Calculating cut-offs                               ... done
Setting up the integral package                    ... done
Initializing the effective Hamiltonian             ... done
Starting the Coulomb interaction                   ... done (   0.0 sec)
Reading the grid                                   ... done
Mapping shells                                     ... done
Starting the XC term evaluation                    ... done (   0.0 sec)
  promolecular density results
     # of electrons  =     10.003659079
     EX              =     -8.796523597
     EC              =     -0.321070450
     EX+EC           =     -9.117594048
Transforming the Hamiltonian                       ... done (   0.0 sec)
Diagonalizing the Hamiltonian                      ... done (   0.0 sec)
Back transforming the eigenvectors                 ... done (   0.0 sec)
Now organizing SCF variables                       ... done
                      ------------------
                      INITIAL GUESS DONE (   0.4 sec)
                      ------------------
--------------
SCF ITERATIONS
--------------
ITER       Energy         Delta-E        Max-DP      RMS-DP      [F,P]   Gradient Norm
               ***  Starting incremental Fock matrix formation  ***
                             ****Resetting KDIIS****
                             ****Turning on KDIIS(Cayley)****
  0    -76.2277698052   0.000000000000 0.03717485  0.00456522  0.1925812   0.174479498
  1    -76.2663391723  -0.038569367084 0.02874640  0.00341215  0.1555853   0.139801748
  2    -76.2898263669  -0.023487194676 0.04606392  0.00546893  0.1261947   0.113375341
  3    -76.3175119686  -0.027685601649 0.06852203  0.00827358  0.0778585   0.070274769
Warning: badly conditioned DIIS matrix, 1 vectors out of 5 destroyed
  4    -76.3347811524  -0.017269183841 0.00899973  0.00144733  0.0066738   0.004818470
Warning: badly conditioned DIIS matrix, 1 vectors out of 5 destroyed
Warning: badly conditioned DIIS matrix, 1 vectors out of 4 destroyed
  5    -76.3344358488   0.000345303660 0.02170988  0.00330703  0.0111629   0.008180174
  6    -76.3349593354  -0.000523486639 0.00040126  0.00005408  0.0002018   0.000160935
                          ***Energy convergence achieved***
  7    -76.3349595068  -0.000000171418 0.00003673  0.00000441  0.0000094   0.000009310
                           ***RMSP convergence achieved***
                           ***MAXP convergence achieved***
                    *** KDIIS BlockDiag ( 0.000 sec) ***

               *****************************************************
               *                     SUCCESS                       *
               *           SCF CONVERGED AFTER   8 CYCLES          *
               *****************************************************

Setting up the final grid:

General Integration Accuracy     IntAcc      ...  4.670
Radial Grid Type                 RadialGrid  ... Gauss-Chebyshev
Angular Grid (max. acc.)         AngularGrid ... Lebedev-302
Angular grid pruning method      GridPruning ... 3 (G Style)
Weight generation scheme         WeightScheme... Becke
Basis function cutoff            BFCut       ...    1.0000e-10
Integration weight cutoff        WCut        ...    1.0000e-14
Grids for H and He will be reduced by one unit

# of grid points (after initial pruning)     ...  13000 (   0.0 sec)
# of grid points (after weights+screening)   ...  12873 (   0.0 sec)
nearest neighbour list constructed           ...    0.0 sec
Grid point re-assignment to atoms done       ...    0.0 sec
Grid point division into batches done        ...    0.1 sec
Reduced shell lists constructed in    0.2 sec

Total number of grid points                  ...    12873
Total number of batches                      ...      203
Average number of points per batch           ...       63
Average number of grid points per atom       ...     4291
Average number of shells per batch           ...     8.50 (85.00%)
Average number of basis functions per batch  ...    15.37 (85.40%)
Average number of large shells per batch     ...     8.02 (94.41%)
Average number of large basis fcns per batch ...    14.63 (95.18%)
Maximum spatial batch extension              ...  16.48, 16.88, 16.88 au
Average spatial batch extension              ...   3.23,  3.46,  3.49 au

Final grid set up in    0.2 sec
Final integration                            ... done (   0.2 sec)
Change in XC energy                          ...    -0.000633425
Integrated number of electrons               ...     9.999999948
Previous integrated no of electrons          ...     9.999979235

----------------
TOTAL SCF ENERGY
----------------

Total Energy       :          -76.33559293 Eh           -2077.19709 eV

Components:
Nuclear Repulsion  :           10.63530262 Eh             289.40130 eV
Electronic Energy  :          -86.97089555 Eh           -2366.59838 eV
One Electron Energy:         -125.60444040 Eh           -3417.87058 eV
Two Electron Energy:           38.63354485 Eh            1051.27220 eV

Virial components:
Potential Energy   :         -152.96351010 Eh           -4162.34872 eV
Kinetic Energy     :           76.62791717 Eh            2085.15163 eV
Virial Ratio       :            1.99618515


DFT components:
N(Alpha)           :        4.999999974198 electrons
N(Beta)            :        4.999999974198 electrons
N(Total)           :        9.999999948396 electrons
E(XC)              :       -6.613122989406 Eh       

---------------
SCF CONVERGENCE
---------------

  Last Energy change         ...   -6.2873e-10  Tolerance :   1.0000e-06
  Last MAX-Density change    ...    5.0176e-06  Tolerance :   1.0000e-05
  Last RMS-Density change    ...    5.8954e-07  Tolerance :   1.0000e-06
  Last DIIS Error            ...    1.5781e-06  Tolerance :   1.0000e-06

             **** THE GBW FILE WAS UPDATED (Scan_2.gbw) ****
             **** DENSITY FILE WAS UPDATED (Scan_2.scfp.tmp) ****
             **** ENERGY FILE WAS UPDATED (Scan_2.en.tmp) ****
----------------
ORBITAL ENERGIES
----------------

  NO   OCC          E(Eh)            E(eV) 
   0   2.0000     -19.205361      -522.6044 
   1   2.0000      -1.173006       -31.9191 
   2   2.0000      -0.700277       -19.0555 
   3   2.0000      -0.466328       -12.6894 
   4   2.0000      -0.402924       -10.9641 
   5   0.0000       0.210616         5.7312 
   6   0.0000       0.299415         8.1475 
   7   0.0000       0.998518        27.1711 
   8   0.0000       0.999531        27.1986 
   9   0.0000       1.001272        27.2460 
  10   0.0000       1.100741        29.9527 
  11   0.0000       1.244532        33.8654 
  12   0.0000       1.512064        41.1454 
  13   0.0000       1.801091        49.0102 
  14   0.0000       1.830650        49.8145 
  15   0.0000       1.869516        50.8721 
  16   0.0000       2.601387        70.7873 
  17   0.0000       2.934418        79.8496 

                    ********************************
                    * MULLIKEN POPULATION ANALYSIS *
                    ********************************

-----------------------
MULLIKEN ATOMIC CHARGES
-----------------------
   0 O :   -0.812437
   1 H :    0.406097
   2 H :    0.406339
Sum of atomic charges:    0.0000000

--------------------------------
MULLIKEN REDUCED ORBITAL CHARGES
--------------------------------
  0 O s       :     3.773244  s :     3.773244
      pz      :     1.789225  p :     5.013255
      px      :     1.436300
      py      :     1.787730
      dz2     :     0.004618  d :     0.025938
      dxz     :     0.001696
      dyz     :     0.008222
      dx2y2   :     0.009702
      dxy     :     0.001701
  1 H s       :     0.593903  s :     0.593903
  2 H s       :     0.593661  s :     0.593661


                     *******************************
                     * LOEWDIN POPULATION ANALYSIS *
                     *******************************

----------------------
LOEWDIN ATOMIC CHARGES
----------------------
   0 O :   -0.589617
   1 H :    0.294715
   2 H :    0.294902

-------------------------------
LOEWDIN REDUCED ORBITAL CHARGES
-------------------------------
  0 O s       :     3.480850  s :     3.480850
      pz      :     1.803163  p :     5.070748
      px      :     1.465815
      py      :     1.801769
      dz2     :     0.006423  d :     0.038019
      dxz     :     0.002625
      dyz     :     0.011182
      dx2y2   :     0.015152
      dxy     :     0.002637
  1 H s       :     0.705285  s :     0.705285
  2 H s       :     0.705098  s :     0.705098


                      *****************************
                      * MAYER POPULATION ANALYSIS *
                      *****************************

  NA   - Mulliken gross atomic population
  ZA   - Total nuclear charge
  QA   - Mulliken gross atomic charge
  VA   - Mayer's total valence
  BVA  - Mayer's bonded valence
  FA   - Mayer's free valence

  ATOM       NA         ZA         QA         VA         BVA        FA
  0 O      8.8124     8.0000    -0.8124     1.6185     1.6185     0.0000
  1 H      0.5939     1.0000     0.4061     0.8003     0.8003    -0.0000
  2 H      0.5937     1.0000     0.4063     0.8000     0.8000    -0.0000

  Mayer bond orders larger than 0.1
B(  0-O ,  1-H ) :   0.8094 B(  0-O ,  2-H ) :   0.8091 

-------
TIMINGS
-------

Total SCF time: 0 days 0 hours 0 min 9 sec 

Total time                  ....       9.448 sec
Sum of individual times     ....       8.871 sec  ( 93.9%)

Fock matrix formation       ....       8.125 sec  ( 86.0%)
  XC integration            ....       1.833 sec  ( 22.6% of F)
    Basis function eval.    ....       0.244 sec  ( 13.3% of XC)
    Density eval.           ....       0.061 sec  (  3.3% of XC)
    XC-Functional eval.     ....       0.244 sec  ( 13.3% of XC)
    XC-Potential eval.      ....       0.098 sec  (  5.4% of XC)
Diagonalization             ....       0.065 sec  (  0.7%)
Density matrix formation    ....       0.000 sec  (  0.0%)
Population analysis         ....       0.044 sec  (  0.5%)
Initial guess               ....       0.403 sec  (  4.3%)
Orbital Transformation      ....       0.000 sec  (  0.0%)
Orbital Orthonormalization  ....       0.000 sec  (  0.0%)
DIIS solution               ....       0.000 sec  (  0.0%)
Grid generation             ....       0.234 sec  (  2.5%)


-------------------------------------------------------------------------------
                          DFT DISPERSION CORRECTION                            
                                                                               
                              DFTD3 V3.1  Rev 1                                
                              USING zero damping                               
-------------------------------------------------------------------------------
The omegaB97X-D3 functional is recognized. Fit by Chai et al.
Active option DFTDOPT                   ...         3   

molecular C6(AA) [au] = 44.500385 


            DFT-D V3
 parameters
 s6 scaling factor         :     1.0000 
 rs6 scaling factor        :     1.2810 
 s8 scaling factor         :     1.0000 
 rs8 scaling factor        :     1.0940 
 Damping factor alpha6     :    14.0000 
 Damping factor alpha8     :    16.0000 
 ad hoc parameters k1-k3   :    16.0000     1.3333    -4.0000 

 Edisp/kcal,au: -0.000369848102  -0.000000589390 
 E6   /kcal   :  -0.000056913 
 E8   /kcal   :  -0.000312935 
 % E8         :  84.611718332 

-------------------------   ----------------
Dispersion correction           -0.000000589
-------------------------   ----------------


-------------------------   --------------------
FINAL SINGLE POINT ENERGY       -76.335593522001
-------------------------   --------------------


                            ***************************************
                            *     ORCA property calculations      *
                            ***************************************

                                    ---------------------
                                    Active property flags
                                    ---------------------
   (+) Dipole Moment


------------------------------------------------------------------------------
                       ORCA ELECTRIC PROPERTIES CALCULATION
------------------------------------------------------------------------------

Dipole Moment Calculation                       ... on
Quadrupole Moment Calculation                   ... off
Polarizability Calculation                      ... off
GBWName                                         ... Scan_2.gbw
Electron density file                           ... Scan_2.scfp.tmp

-------------
DIPOLE MOMENT
-------------
                                X             Y             Z
Electronic contribution:     -0.00997      -0.01006      -0.01003
Nuclear contribution   :      0.43281       0.43359       0.43204
                        -----------------------------------------
Total Dipole Moment    :      0.42284       0.42353       0.42201
                        -----------------------------------------
Magnitude (a.u.)       :      0.73230
Magnitude (Debye)      :      1.86136


Timings for individual modules:

Sum of individual times         ...       10.902 sec (=   0.182 min)
GTO integral calculation        ...        1.331 sec (=   0.022 min)  12.2 %
SCF iterations                  ...        9.570 sec (=   0.160 min)  87.8 %
                             ****ORCA TERMINATED NORMALLY****
TOTAL RUN TIME: 0 days 0 hours 0 minutes 12 seconds 410 msec
