
                                 *****************
                                 * O   R   C   A *
                                 *****************

           --- An Ab Initio, DFT and Semiempirical electronic structure package ---

                  #######################################################
                  #                        -***-                        #
                  #  Department of molecular theory and spectroscopy    #
                  #              Directorship: Frank Neese              #
                  # Max Planck Institute for Chemical Energy Conversion #
                  #                  D-45470 Muelheim/Ruhr              #
                  #                       Germany                       #
                  #                                                     #
                  #                  All rights reserved                #
                  #                        -***-                        #
                  #######################################################


                         Program Version 4.0.0.2 - RELEASE -


 With contributions from (in alphabetic order):
   Daniel Aravena         : Magnetic Properties
   Michael Atanasov       : Ab Initio Ligand Field Theory
   Ute Becker             : Parallelization
   Martin Brehm           : Molecular dynamics
   Dmytro Bykov           : SCF Hessian
   Vijay G. Chilkuri      : MRCI spin determinant printing
   Dipayan Datta          : RHF DLPNO-CCSD density
   Achintya Kumar Dutta   : EOM-CC, STEOM-CC
   Dmitry Ganyushin       : Spin-Orbit,Spin-Spin,Magnetic field MRCI
   Yang Guo               : DLPNO-NEVPT2, CIM, IAO-localization
   Andreas Hansen         : Spin unrestricted coupled pair/coupled cluster methods
   Lee Huntington         : MR-EOM, pCC
   Robert Izsak           : Overlap fitted RIJCOSX, COSX-SCS-MP3, EOM
   Christian Kollmar      : KDIIS, OOCD, Brueckner-CCSD(T), CCSD density
   Simone Kossmann        : Meta GGA functionals, TD-DFT gradient, OOMP2, MP2 Hessian
   Martin Krupicka        : AUTO-CI
   Dagmar Lenk            : GEPOL surface
   Dimitrios Liakos       : Extrapolation schemes; parallel MDCI
   Dimitrios Manganas     : ROCIS; embedding schemes
   Dimitrios Pantazis     : SARC Basis sets
   Taras Petrenko         : DFT Hessian,TD-DFT gradient, ASA, ECA, R-Raman, ABS, FL, XAS/XES, NRVS
   Peter Pinski           : DLPNO-MP2
   Christoph Reimann      : Effective Core Potentials
   Marius Retegan         : Local ZFS, SOC
   Christoph Riplinger    : Optimizer, TS searches, QM/MM, DLPNO-CCSD(T), (RO)-DLPNO pert. Triples
   Tobias Risthaus        : Range-separated hybrids, TD-DFT gradient, RPA, STAB
   Michael Roemelt        : Restricted open shell CIS
   Masaaki Saitow         : Open-shell DLPNO
   Barbara Sandhoefer     : DKH picture change effects
   Kantharuban Sivalingam : CASSCF convergence, NEVPT2, FIC-MRCI
   Georgi Stoychev        : AutoAux
   Boris Wezisla          : Elementary symmetry handling
   Frank Wennmohs         : Technical directorship


 We gratefully acknowledge several colleagues who have allowed us to
 interface, adapt or use parts of their codes:
   Stefan Grimme, W. Hujo, H. Kruse,             : VdW corrections, initial TS optimization,
                  C. Bannwarth                     DFT functionals, gCP, sTDA/sTD-DF
   Ed Valeev                                     : LibInt (2-el integral package), F12 methods
   Garnet Chan, S. Sharma, J. Yang, R. Olivares  : DMRG
   Ulf Ekstrom                                   : XCFun DFT Library
   Mihaly Kallay                                 : mrcc  (arbitrary order and MRCC methods)
   Jiri Pittner, Ondrej Demel                    : Mk-CCSD
   Frank Weinhold                                : gennbo (NPA and NBO analysis)
   Christopher J. Cramer and Donald G. Truhlar   : smd solvation model


 Your calculation uses the libint2 library for the computation of 2-el integrals
 For citations please refer to: http://libint.valeyev.net

 This ORCA versions uses:
   CBLAS   interface :  Fast vector & matrix operations
   LAPACKE interface :  Fast linear algebra routines
   SCALAPACK package :  Parallel linear algebra routines


Your calculation utilizes the atom-pairwise dispersion correction
with the zero-damping scheme (D30)
Cite in your paper:
S.Grimme, J.Antony, S.Ehrlich and H.Krieg, J.Chem.Phys., 132, (2010), 154104 
   

XCFun DFT library Copyright 2009-2010 Ulf Ekstrom and contributors.
See http://admol.org/xcfun for more information. This is free soft-
ware; see the source code for copying conditions. There is ABSOLUTELY
NO WARRANTY; not even for MERCHANTABILITY or FITNESS FOR A PARTICULAR
PURPOSE. For details see the documentation. Scientific users of this 
library should cite U. Ekstrom, L. Visscher, R. Bast, A. J. Thorvald-
sen and K. Ruud; J.Chem.Theor.Comp. 2010, DOI: 10.1021/ct100117s
XCFun Version 0.99 
Your calculation utilizes the basis: 6-31G(d)
   H-He, Li-Ne : W. J. Hehre, R. Ditchfield and J.A. Pople, J. Chem. Phys. 56, 2257 (1972).
                 Note: He and Ne are unpublished basis sets taken from the Gaussian program.
                 Note: Li and B from J. D. Dill and J. A. Pople, J. Chem. Phys. 62, 2921 (1975).
   Na - Ar     : M. M. Francl, W. J. Pietro, W. J. Hehre, J. S. Binkley, M. S. Gordon, 
                 D. J. DeFrees and J. A. Pople, J. Chem. Phys. 77, 3654 (1982).
   K - Zn      : V. A. Rassolov, J. A. Pople, M. A. Ratner, and T. L. Windus, J. Chem. Phys. 109, 1223 (1998).

================================================================================
                                        WARNINGS
                       Please study these warnings very carefully!
================================================================================

Warning: TCutStore was < 0. Adjusted to Thresh (uncritical)

INFO   : the flag for use of LIBINT has been found!

================================================================================
                                       INPUT FILE
================================================================================
NAME = initial22.inp
|  1> ! WB97X-D3 6-31G(d) VerySlowConv
|  2> ! KDIIS NOSOSCF
|  3> %base "Scan_22"
|  4> 
|  5> %scf
|  6> maxiter 999
|  7> end
|  8> 
|  9> * xyz 0 1
| 10> O         -0.291989414973    1.355589381304   -0.222514952136
| 11> H          2.309170143164    1.041013390691   -0.535968938918
| 12> H         -1.577740728191    2.987937228005    1.403993891054
| 13> **                         ****END OF INPUT****
================================================================================

                       ****************************
                       * Single Point Calculation *
                       ****************************

---------------------------------
CARTESIAN COORDINATES (ANGSTROEM)
---------------------------------
  O     -0.291989    1.355589   -0.222515
  H      2.309170    1.041013   -0.535969
  H     -1.577741    2.987937    1.403994

----------------------------
CARTESIAN COORDINATES (A.U.)
----------------------------
  NO LB      ZA    FRAG     MASS         X           Y           Z
   0 O     8.0000    0    15.999   -0.551780    2.561693   -0.420492
   1 H     1.0000    0     1.008    4.363699    1.967230   -1.012835
   2 H     1.0000    0     1.008   -2.981498    5.646383    2.653164

--------------------------------
INTERNAL COORDINATES (ANGSTROEM)
--------------------------------
 O      0   0   0     0.000000000000     0.00000000     0.00000000
 H      1   0   0     2.638795653814     0.00000000     0.00000000
 H      1   2   0     2.638796496331   128.84839100     0.00000000

---------------------------
INTERNAL COORDINATES (A.U.)
---------------------------
 O      0   0   0     0.000000000000     0.00000000     0.00000000
 H      1   0   0     4.986601109090     0.00000000     0.00000000
 H      1   2   0     4.986602701216   128.84839100     0.00000000

---------------------
BASIS SET INFORMATION
---------------------
There are 2 groups of distinct atoms

 Group   1 Type O   : 10s4p1d contracted to 3s2p1d pattern {631/31/1}
 Group   2 Type H   : 4s contracted to 2s pattern {31}

Atom   0O    basis set group =>   1
Atom   1H    basis set group =>   2
Atom   2H    basis set group =>   2
------------------------------------------------------------------------------
                           ORCA GTO INTEGRAL CALCULATION
------------------------------------------------------------------------------

                         BASIS SET STATISTICS AND STARTUP INFO

 # of primitive gaussian shells          ...   23
 # of primitive gaussian functions       ...   35
 # of contracted shells                  ...   10
 # of contracted basis functions         ...   18
 Highest angular momentum                ...    2
 Maximum contraction depth               ...    6
 Integral package used                   ... LIBINT
 Integral threshhold            Thresh   ...  1.000e-10
 Primitive cut-off              TCut     ...  1.000e-11


------------------------------ INTEGRAL EVALUATION ----------------------------


 * One electron integrals 
 Pre-screening matrix                    ... done
 Shell pair data                         ... done (   0.000 sec)

-------------------------------------------------------------------------------
                                 ORCA SCF
-------------------------------------------------------------------------------

------------
SCF SETTINGS
------------
Hamiltonian:
 Density Functional     Method          .... DFT(GTOs)
 Exchange Functional    Exchange        .... WB97X-D3
 Correlation Functional Correlation     .... WB97X-D3
 Gradients option       PostSCFGGA      .... off
 Hybrid DFT is turned on
   Fraction HF Exchange ScalHFX         ....  0.195728
   Scaling of DF-GGA-X  ScalDFX         ....  0.000000
   Scaling of DF-GGA-C  ScalDFC         ....  1.000000
   Scaling of DF-LDA-C  ScalLDAC        ....  1.000000
   Perturbative correction              ....  0.000000
 Long-range corrected/Screened/Range-Separated Hybrid DFT is turned on
   Amount of maximum screened exact exchange              ....  0.804272
   Range separation parameter mu (erf(mu*r12)/r12)        ....  0.250000


General Settings:
 Integral files         IntName         .... Scan_22
 Hartree-Fock type      HFTyp           .... RHF
 Total Charge           Charge          ....    0
 Multiplicity           Mult            ....    1
 Number of Electrons    NEL             ....   10
 Basis Dimension        Dim             ....   18
 Nuclear Repulsion      ENuc            ....      3.3197586003 Eh

Convergence Acceleration:
 DIIS                   CNVDIIS         .... on
   Start iteration      DIISMaxIt       ....     0
   Startup error        DIISStart       ....  0.200000
   # of expansion vecs  DIISMaxEq       ....     5
   Bias factor          DIISBfac        ....   1.050
   Max. coefficient     DIISMaxC        ....  10.000
 Newton-Raphson         CNVNR           .... off
 SOSCF                  CNVSOSCF        .... off
 Level Shifting         CNVShift        .... off
 Zerner damping         CNVZerner       .... off
 Static damping         CNVDamp         .... off
 Fernandez-Rico         CNVRico         .... off

SCF Procedure:
 Maximum # iterations   MaxIter         ....   999
 SCF integral mode      SCFMode         .... Direct
   Integral package                     .... LIBINT
 Reset frequeny         DirectResetFreq ....    20
 Integral Threshold     Thresh          ....  1.000e-10 Eh
 Primitive CutOff       TCut            ....  1.000e-11 Eh

Convergence Tolerance:
 Convergence Check Mode ConvCheckMode   .... All-Criteria
 Convergence forced     ConvForced      .... 0
 Energy Change          TolE            ....  1.000e-06 Eh
 Max Density Change     TolMaxP         ....  1.000e-05
 RMS Density Change     TolRMSP         ....  1.000e-06
 DIIS Error             TolErr          ....  1.000e-06


Diagonalization of the overlap matrix:
Smallest eigenvalue                        ... 2.204e-01
Time for diagonalization                   ...    0.000 sec
Threshold for overlap eigenvalues          ... 1.000e-08
Number of eigenvalues below threshold      ... 0
Time for construction of square roots      ...    0.006 sec
Total time needed                          ...    0.007 sec

-------------------
DFT GRID GENERATION
-------------------

General Integration Accuracy     IntAcc      ...  4.340
Radial Grid Type                 RadialGrid  ... Gauss-Chebyshev
Angular Grid (max. acc.)         AngularGrid ... Lebedev-110
Angular grid pruning method      GridPruning ... 3 (G Style)
Weight generation scheme         WeightScheme... Becke
Basis function cutoff            BFCut       ...    1.0000e-10
Integration weight cutoff        WCut        ...    1.0000e-14
Grids for H and He will be reduced by one unit

# of grid points (after initial pruning)     ...   3304 (   0.0 sec)
# of grid points (after weights+screening)   ...   3295 (   0.0 sec)
nearest neighbour list constructed           ...    0.0 sec
Grid point re-assignment to atoms done       ...    0.0 sec
Grid point division into batches done        ...    0.0 sec
Reduced shell lists constructed in    0.0 sec

Total number of grid points                  ...     3295
Total number of batches                      ...       54
Average number of points per batch           ...       61
Average number of grid points per atom       ...     1098
Average number of shells per batch           ...     8.29 (82.91%)
Average number of basis functions per batch  ...    15.82 (87.88%)
Average number of large shells per batch     ...     6.73 (81.14%)
Average number of large basis fcns per batch ...    12.55 (79.31%)
Maximum spatial batch extension              ...  17.80, 20.95, 22.48 au
Average spatial batch extension              ...   5.43,  5.83,  5.79 au

Time for grid setup =    0.019 sec

------------------------------
INITIAL GUESS: MODEL POTENTIAL
------------------------------
Loading Hartree-Fock densities                     ... done
Calculating cut-offs                               ... done
Setting up the integral package                    ... done
Initializing the effective Hamiltonian             ... done
Starting the Coulomb interaction                   ... done (   0.0 sec)
Reading the grid                                   ... done
Mapping shells                                     ... done
Starting the XC term evaluation                    ... done (   0.0 sec)
  promolecular density results
     # of electrons  =      9.998680155
     EX              =     -8.526043115
     EC              =     -0.277359442
     EX+EC           =     -8.803402557
Transforming the Hamiltonian                       ... done (   0.0 sec)
Diagonalizing the Hamiltonian                      ... done (   0.0 sec)
Back transforming the eigenvectors                 ... done (   0.0 sec)
Now organizing SCF variables                       ... done
                      ------------------
                      INITIAL GUESS DONE (   0.1 sec)
                      ------------------
--------------
SCF ITERATIONS
--------------
ITER       Energy         Delta-E        Max-DP      RMS-DP      [F,P]   Gradient Norm
               ***  Starting incremental Fock matrix formation  ***
                             ****Resetting KDIIS****
                             ****Turning on KDIIS(Cayley)****
  0    -75.0195715943   0.000000000000 0.07858597  0.00949017  0.3367013   0.314571766
  1    -75.1604486952  -0.140877100937 0.16578508  0.01957372  0.2736854   0.258096227
  2    -75.3786970695  -0.218248374348 0.09231015  0.01391723  0.2054269   0.151346394
  3    -75.5353448216  -0.156647752026 0.16968706  0.02413808  0.1837032   0.106478462
  4    -75.7018798695  -0.166535047892 0.10295180  0.01612062  0.1483673   0.124244444
  5    -75.7814015145  -0.079521645040 0.09279905  0.01356864  0.1177925   0.105404125
  6    -75.8040060315  -0.022604516961 0.08881834  0.01525239  0.0862141   0.060174280
  7    -75.6920266399   0.111979391539 0.10124684  0.01491691  0.1486124   0.090922886
  8    -75.7996963562  -0.107669716260 0.12602554  0.01837122  0.1016861   0.063959437
  9    -75.8561641207  -0.056467764563 0.03031763  0.00401802  0.0197836   0.020884711
 10    -75.8577191241  -0.001555003393 0.00520783  0.00086314  0.0117261   0.008281896
 11    -75.8579032587  -0.000184134575 0.00304526  0.00041648  0.0097041   0.005924435
 12    -75.8578676214   0.000035637258 0.01768447  0.00303781  0.0110053   0.006785227
 13    -75.8581411908  -0.000273569391 0.01072908  0.00182438  0.0080142   0.004884039
 14    -75.8584975976  -0.000356406786 0.01115332  0.00150071  0.0006791   0.000668662
 15    -75.8585515057  -0.000053908056 0.00304387  0.00047115  0.0010039   0.000788967
 16    -75.8585590467  -0.000007541045 0.00037812  0.00005710  0.0000866   0.000065046
                          ***Energy convergence achieved***
 17    -75.8585591171  -0.000000070395 0.00009323  0.00001186  0.0000346   0.000023871
 18    -75.8585591387  -0.000000021540 0.00016980  0.00002217  0.0000273   0.000017651
 19    -75.8585591665  -0.000000027855 0.00022092  0.00002467  0.0000117   0.000009892
               *** Restarting incremental Fock matrix formation ***
                             ****Resetting KDIIS****
                           ***RMSP convergence achieved***
                           ***MAXP convergence achieved***
                    *** KDIIS BlockDiag ( 0.000 sec) ***

               *****************************************************
               *                     SUCCESS                       *
               *           SCF CONVERGED AFTER  20 CYCLES          *
               *****************************************************

Setting up the final grid:

General Integration Accuracy     IntAcc      ...  4.670
Radial Grid Type                 RadialGrid  ... Gauss-Chebyshev
Angular Grid (max. acc.)         AngularGrid ... Lebedev-302
Angular grid pruning method      GridPruning ... 3 (G Style)
Weight generation scheme         WeightScheme... Becke
Basis function cutoff            BFCut       ...    1.0000e-10
Integration weight cutoff        WCut        ...    1.0000e-14
Grids for H and He will be reduced by one unit

# of grid points (after initial pruning)     ...  13000 (   0.0 sec)
# of grid points (after weights+screening)   ...  12970 (   0.0 sec)
nearest neighbour list constructed           ...    0.0 sec
Grid point re-assignment to atoms done       ...    0.0 sec
Grid point division into batches done        ...    0.0 sec
Reduced shell lists constructed in    0.1 sec

Total number of grid points                  ...    12970
Total number of batches                      ...      205
Average number of points per batch           ...       63
Average number of grid points per atom       ...     4323
Average number of shells per batch           ...     7.36 (73.64%)
Average number of basis functions per batch  ...    13.88 (77.10%)
Average number of large shells per batch     ...     5.69 (77.26%)
Average number of large basis fcns per batch ...    10.50 (75.69%)
Maximum spatial batch extension              ...  16.06, 17.58, 17.58 au
Average spatial batch extension              ...   3.46,  3.79,  3.70 au

Final grid set up in    0.1 sec
Final integration                            ... done (   0.1 sec)
Change in XC energy                          ...    -0.000196647
Integrated number of electrons               ...    10.000006720
Previous integrated no of electrons          ...     9.998132790

----------------
TOTAL SCF ENERGY
----------------

Total Energy       :          -75.85875583 Eh           -2064.22169 eV

Components:
Nuclear Repulsion  :            3.31975860 Eh              90.33522 eV
Electronic Energy  :          -79.17851443 Eh           -2154.55691 eV
One Electron Energy:         -111.35385657 Eh           -3030.09248 eV
Two Electron Energy:           32.17534214 Eh             875.53557 eV

Virial components:
Potential Energy   :         -150.98201427 Eh           -4108.42948 eV
Kinetic Energy     :           75.12325845 Eh            2044.20779 eV
Virial Ratio       :            2.00979054


DFT components:
N(Alpha)           :        5.000003360174 electrons
N(Beta)            :        5.000003360174 electrons
N(Total)           :       10.000006720348 electrons
E(XC)              :       -6.132647570871 Eh       

---------------
SCF CONVERGENCE
---------------

  Last Energy change         ...   -1.3548e-08  Tolerance :   1.0000e-06
  Last MAX-Density change    ...    5.2299e-06  Tolerance :   1.0000e-05
  Last RMS-Density change    ...    5.5209e-07  Tolerance :   1.0000e-06
  Last DIIS Error            ...    1.1412e-05  Tolerance :   1.0000e-06

             **** THE GBW FILE WAS UPDATED (Scan_22.gbw) ****
             **** DENSITY FILE WAS UPDATED (Scan_22.scfp.tmp) ****
             **** ENERGY FILE WAS UPDATED (Scan_22.en.tmp) ****
----------------
ORBITAL ENERGIES
----------------

  NO   OCC          E(Eh)            E(eV) 
   0   2.0000     -19.326481      -525.9003 
   1   2.0000      -0.985500       -26.8168 
   2   2.0000      -0.387002       -10.5309 
   3   2.0000      -0.375613       -10.2210 
   4   2.0000      -0.362573        -9.8661 
   5   0.0000      -0.150901        -4.1062 
   6   0.0000      -0.130877        -3.5613 
   7   0.0000       0.797403        21.6984 
   8   0.0000       0.801501        21.8100 
   9   0.0000       1.008071        27.4310 
  10   0.0000       1.011553        27.5258 
  11   0.0000       1.075940        29.2778 
  12   0.0000       1.163667        31.6650 
  13   0.0000       1.904061        51.8121 
  14   0.0000       1.906507        51.8787 
  15   0.0000       1.921737        52.2931 
  16   0.0000       1.923200        52.3329 
  17   0.0000       1.931728        52.5650 

                    ********************************
                    * MULLIKEN POPULATION ANALYSIS *
                    ********************************

-----------------------
MULLIKEN ATOMIC CHARGES
-----------------------
   0 O :   -0.231557
   1 H :    0.115182
   2 H :    0.116375
Sum of atomic charges:    0.0000000

--------------------------------
MULLIKEN REDUCED ORBITAL CHARGES
--------------------------------
  0 O s       :     3.998739  s :     3.998739
      pz      :     1.567452  p :     4.232308
      px      :     1.100426
      py      :     1.564430
      dz2     :     0.000070  d :     0.000511
      dxz     :     0.000026
      dyz     :     0.000194
      dx2y2   :     0.000195
      dxy     :     0.000026
  1 H s       :     0.884818  s :     0.884818
  2 H s       :     0.883625  s :     0.883625


                     *******************************
                     * LOEWDIN POPULATION ANALYSIS *
                     *******************************

----------------------
LOEWDIN ATOMIC CHARGES
----------------------
   0 O :   -0.242371
   1 H :    0.120592
   2 H :    0.121779

-------------------------------
LOEWDIN REDUCED ORBITAL CHARGES
-------------------------------
  0 O s       :     3.997417  s :     3.997417
      pz      :     1.570031  p :     4.244298
      px      :     1.107241
      py      :     1.567026
      dz2     :     0.000087  d :     0.000656
      dxz     :     0.000050
      dyz     :     0.000223
      dx2y2   :     0.000246
      dxy     :     0.000050
  1 H s       :     0.879408  s :     0.879408
  2 H s       :     0.878221  s :     0.878221


                      *****************************
                      * MAYER POPULATION ANALYSIS *
                      *****************************

  NA   - Mulliken gross atomic population
  ZA   - Total nuclear charge
  QA   - Mulliken gross atomic charge
  VA   - Mayer's total valence
  BVA  - Mayer's bonded valence
  FA   - Mayer's free valence

  ATOM       NA         ZA         QA         VA         BVA        FA
  0 O      8.2316     8.0000    -0.2316     1.9693     1.9693     0.0000
  1 H      0.8848     1.0000     0.1152     0.9869     0.9869    -0.0000
  2 H      0.8836     1.0000     0.1164     0.9866     0.9866     0.0000

  Mayer bond orders larger than 0.1
B(  0-O ,  1-H ) :   0.9848 B(  0-O ,  2-H ) :   0.9845 

-------
TIMINGS
-------

Total SCF time: 0 days 0 hours 0 min 4 sec 

Total time                  ....       4.819 sec
Sum of individual times     ....       4.369 sec  ( 90.7%)

Fock matrix formation       ....       4.128 sec  ( 85.7%)
  XC integration            ....       0.976 sec  ( 23.6% of F)
    Basis function eval.    ....       0.171 sec  ( 17.6% of XC)
    Density eval.           ....       0.036 sec  (  3.7% of XC)
    XC-Functional eval.     ....       0.271 sec  ( 27.8% of XC)
    XC-Potential eval.      ....       0.014 sec  (  1.5% of XC)
Diagonalization             ....       0.020 sec  (  0.4%)
Density matrix formation    ....       0.000 sec  (  0.0%)
Population analysis         ....       0.011 sec  (  0.2%)
Initial guess               ....       0.109 sec  (  2.3%)
Orbital Transformation      ....       0.000 sec  (  0.0%)
Orbital Orthonormalization  ....       0.000 sec  (  0.0%)
DIIS solution               ....       0.000 sec  (  0.0%)
Grid generation             ....       0.101 sec  (  2.1%)


-------------------------------------------------------------------------------
                          DFT DISPERSION CORRECTION                            
                                                                               
                              DFTD3 V3.1  Rev 1                                
                              USING zero damping                               
-------------------------------------------------------------------------------
The omegaB97X-D3 functional is recognized. Fit by Chai et al.
Active option DFTDOPT                   ...         3   

molecular C6(AA) [au] = 85.408656 


            DFT-D V3
 parameters
 s6 scaling factor         :     1.0000 
 rs6 scaling factor        :     1.2810 
 s8 scaling factor         :     1.0000 
 rs8 scaling factor        :     1.0940 
 Damping factor alpha6     :    14.0000 
 Damping factor alpha8     :    16.0000 
 ad hoc parameters k1-k3   :    16.0000     1.3333    -4.0000 

 Edisp/kcal,au: -0.308370513120  -0.000491419641 
 E6   /kcal   :  -0.067621686 
 E8   /kcal   :  -0.240748827 
 % E8         :  78.071286700 

-------------------------   ----------------
Dispersion correction           -0.000491420
-------------------------   ----------------


-------------------------   --------------------
FINAL SINGLE POINT ENERGY       -75.859247246452
-------------------------   --------------------


                            ***************************************
                            *     ORCA property calculations      *
                            ***************************************

                                    ---------------------
                                    Active property flags
                                    ---------------------
   (+) Dipole Moment


------------------------------------------------------------------------------
                       ORCA ELECTRIC PROPERTIES CALCULATION
------------------------------------------------------------------------------

Dipole Moment Calculation                       ... on
Quadrupole Moment Calculation                   ... off
Polarizability Calculation                      ... off
GBWName                                         ... Scan_22.gbw
Electron density file                           ... Scan_22.scfp.tmp

-------------
DIPOLE MOMENT
-------------
                                X             Y             Z
Electronic contribution:     -0.78897      -0.78316      -0.78036
Nuclear contribution   :      1.09489       1.09686       1.09294
                        -----------------------------------------
Total Dipole Moment    :      0.30593       0.31370       0.31258
                        -----------------------------------------
Magnitude (a.u.)       :      0.53824
Magnitude (Debye)      :      1.36810


Timings for individual modules:

Sum of individual times         ...        5.192 sec (=   0.087 min)
GTO integral calculation        ...        0.329 sec (=   0.005 min)   6.3 %
SCF iterations                  ...        4.863 sec (=   0.081 min)  93.7 %
                             ****ORCA TERMINATED NORMALLY****
TOTAL RUN TIME: 0 days 0 hours 0 minutes 5 seconds 553 msec
