
                                 *****************
                                 * O   R   C   A *
                                 *****************

           --- An Ab Initio, DFT and Semiempirical electronic structure package ---

                  #######################################################
                  #                        -***-                        #
                  #  Department of molecular theory and spectroscopy    #
                  #              Directorship: Frank Neese              #
                  # Max Planck Institute for Chemical Energy Conversion #
                  #                  D-45470 Muelheim/Ruhr              #
                  #                       Germany                       #
                  #                                                     #
                  #                  All rights reserved                #
                  #                        -***-                        #
                  #######################################################


                         Program Version 4.0.0.2 - RELEASE -


 With contributions from (in alphabetic order):
   Daniel Aravena         : Magnetic Properties
   Michael Atanasov       : Ab Initio Ligand Field Theory
   Ute Becker             : Parallelization
   Martin Brehm           : Molecular dynamics
   Dmytro Bykov           : SCF Hessian
   Vijay G. Chilkuri      : MRCI spin determinant printing
   Dipayan Datta          : RHF DLPNO-CCSD density
   Achintya Kumar Dutta   : EOM-CC, STEOM-CC
   Dmitry Ganyushin       : Spin-Orbit,Spin-Spin,Magnetic field MRCI
   Yang Guo               : DLPNO-NEVPT2, CIM, IAO-localization
   Andreas Hansen         : Spin unrestricted coupled pair/coupled cluster methods
   Lee Huntington         : MR-EOM, pCC
   Robert Izsak           : Overlap fitted RIJCOSX, COSX-SCS-MP3, EOM
   Christian Kollmar      : KDIIS, OOCD, Brueckner-CCSD(T), CCSD density
   Simone Kossmann        : Meta GGA functionals, TD-DFT gradient, OOMP2, MP2 Hessian
   Martin Krupicka        : AUTO-CI
   Dagmar Lenk            : GEPOL surface
   Dimitrios Liakos       : Extrapolation schemes; parallel MDCI
   Dimitrios Manganas     : ROCIS; embedding schemes
   Dimitrios Pantazis     : SARC Basis sets
   Taras Petrenko         : DFT Hessian,TD-DFT gradient, ASA, ECA, R-Raman, ABS, FL, XAS/XES, NRVS
   Peter Pinski           : DLPNO-MP2
   Christoph Reimann      : Effective Core Potentials
   Marius Retegan         : Local ZFS, SOC
   Christoph Riplinger    : Optimizer, TS searches, QM/MM, DLPNO-CCSD(T), (RO)-DLPNO pert. Triples
   Tobias Risthaus        : Range-separated hybrids, TD-DFT gradient, RPA, STAB
   Michael Roemelt        : Restricted open shell CIS
   Masaaki Saitow         : Open-shell DLPNO
   Barbara Sandhoefer     : DKH picture change effects
   Kantharuban Sivalingam : CASSCF convergence, NEVPT2, FIC-MRCI
   Georgi Stoychev        : AutoAux
   Boris Wezisla          : Elementary symmetry handling
   Frank Wennmohs         : Technical directorship


 We gratefully acknowledge several colleagues who have allowed us to
 interface, adapt or use parts of their codes:
   Stefan Grimme, W. Hujo, H. Kruse,             : VdW corrections, initial TS optimization,
                  C. Bannwarth                     DFT functionals, gCP, sTDA/sTD-DF
   Ed Valeev                                     : LibInt (2-el integral package), F12 methods
   Garnet Chan, S. Sharma, J. Yang, R. Olivares  : DMRG
   Ulf Ekstrom                                   : XCFun DFT Library
   Mihaly Kallay                                 : mrcc  (arbitrary order and MRCC methods)
   Jiri Pittner, Ondrej Demel                    : Mk-CCSD
   Frank Weinhold                                : gennbo (NPA and NBO analysis)
   Christopher J. Cramer and Donald G. Truhlar   : smd solvation model


 Your calculation uses the libint2 library for the computation of 2-el integrals
 For citations please refer to: http://libint.valeyev.net

 This ORCA versions uses:
   CBLAS   interface :  Fast vector & matrix operations
   LAPACKE interface :  Fast linear algebra routines
   SCALAPACK package :  Parallel linear algebra routines


Your calculation utilizes the atom-pairwise dispersion correction
with the zero-damping scheme (D30)
Cite in your paper:
S.Grimme, J.Antony, S.Ehrlich and H.Krieg, J.Chem.Phys., 132, (2010), 154104 
   

XCFun DFT library Copyright 2009-2010 Ulf Ekstrom and contributors.
See http://admol.org/xcfun for more information. This is free soft-
ware; see the source code for copying conditions. There is ABSOLUTELY
NO WARRANTY; not even for MERCHANTABILITY or FITNESS FOR A PARTICULAR
PURPOSE. For details see the documentation. Scientific users of this 
library should cite U. Ekstrom, L. Visscher, R. Bast, A. J. Thorvald-
sen and K. Ruud; J.Chem.Theor.Comp. 2010, DOI: 10.1021/ct100117s
XCFun Version 0.99 
Your calculation utilizes the basis: 6-31G(d)
   H-He, Li-Ne : W. J. Hehre, R. Ditchfield and J.A. Pople, J. Chem. Phys. 56, 2257 (1972).
                 Note: He and Ne are unpublished basis sets taken from the Gaussian program.
                 Note: Li and B from J. D. Dill and J. A. Pople, J. Chem. Phys. 62, 2921 (1975).
   Na - Ar     : M. M. Francl, W. J. Pietro, W. J. Hehre, J. S. Binkley, M. S. Gordon, 
                 D. J. DeFrees and J. A. Pople, J. Chem. Phys. 77, 3654 (1982).
   K - Zn      : V. A. Rassolov, J. A. Pople, M. A. Ratner, and T. L. Windus, J. Chem. Phys. 109, 1223 (1998).

================================================================================
                                        WARNINGS
                       Please study these warnings very carefully!
================================================================================

Warning: TCutStore was < 0. Adjusted to Thresh (uncritical)

INFO   : the flag for use of LIBINT has been found!

================================================================================
                                       INPUT FILE
================================================================================
NAME = initial23.inp
|  1> ! WB97X-D3 6-31G(d) VerySlowConv
|  2> ! KDIIS NOSOSCF
|  3> %base "Scan_23"
|  4> 
|  5> %scf
|  6> maxiter 999
|  7> end
|  8> 
|  9> * xyz 0 1
| 10> O         -0.164379747498    1.483428456745   -0.095133480092
| 11> H          2.442307220712    0.878447260821   -0.697953567287
| 12> H         -1.838487473214    3.022664282433    1.438597047378
| 13> **                         ****END OF INPUT****
================================================================================

                       ****************************
                       * Single Point Calculation *
                       ****************************

---------------------------------
CARTESIAN COORDINATES (ANGSTROEM)
---------------------------------
  O     -0.164380    1.483428   -0.095133
  H      2.442307    0.878447   -0.697954
  H     -1.838487    3.022664    1.438597

----------------------------
CARTESIAN COORDINATES (A.U.)
----------------------------
  NO LB      ZA    FRAG     MASS         X           Y           Z
   0 O     8.0000    0    15.999   -0.310633    2.803274   -0.179776
   1 H     1.0000    0     1.008    4.615292    1.660025   -1.318941
   2 H     1.0000    0     1.008   -3.474238    5.712008    2.718554

--------------------------------
INTERNAL COORDINATES (ANGSTROEM)
--------------------------------
 O      0   0   0     0.000000000000     0.00000000     0.00000000
 H      1   0   0     2.743029576068     0.00000000     0.00000000
 H      1   2   0     2.743029882316   145.75284827     0.00000000

---------------------------
INTERNAL COORDINATES (A.U.)
---------------------------
 O      0   0   0     0.000000000000     0.00000000     0.00000000
 H      1   0   0     5.183574676014     0.00000000     0.00000000
 H      1   2   0     5.183575254739   145.75284827     0.00000000

---------------------
BASIS SET INFORMATION
---------------------
There are 2 groups of distinct atoms

 Group   1 Type O   : 10s4p1d contracted to 3s2p1d pattern {631/31/1}
 Group   2 Type H   : 4s contracted to 2s pattern {31}

Atom   0O    basis set group =>   1
Atom   1H    basis set group =>   2
Atom   2H    basis set group =>   2
------------------------------------------------------------------------------
                           ORCA GTO INTEGRAL CALCULATION
------------------------------------------------------------------------------

                         BASIS SET STATISTICS AND STARTUP INFO

 # of primitive gaussian shells          ...   23
 # of primitive gaussian functions       ...   35
 # of contracted shells                  ...   10
 # of contracted basis functions         ...   18
 Highest angular momentum                ...    2
 Maximum contraction depth               ...    6
 Integral package used                   ... LIBINT
 Integral threshhold            Thresh   ...  1.000e-10
 Primitive cut-off              TCut     ...  1.000e-11


------------------------------ INTEGRAL EVALUATION ----------------------------


 * One electron integrals 
 Pre-screening matrix                    ... done
 Shell pair data                         ... done (   0.000 sec)

-------------------------------------------------------------------------------
                                 ORCA SCF
-------------------------------------------------------------------------------

------------
SCF SETTINGS
------------
Hamiltonian:
 Density Functional     Method          .... DFT(GTOs)
 Exchange Functional    Exchange        .... WB97X-D3
 Correlation Functional Correlation     .... WB97X-D3
 Gradients option       PostSCFGGA      .... off
 Hybrid DFT is turned on
   Fraction HF Exchange ScalHFX         ....  0.195728
   Scaling of DF-GGA-X  ScalDFX         ....  0.000000
   Scaling of DF-GGA-C  ScalDFC         ....  1.000000
   Scaling of DF-LDA-C  ScalLDAC        ....  1.000000
   Perturbative correction              ....  0.000000
 Long-range corrected/Screened/Range-Separated Hybrid DFT is turned on
   Amount of maximum screened exact exchange              ....  0.804272
   Range separation parameter mu (erf(mu*r12)/r12)        ....  0.250000


General Settings:
 Integral files         IntName         .... Scan_23
 Hartree-Fock type      HFTyp           .... RHF
 Total Charge           Charge          ....    0
 Multiplicity           Mult            ....    1
 Number of Electrons    NEL             ....   10
 Basis Dimension        Dim             ....   18
 Nuclear Repulsion      ENuc            ....      3.1876055037 Eh

Convergence Acceleration:
 DIIS                   CNVDIIS         .... on
   Start iteration      DIISMaxIt       ....     0
   Startup error        DIISStart       ....  0.200000
   # of expansion vecs  DIISMaxEq       ....     5
   Bias factor          DIISBfac        ....   1.050
   Max. coefficient     DIISMaxC        ....  10.000
 Newton-Raphson         CNVNR           .... off
 SOSCF                  CNVSOSCF        .... off
 Level Shifting         CNVShift        .... off
 Zerner damping         CNVZerner       .... off
 Static damping         CNVDamp         .... off
 Fernandez-Rico         CNVRico         .... off

SCF Procedure:
 Maximum # iterations   MaxIter         ....   999
 SCF integral mode      SCFMode         .... Direct
   Integral package                     .... LIBINT
 Reset frequeny         DirectResetFreq ....    20
 Integral Threshold     Thresh          ....  1.000e-10 Eh
 Primitive CutOff       TCut            ....  1.000e-11 Eh

Convergence Tolerance:
 Convergence Check Mode ConvCheckMode   .... All-Criteria
 Convergence forced     ConvForced      .... 0
 Energy Change          TolE            ....  1.000e-06 Eh
 Max Density Change     TolMaxP         ....  1.000e-05
 RMS Density Change     TolRMSP         ....  1.000e-06
 DIIS Error             TolErr          ....  1.000e-06


Diagonalization of the overlap matrix:
Smallest eigenvalue                        ... 2.240e-01
Time for diagonalization                   ...    0.001 sec
Threshold for overlap eigenvalues          ... 1.000e-08
Number of eigenvalues below threshold      ... 0
Time for construction of square roots      ...    0.004 sec
Total time needed                          ...    0.005 sec

-------------------
DFT GRID GENERATION
-------------------

General Integration Accuracy     IntAcc      ...  4.340
Radial Grid Type                 RadialGrid  ... Gauss-Chebyshev
Angular Grid (max. acc.)         AngularGrid ... Lebedev-110
Angular grid pruning method      GridPruning ... 3 (G Style)
Weight generation scheme         WeightScheme... Becke
Basis function cutoff            BFCut       ...    1.0000e-10
Integration weight cutoff        WCut        ...    1.0000e-14
Grids for H and He will be reduced by one unit

# of grid points (after initial pruning)     ...   3304 (   0.0 sec)
# of grid points (after weights+screening)   ...   3291 (   0.0 sec)
nearest neighbour list constructed           ...    0.0 sec
Grid point re-assignment to atoms done       ...    0.0 sec
Grid point division into batches done        ...    0.0 sec
Reduced shell lists constructed in    0.0 sec

Total number of grid points                  ...     3291
Total number of batches                      ...       54
Average number of points per batch           ...       60
Average number of grid points per atom       ...     1097
Average number of shells per batch           ...     8.16 (81.64%)
Average number of basis functions per batch  ...    15.55 (86.36%)
Average number of large shells per batch     ...     6.62 (81.07%)
Average number of large basis fcns per batch ...    12.55 (80.70%)
Maximum spatial batch extension              ...  17.62, 20.95, 22.48 au
Average spatial batch extension              ...   5.34,  5.98,  5.89 au

Time for grid setup =    0.051 sec

------------------------------
INITIAL GUESS: MODEL POTENTIAL
------------------------------
Loading Hartree-Fock densities                     ... done
Calculating cut-offs                               ... done
Setting up the integral package                    ... done
Initializing the effective Hamiltonian             ... done
Starting the Coulomb interaction                   ... done (   0.0 sec)
Reading the grid                                   ... done
Mapping shells                                     ... done
Starting the XC term evaluation                    ... done (   0.0 sec)
  promolecular density results
     # of electrons  =      9.998555277
     EX              =     -8.524885203
     EC              =     -0.276987931
     EX+EC           =     -8.801873134
Transforming the Hamiltonian                       ... done (   0.0 sec)
Diagonalizing the Hamiltonian                      ... done (   0.0 sec)
Back transforming the eigenvectors                 ... done (   0.0 sec)
Now organizing SCF variables                       ... done
                      ------------------
                      INITIAL GUESS DONE (   0.3 sec)
                      ------------------
--------------
SCF ITERATIONS
--------------
ITER       Energy         Delta-E        Max-DP      RMS-DP      [F,P]   Gradient Norm
               ***  Starting incremental Fock matrix formation  ***
                             ****Resetting KDIIS****
                             ****Turning on KDIIS(Cayley)****
  0    -74.9587986224   0.000000000000 0.07827279  0.00960862  0.3445814   0.316692638
  1    -75.0981547923  -0.139356169969 0.17017517  0.01919888  0.2827158   0.260907170
  2    -75.3162360719  -0.218081279563 0.09779438  0.01488190  0.2019336   0.152278976
  3    -75.4745813013  -0.158345229457 0.18085645  0.02652035  0.1872306   0.106687911
  4    -75.6653354374  -0.190754136042 0.11199569  0.01856685  0.1274787   0.123549270
  5    -75.7548385845  -0.089503147112 0.27083156  0.04231647  0.0895461   0.094456693
  6    -75.7233160170   0.031522567500 0.29654891  0.03823435  0.1550325   0.131360611
  7    -75.7687822163  -0.045466199301 0.20055029  0.02798069  0.1061804   0.069468741
  8    -75.8271476722  -0.058365455902 0.05636298  0.00729079  0.0444784   0.028742448
  9    -75.8358094266  -0.008661754378 0.01454001  0.00218450  0.0119294   0.007988766
 10    -75.8362090650  -0.000399638447 0.00890822  0.00124289  0.0087776   0.004997270
 11    -75.8364975516  -0.000288486603 0.00745651  0.00090296  0.0065167   0.003379998
 12    -75.8366203119  -0.000122760287 0.03656865  0.00467256  0.0069387   0.003791634
 13    -75.8371504427  -0.000530130765 0.00538040  0.00068646  0.0021587   0.001937388
 14    -75.8371514648  -0.000001022099 0.01071829  0.00146171  0.0009827   0.000780833
 15    -75.8372113795  -0.000059914701 0.00675889  0.00105206  0.0009051   0.000861756
 16    -75.8372299365  -0.000018556981 0.00056634  0.00006284  0.0001494   0.000130210
                          ***Energy convergence achieved***
 17    -75.8372303913  -0.000000454884 0.00049626  0.00005587  0.0000785   0.000069512
 18    -75.8372306695  -0.000000278184 0.00176883  0.00021037  0.0000597   0.000044524
 19    -75.8372312654  -0.000000595896 0.00029386  0.00003199  0.0000271   0.000023747
               *** Restarting incremental Fock matrix formation ***
                             ****Resetting KDIIS****
                           ***RMSP convergence achieved***
                           ***MAXP convergence achieved***
                    *** KDIIS BlockDiag ( 0.000 sec) ***

               *****************************************************
               *                     SUCCESS                       *
               *           SCF CONVERGED AFTER  20 CYCLES          *
               *****************************************************

Setting up the final grid:

General Integration Accuracy     IntAcc      ...  4.670
Radial Grid Type                 RadialGrid  ... Gauss-Chebyshev
Angular Grid (max. acc.)         AngularGrid ... Lebedev-302
Angular grid pruning method      GridPruning ... 3 (G Style)
Weight generation scheme         WeightScheme... Becke
Basis function cutoff            BFCut       ...    1.0000e-10
Integration weight cutoff        WCut        ...    1.0000e-14
Grids for H and He will be reduced by one unit

# of grid points (after initial pruning)     ...  13000 (   0.0 sec)
# of grid points (after weights+screening)   ...  12971 (   0.0 sec)
nearest neighbour list constructed           ...    0.0 sec
Grid point re-assignment to atoms done       ...    0.0 sec
Grid point division into batches done        ...    0.1 sec
Reduced shell lists constructed in    0.1 sec

Total number of grid points                  ...    12971
Total number of batches                      ...      205
Average number of points per batch           ...       63
Average number of grid points per atom       ...     4324
Average number of shells per batch           ...     7.13 (71.26%)
Average number of basis functions per batch  ...    13.36 (74.22%)
Average number of large shells per batch     ...     5.55 (77.93%)
Average number of large basis fcns per batch ...    10.33 (77.33%)
Maximum spatial batch extension              ...  15.43, 17.58, 17.58 au
Average spatial batch extension              ...   3.57,  3.84,  3.80 au

Final grid set up in    0.2 sec
Final integration                            ... done (   0.3 sec)
Change in XC energy                          ...    -0.000325230
Integrated number of electrons               ...     9.999911685
Previous integrated no of electrons          ...    10.000961719

----------------
TOTAL SCF ENERGY
----------------

Total Energy       :          -75.83755651 Eh           -2063.64483 eV

Components:
Nuclear Repulsion  :            3.18760550 Eh              86.73916 eV
Electronic Energy  :          -79.02516202 Eh           -2150.38398 eV
One Electron Energy:         -111.08823131 Eh           -3022.86445 eV
Two Electron Energy:           32.06306930 Eh             872.48047 eV

Virial components:
Potential Energy   :         -150.99417549 Eh           -4108.76040 eV
Kinetic Energy     :           75.15661898 Eh            2045.11557 eV
Virial Ratio       :            2.00906025


DFT components:
N(Alpha)           :        4.999955842568 electrons
N(Beta)            :        4.999955842568 electrons
N(Total)           :        9.999911685136 electrons
E(XC)              :       -6.134216256613 Eh       

---------------
SCF CONVERGENCE
---------------

  Last Energy change         ...   -1.6845e-08  Tolerance :   1.0000e-06
  Last MAX-Density change    ...    1.4381e-06  Tolerance :   1.0000e-05
  Last RMS-Density change    ...    1.7390e-07  Tolerance :   1.0000e-06
  Last DIIS Error            ...    4.9764e-06  Tolerance :   1.0000e-06

             **** THE GBW FILE WAS UPDATED (Scan_23.gbw) ****
             **** DENSITY FILE WAS UPDATED (Scan_23.scfp.tmp) ****
             **** ENERGY FILE WAS UPDATED (Scan_23.en.tmp) ****
----------------
ORBITAL ENERGIES
----------------

  NO   OCC          E(Eh)            E(eV) 
   0   2.0000     -19.322960      -525.8045 
   1   2.0000      -0.983653       -26.7665 
   2   2.0000      -0.385633       -10.4936 
   3   2.0000      -0.368862       -10.0373 
   4   2.0000      -0.354933        -9.6582 
   5   0.0000      -0.160419        -4.3652 
   6   0.0000      -0.134405        -3.6574 
   7   0.0000       0.794020        21.6064 
   8   0.0000       0.800371        21.7792 
   9   0.0000       1.006270        27.3820 
  10   0.0000       1.008971        27.4555 
  11   0.0000       1.078379        29.3442 
  12   0.0000       1.151771        31.3413 
  13   0.0000       1.904447        51.8227 
  14   0.0000       1.906653        51.8827 
  15   0.0000       1.921792        52.2946 
  16   0.0000       1.924520        52.3689 
  17   0.0000       1.932292        52.5803 

                    ********************************
                    * MULLIKEN POPULATION ANALYSIS *
                    ********************************

-----------------------
MULLIKEN ATOMIC CHARGES
-----------------------
   0 O :   -0.230954
   1 H :    0.114532
   2 H :    0.116422
Sum of atomic charges:    0.0000000

--------------------------------
MULLIKEN REDUCED ORBITAL CHARGES
--------------------------------
  0 O s       :     3.999070  s :     3.999070
      pz      :     1.571840  p :     4.231505
      px      :     1.090485
      py      :     1.569180
      dz2     :     0.000047  d :     0.000379
      dxz     :     0.000031
      dyz     :     0.000141
      dx2y2   :     0.000128
      dxy     :     0.000032
  1 H s       :     0.885468  s :     0.885468
  2 H s       :     0.883578  s :     0.883578


                     *******************************
                     * LOEWDIN POPULATION ANALYSIS *
                     *******************************

----------------------
LOEWDIN ATOMIC CHARGES
----------------------
   0 O :   -0.239852
   1 H :    0.118990
   2 H :    0.120862

-------------------------------
LOEWDIN REDUCED ORBITAL CHARGES
-------------------------------
  0 O s       :     3.998188  s :     3.998188
      pz      :     1.573772  p :     4.241186
      px      :     1.096289
      py      :     1.571125
      dz2     :     0.000056  d :     0.000479
      dxz     :     0.000056
      dyz     :     0.000154
      dx2y2   :     0.000155
      dxy     :     0.000057
  1 H s       :     0.881010  s :     0.881010
  2 H s       :     0.879138  s :     0.879138


                      *****************************
                      * MAYER POPULATION ANALYSIS *
                      *****************************

  NA   - Mulliken gross atomic population
  ZA   - Total nuclear charge
  QA   - Mulliken gross atomic charge
  VA   - Mayer's total valence
  BVA  - Mayer's bonded valence
  FA   - Mayer's free valence

  ATOM       NA         ZA         QA         VA         BVA        FA
  0 O      8.2310     8.0000    -0.2310     1.9631     1.9631    -0.0000
  1 H      0.8855     1.0000     0.1145     0.9872     0.9872    -0.0000
  2 H      0.8836     1.0000     0.1164     0.9867     0.9867     0.0000

  Mayer bond orders larger than 0.1
B(  0-O ,  1-H ) :   0.9818 B(  0-O ,  2-H ) :   0.9813 

-------
TIMINGS
-------

Total SCF time: 0 days 0 hours 0 min 17 sec 

Total time                  ....      17.054 sec
Sum of individual times     ....      16.042 sec  ( 94.1%)

Fock matrix formation       ....      15.408 sec  ( 90.4%)
  XC integration            ....       2.702 sec  ( 17.5% of F)
    Basis function eval.    ....       0.360 sec  ( 13.3% of XC)
    Density eval.           ....       0.103 sec  (  3.8% of XC)
    XC-Functional eval.     ....       0.492 sec  ( 18.2% of XC)
    XC-Potential eval.      ....       0.017 sec  (  0.6% of XC)
Diagonalization             ....       0.107 sec  (  0.6%)
Density matrix formation    ....       0.000 sec  (  0.0%)
Population analysis         ....       0.048 sec  (  0.3%)
Initial guess               ....       0.229 sec  (  1.3%)
Orbital Transformation      ....       0.000 sec  (  0.0%)
Orbital Orthonormalization  ....       0.000 sec  (  0.0%)
DIIS solution               ....       0.000 sec  (  0.0%)
Grid generation             ....       0.250 sec  (  1.5%)


-------------------------------------------------------------------------------
                          DFT DISPERSION CORRECTION                            
                                                                               
                              DFTD3 V3.1  Rev 1                                
                              USING zero damping                               
-------------------------------------------------------------------------------
The omegaB97X-D3 functional is recognized. Fit by Chai et al.
Active option DFTDOPT                   ...         3   

molecular C6(AA) [au] = 85.409341 


            DFT-D V3
 parameters
 s6 scaling factor         :     1.0000 
 rs6 scaling factor        :     1.2810 
 s8 scaling factor         :     1.0000 
 rs8 scaling factor        :     1.0940 
 Damping factor alpha6     :    14.0000 
 Damping factor alpha8     :    16.0000 
 ad hoc parameters k1-k3   :    16.0000     1.3333    -4.0000 

 Edisp/kcal,au: -0.315502253043  -0.000502784790 
 E6   /kcal   :  -0.081267508 
 E8   /kcal   :  -0.234234745 
 % E8         :  74.241861398 

-------------------------   ----------------
Dispersion correction           -0.000502785
-------------------------   ----------------


-------------------------   --------------------
FINAL SINGLE POINT ENERGY       -75.838059297169
-------------------------   --------------------


                            ***************************************
                            *     ORCA property calculations      *
                            ***************************************

                                    ---------------------
                                    Active property flags
                                    ---------------------
   (+) Dipole Moment


------------------------------------------------------------------------------
                       ORCA ELECTRIC PROPERTIES CALCULATION
------------------------------------------------------------------------------

Dipole Moment Calculation                       ... on
Quadrupole Moment Calculation                   ... off
Polarizability Calculation                      ... off
GBWName                                         ... Scan_23.gbw
Electron density file                           ... Scan_23.scfp.tmp

-------------
DIPOLE MOMENT
-------------
                                X             Y             Z
Electronic contribution:     -0.57103      -0.56100      -0.55900
Nuclear contribution   :      0.77624       0.77764       0.77485
                        -----------------------------------------
Total Dipole Moment    :      0.20521       0.21663       0.21585
                        -----------------------------------------
Magnitude (a.u.)       :      0.36828
Magnitude (Debye)      :      0.93610


Timings for individual modules:

Sum of individual times         ...       18.335 sec (=   0.306 min)
GTO integral calculation        ...        1.049 sec (=   0.017 min)   5.7 %
SCF iterations                  ...       17.286 sec (=   0.288 min)  94.3 %
                             ****ORCA TERMINATED NORMALLY****
TOTAL RUN TIME: 0 days 0 hours 0 minutes 19 seconds 596 msec
