
                                 *****************
                                 * O   R   C   A *
                                 *****************

           --- An Ab Initio, DFT and Semiempirical electronic structure package ---

                  #######################################################
                  #                        -***-                        #
                  #  Department of molecular theory and spectroscopy    #
                  #              Directorship: Frank Neese              #
                  # Max Planck Institute for Chemical Energy Conversion #
                  #                  D-45470 Muelheim/Ruhr              #
                  #                       Germany                       #
                  #                                                     #
                  #                  All rights reserved                #
                  #                        -***-                        #
                  #######################################################


                         Program Version 4.0.0.2 - RELEASE -


 With contributions from (in alphabetic order):
   Daniel Aravena         : Magnetic Properties
   Michael Atanasov       : Ab Initio Ligand Field Theory
   Ute Becker             : Parallelization
   Martin Brehm           : Molecular dynamics
   Dmytro Bykov           : SCF Hessian
   Vijay G. Chilkuri      : MRCI spin determinant printing
   Dipayan Datta          : RHF DLPNO-CCSD density
   Achintya Kumar Dutta   : EOM-CC, STEOM-CC
   Dmitry Ganyushin       : Spin-Orbit,Spin-Spin,Magnetic field MRCI
   Yang Guo               : DLPNO-NEVPT2, CIM, IAO-localization
   Andreas Hansen         : Spin unrestricted coupled pair/coupled cluster methods
   Lee Huntington         : MR-EOM, pCC
   Robert Izsak           : Overlap fitted RIJCOSX, COSX-SCS-MP3, EOM
   Christian Kollmar      : KDIIS, OOCD, Brueckner-CCSD(T), CCSD density
   Simone Kossmann        : Meta GGA functionals, TD-DFT gradient, OOMP2, MP2 Hessian
   Martin Krupicka        : AUTO-CI
   Dagmar Lenk            : GEPOL surface
   Dimitrios Liakos       : Extrapolation schemes; parallel MDCI
   Dimitrios Manganas     : ROCIS; embedding schemes
   Dimitrios Pantazis     : SARC Basis sets
   Taras Petrenko         : DFT Hessian,TD-DFT gradient, ASA, ECA, R-Raman, ABS, FL, XAS/XES, NRVS
   Peter Pinski           : DLPNO-MP2
   Christoph Reimann      : Effective Core Potentials
   Marius Retegan         : Local ZFS, SOC
   Christoph Riplinger    : Optimizer, TS searches, QM/MM, DLPNO-CCSD(T), (RO)-DLPNO pert. Triples
   Tobias Risthaus        : Range-separated hybrids, TD-DFT gradient, RPA, STAB
   Michael Roemelt        : Restricted open shell CIS
   Masaaki Saitow         : Open-shell DLPNO
   Barbara Sandhoefer     : DKH picture change effects
   Kantharuban Sivalingam : CASSCF convergence, NEVPT2, FIC-MRCI
   Georgi Stoychev        : AutoAux
   Boris Wezisla          : Elementary symmetry handling
   Frank Wennmohs         : Technical directorship


 We gratefully acknowledge several colleagues who have allowed us to
 interface, adapt or use parts of their codes:
   Stefan Grimme, W. Hujo, H. Kruse,             : VdW corrections, initial TS optimization,
                  C. Bannwarth                     DFT functionals, gCP, sTDA/sTD-DF
   Ed Valeev                                     : LibInt (2-el integral package), F12 methods
   Garnet Chan, S. Sharma, J. Yang, R. Olivares  : DMRG
   Ulf Ekstrom                                   : XCFun DFT Library
   Mihaly Kallay                                 : mrcc  (arbitrary order and MRCC methods)
   Jiri Pittner, Ondrej Demel                    : Mk-CCSD
   Frank Weinhold                                : gennbo (NPA and NBO analysis)
   Christopher J. Cramer and Donald G. Truhlar   : smd solvation model


 Your calculation uses the libint2 library for the computation of 2-el integrals
 For citations please refer to: http://libint.valeyev.net

 This ORCA versions uses:
   CBLAS   interface :  Fast vector & matrix operations
   LAPACKE interface :  Fast linear algebra routines
   SCALAPACK package :  Parallel linear algebra routines


Your calculation utilizes the atom-pairwise dispersion correction
with the zero-damping scheme (D30)
Cite in your paper:
S.Grimme, J.Antony, S.Ehrlich and H.Krieg, J.Chem.Phys., 132, (2010), 154104 
   

XCFun DFT library Copyright 2009-2010 Ulf Ekstrom and contributors.
See http://admol.org/xcfun for more information. This is free soft-
ware; see the source code for copying conditions. There is ABSOLUTELY
NO WARRANTY; not even for MERCHANTABILITY or FITNESS FOR A PARTICULAR
PURPOSE. For details see the documentation. Scientific users of this 
library should cite U. Ekstrom, L. Visscher, R. Bast, A. J. Thorvald-
sen and K. Ruud; J.Chem.Theor.Comp. 2010, DOI: 10.1021/ct100117s
XCFun Version 0.99 
Your calculation utilizes the basis: 6-31G(d)
   H-He, Li-Ne : W. J. Hehre, R. Ditchfield and J.A. Pople, J. Chem. Phys. 56, 2257 (1972).
                 Note: He and Ne are unpublished basis sets taken from the Gaussian program.
                 Note: Li and B from J. D. Dill and J. A. Pople, J. Chem. Phys. 62, 2921 (1975).
   Na - Ar     : M. M. Francl, W. J. Pietro, W. J. Hehre, J. S. Binkley, M. S. Gordon, 
                 D. J. DeFrees and J. A. Pople, J. Chem. Phys. 77, 3654 (1982).
   K - Zn      : V. A. Rassolov, J. A. Pople, M. A. Ratner, and T. L. Windus, J. Chem. Phys. 109, 1223 (1998).

================================================================================
                                        WARNINGS
                       Please study these warnings very carefully!
================================================================================

Warning: TCutStore was < 0. Adjusted to Thresh (uncritical)

INFO   : the flag for use of LIBINT has been found!

================================================================================
                                       INPUT FILE
================================================================================
NAME = initial24.inp
|  1> ! WB97X-D3 6-31G(d) VerySlowConv
|  2> ! KDIIS NOSOSCF
|  3> %base "Scan_24"
|  4> 
|  5> %scf
|  6> maxiter 999
|  7> end
|  8> 
|  9> * xyz 0 1
| 10> O         -0.219437930018    1.428271391610   -0.150093109035
| 11> H          2.520491307489    0.880653100366   -0.695755728627
| 12> H         -1.861613377471    3.075615508025    1.491358837662
| 13> **                         ****END OF INPUT****
================================================================================

                       ****************************
                       * Single Point Calculation *
                       ****************************

---------------------------------
CARTESIAN COORDINATES (ANGSTROEM)
---------------------------------
  O     -0.219438    1.428271   -0.150093
  H      2.520491    0.880653   -0.695756
  H     -1.861613    3.075616    1.491359

----------------------------
CARTESIAN COORDINATES (A.U.)
----------------------------
  NO LB      ZA    FRAG     MASS         X           Y           Z
   0 O     8.0000    0    15.999   -0.414678    2.699042   -0.283635
   1 H     1.0000    0     1.008    4.763038    1.664193   -1.314788
   2 H     1.0000    0     1.008   -3.517939    5.812071    2.818260

--------------------------------
INTERNAL COORDINATES (ANGSTROEM)
--------------------------------
 O      0   0   0     0.000000000000     0.00000000     0.00000000
 H      1   0   0     2.846901072020     0.00000000     0.00000000
 H      1   2   0     2.846901356110   140.98416961     0.00000000

---------------------------
INTERNAL COORDINATES (A.U.)
---------------------------
 O      0   0   0     0.000000000000     0.00000000     0.00000000
 H      1   0   0     5.379863356485     0.00000000     0.00000000
 H      1   2   0     5.379863893337   140.98416961     0.00000000

---------------------
BASIS SET INFORMATION
---------------------
There are 2 groups of distinct atoms

 Group   1 Type O   : 10s4p1d contracted to 3s2p1d pattern {631/31/1}
 Group   2 Type H   : 4s contracted to 2s pattern {31}

Atom   0O    basis set group =>   1
Atom   1H    basis set group =>   2
Atom   2H    basis set group =>   2
------------------------------------------------------------------------------
                           ORCA GTO INTEGRAL CALCULATION
------------------------------------------------------------------------------

                         BASIS SET STATISTICS AND STARTUP INFO

 # of primitive gaussian shells          ...   23
 # of primitive gaussian functions       ...   35
 # of contracted shells                  ...   10
 # of contracted basis functions         ...   18
 Highest angular momentum                ...    2
 Maximum contraction depth               ...    6
 Integral package used                   ... LIBINT
 Integral threshhold            Thresh   ...  1.000e-10
 Primitive cut-off              TCut     ...  1.000e-11


------------------------------ INTEGRAL EVALUATION ----------------------------


 * One electron integrals 
 Pre-screening matrix                    ... done
 Shell pair data                         ... done (   0.000 sec)

-------------------------------------------------------------------------------
                                 ORCA SCF
-------------------------------------------------------------------------------

------------
SCF SETTINGS
------------
Hamiltonian:
 Density Functional     Method          .... DFT(GTOs)
 Exchange Functional    Exchange        .... WB97X-D3
 Correlation Functional Correlation     .... WB97X-D3
 Gradients option       PostSCFGGA      .... off
 Hybrid DFT is turned on
   Fraction HF Exchange ScalHFX         ....  0.195728
   Scaling of DF-GGA-X  ScalDFX         ....  0.000000
   Scaling of DF-GGA-C  ScalDFC         ....  1.000000
   Scaling of DF-LDA-C  ScalLDAC        ....  1.000000
   Perturbative correction              ....  0.000000
 Long-range corrected/Screened/Range-Separated Hybrid DFT is turned on
   Amount of maximum screened exact exchange              ....  0.804272
   Range separation parameter mu (erf(mu*r12)/r12)        ....  0.250000


General Settings:
 Integral files         IntName         .... Scan_24
 Hartree-Fock type      HFTyp           .... RHF
 Total Charge           Charge          ....    0
 Multiplicity           Mult            ....    1
 Number of Electrons    NEL             ....   10
 Basis Dimension        Dim             ....   18
 Nuclear Repulsion      ENuc            ....      3.0726522933 Eh

Convergence Acceleration:
 DIIS                   CNVDIIS         .... on
   Start iteration      DIISMaxIt       ....     0
   Startup error        DIISStart       ....  0.200000
   # of expansion vecs  DIISMaxEq       ....     5
   Bias factor          DIISBfac        ....   1.050
   Max. coefficient     DIISMaxC        ....  10.000
 Newton-Raphson         CNVNR           .... off
 SOSCF                  CNVSOSCF        .... off
 Level Shifting         CNVShift        .... off
 Zerner damping         CNVZerner       .... off
 Static damping         CNVDamp         .... off
 Fernandez-Rico         CNVRico         .... off

SCF Procedure:
 Maximum # iterations   MaxIter         ....   999
 SCF integral mode      SCFMode         .... Direct
   Integral package                     .... LIBINT
 Reset frequeny         DirectResetFreq ....    20
 Integral Threshold     Thresh          ....  1.000e-10 Eh
 Primitive CutOff       TCut            ....  1.000e-11 Eh

Convergence Tolerance:
 Convergence Check Mode ConvCheckMode   .... All-Criteria
 Convergence forced     ConvForced      .... 0
 Energy Change          TolE            ....  1.000e-06 Eh
 Max Density Change     TolMaxP         ....  1.000e-05
 RMS Density Change     TolRMSP         ....  1.000e-06
 DIIS Error             TolErr          ....  1.000e-06


Diagonalization of the overlap matrix:
Smallest eigenvalue                        ... 2.266e-01
Time for diagonalization                   ...    0.000 sec
Threshold for overlap eigenvalues          ... 1.000e-08
Number of eigenvalues below threshold      ... 0
Time for construction of square roots      ...    0.013 sec
Total time needed                          ...    0.013 sec

-------------------
DFT GRID GENERATION
-------------------

General Integration Accuracy     IntAcc      ...  4.340
Radial Grid Type                 RadialGrid  ... Gauss-Chebyshev
Angular Grid (max. acc.)         AngularGrid ... Lebedev-110
Angular grid pruning method      GridPruning ... 3 (G Style)
Weight generation scheme         WeightScheme... Becke
Basis function cutoff            BFCut       ...    1.0000e-10
Integration weight cutoff        WCut        ...    1.0000e-14
Grids for H and He will be reduced by one unit

# of grid points (after initial pruning)     ...   3304 (   0.0 sec)
# of grid points (after weights+screening)   ...   3292 (   0.0 sec)
nearest neighbour list constructed           ...    0.0 sec
Grid point re-assignment to atoms done       ...    0.0 sec
Grid point division into batches done        ...    0.0 sec
Reduced shell lists constructed in    0.0 sec

Total number of grid points                  ...     3292
Total number of batches                      ...       54
Average number of points per batch           ...       60
Average number of grid points per atom       ...     1097
Average number of shells per batch           ...     8.04 (80.36%)
Average number of basis functions per batch  ...    15.24 (84.65%)
Average number of large shells per batch     ...     6.42 (79.86%)
Average number of large basis fcns per batch ...    12.09 (79.36%)
Maximum spatial batch extension              ...  17.62, 20.95, 22.59 au
Average spatial batch extension              ...   5.21,  5.93,  5.93 au

Time for grid setup =    0.028 sec

------------------------------
INITIAL GUESS: MODEL POTENTIAL
------------------------------
Loading Hartree-Fock densities                     ... done
Calculating cut-offs                               ... done
Setting up the integral package                    ... done
Initializing the effective Hamiltonian             ... done
Starting the Coulomb interaction                   ... done (   0.0 sec)
Reading the grid                                   ... done
Mapping shells                                     ... done
Starting the XC term evaluation                    ... done (   0.0 sec)
  promolecular density results
     # of electrons  =      9.998971211
     EX              =     -8.524609317
     EC              =     -0.276753240
     EX+EC           =     -8.801362557
Transforming the Hamiltonian                       ... done (   0.0 sec)
Diagonalizing the Hamiltonian                      ... done (   0.0 sec)
Back transforming the eigenvectors                 ... done (   0.0 sec)
Now organizing SCF variables                       ... done
                      ------------------
                      INITIAL GUESS DONE (   0.2 sec)
                      ------------------
--------------
SCF ITERATIONS
--------------
ITER       Energy         Delta-E        Max-DP      RMS-DP      [F,P]   Gradient Norm
               ***  Starting incremental Fock matrix formation  ***
                             ****Resetting KDIIS****
                             ****Turning on KDIIS(Cayley)****
  0    -74.9035410514   0.000000000000 0.07996665  0.00972199  0.3508954   0.319057117
  1    -75.0453030775  -0.141762026131 0.17099681  0.01955446  0.2889706   0.262985686
  2    -75.2615597345  -0.216256657008 0.09322245  0.01540776  0.1860019   0.151583904
  3    -75.4176366562  -0.156076921699 0.17577997  0.03125787  0.1810998   0.108713636
  4    -75.6858394352  -0.268202778939 0.19814978  0.03205674  0.1393061   0.107787102
  5    -75.7846994380  -0.098860002837 0.15450167  0.02432564  0.1184530   0.083735029
  6    -75.7617384053   0.022961032711 0.18727111  0.02617950  0.1017193   0.066689287
  7    -75.8033496872  -0.041611281949 0.08522643  0.01155970  0.0550966   0.044768741
  8    -75.8170859188  -0.013736231531 0.00711807  0.00113401  0.0232927   0.014505121
  9    -75.8179062302  -0.000820311424 0.00207462  0.00029884  0.0206050   0.012641342
 10    -75.8181297474  -0.000223517173 0.04752282  0.00639029  0.0200299   0.012288107
 11    -75.8214886424  -0.003358895011 0.12859001  0.01545136  0.0136953   0.008676681
 12    -75.8242341567  -0.002745514346 0.01841029  0.00236208  0.0065399   0.005531255
 13    -75.8244608381  -0.000226681358 0.00326000  0.00050387  0.0015637   0.001350173
                          ***Energy convergence achieved***
 14    -75.8244616957  -0.000000857643 0.00240406  0.00030551  0.0013211   0.000942086
 15    -75.8244712209  -0.000009525189 0.00457787  0.00061491  0.0009028   0.000651970
 16    -75.8244821468  -0.000010925899 0.00294182  0.00035287  0.0002814   0.000174305
 17    -75.8244852550  -0.000003108215 0.00276138  0.00029313  0.0001824   0.000115766
 18    -75.8244872394  -0.000001984336 0.00279467  0.00029465  0.0000831   0.000084703
                          ***Energy convergence achieved***
 19    -75.8244879260  -0.000000686636 0.00066218  0.00008369  0.0000345   0.000028736
               *** Restarting incremental Fock matrix formation ***
                             ****Resetting KDIIS****
                           ***RMSP convergence achieved***
                           ***MAXP convergence achieved***
                    *** KDIIS BlockDiag ( 0.000 sec) ***

               *****************************************************
               *                     SUCCESS                       *
               *           SCF CONVERGED AFTER  20 CYCLES          *
               *****************************************************

Setting up the final grid:

General Integration Accuracy     IntAcc      ...  4.670
Radial Grid Type                 RadialGrid  ... Gauss-Chebyshev
Angular Grid (max. acc.)         AngularGrid ... Lebedev-302
Angular grid pruning method      GridPruning ... 3 (G Style)
Weight generation scheme         WeightScheme... Becke
Basis function cutoff            BFCut       ...    1.0000e-10
Integration weight cutoff        WCut        ...    1.0000e-14
Grids for H and He will be reduced by one unit

# of grid points (after initial pruning)     ...  13000 (   0.0 sec)
# of grid points (after weights+screening)   ...  12969 (   0.0 sec)
nearest neighbour list constructed           ...    0.0 sec
Grid point re-assignment to atoms done       ...    0.0 sec
Grid point division into batches done        ...    0.0 sec
Reduced shell lists constructed in    0.2 sec

Total number of grid points                  ...    12969
Total number of batches                      ...      204
Average number of points per batch           ...       63
Average number of grid points per atom       ...     4323
Average number of shells per batch           ...     7.03 (70.34%)
Average number of basis functions per batch  ...    13.26 (73.66%)
Average number of large shells per batch     ...     5.49 (78.02%)
Average number of large basis fcns per batch ...    10.21 (77.01%)
Maximum spatial batch extension              ...  15.39, 19.94, 19.94 au
Average spatial batch extension              ...   3.58,  3.82,  3.84 au

Final grid set up in    0.2 sec
Final integration                            ... done (   0.3 sec)
Change in XC energy                          ...    -0.000254362
Integrated number of electrons               ...     9.999889371
Previous integrated no of electrons          ...    10.000066570

----------------
TOTAL SCF ENERGY
----------------

Total Energy       :          -75.82474241 Eh           -2063.29614 eV

Components:
Nuclear Repulsion  :            3.07265229 Eh              83.61112 eV
Electronic Energy  :          -78.89739471 Eh           -2146.90726 eV
One Electron Energy:         -110.84826662 Eh           -3016.33468 eV
Two Electron Energy:           31.95087191 Eh             869.42743 eV

Virial components:
Potential Energy   :         -150.99575162 Eh           -4108.80329 eV
Kinetic Energy     :           75.17100920 Eh            2045.50715 eV
Virial Ratio       :            2.00869661


DFT components:
N(Alpha)           :        4.999944685519 electrons
N(Beta)            :        4.999944685519 electrons
N(Total)           :        9.999889371038 electrons
E(XC)              :       -6.133855572563 Eh       

---------------
SCF CONVERGENCE
---------------

  Last Energy change         ...   -1.2574e-07  Tolerance :   1.0000e-06
  Last MAX-Density change    ...    7.5978e-06  Tolerance :   1.0000e-05
  Last RMS-Density change    ...    7.3144e-07  Tolerance :   1.0000e-06
  Last DIIS Error            ...    1.3154e-05  Tolerance :   1.0000e-06

             **** THE GBW FILE WAS UPDATED (Scan_24.gbw) ****
             **** DENSITY FILE WAS UPDATED (Scan_24.scfp.tmp) ****
             **** ENERGY FILE WAS UPDATED (Scan_24.en.tmp) ****
----------------
ORBITAL ENERGIES
----------------

  NO   OCC          E(Eh)            E(eV) 
   0   2.0000     -19.322700      -525.7974 
   1   2.0000      -0.983814       -26.7709 
   2   2.0000      -0.385872       -10.5001 
   3   2.0000      -0.362755        -9.8711 
   4   2.0000      -0.353299        -9.6138 
   5   0.0000      -0.163628        -4.4525 
   6   0.0000      -0.141347        -3.8463 
   7   0.0000       0.792487        21.5647 
   8   0.0000       0.800785        21.7905 
   9   0.0000       1.007642        27.4193 
  10   0.0000       1.009228        27.4625 
  11   0.0000       1.067406        29.0456 
  12   0.0000       1.142722        31.0951 
  13   0.0000       1.903145        51.7872 
  14   0.0000       1.905050        51.8390 
  15   0.0000       1.921094        52.2756 
  16   0.0000       1.924099        52.3574 
  17   0.0000       1.931276        52.5527 

                    ********************************
                    * MULLIKEN POPULATION ANALYSIS *
                    ********************************

-----------------------
MULLIKEN ATOMIC CHARGES
-----------------------
   0 O :   -0.226490
   1 H :    0.112233
   2 H :    0.114258
Sum of atomic charges:   -0.0000000

--------------------------------
MULLIKEN REDUCED ORBITAL CHARGES
--------------------------------
  0 O s       :     3.999275  s :     3.999275
      pz      :     1.571497  p :     4.226875
      px      :     1.086840
      py      :     1.568537
      dz2     :     0.000043  d :     0.000340
      dxz     :     0.000024
      dyz     :     0.000133
      dx2y2   :     0.000117
      dxy     :     0.000024
  1 H s       :     0.887767  s :     0.887767
  2 H s       :     0.885742  s :     0.885742


                     *******************************
                     * LOEWDIN POPULATION ANALYSIS *
                     *******************************

----------------------
LOEWDIN ATOMIC CHARGES
----------------------
   0 O :   -0.234198
   1 H :    0.116094
   2 H :    0.118104

-------------------------------
LOEWDIN REDUCED ORBITAL CHARGES
-------------------------------
  0 O s       :     3.998692  s :     3.998692
      pz      :     1.573177  p :     4.235100
      px      :     1.091694
      py      :     1.570229
      dz2     :     0.000049  d :     0.000407
      dxz     :     0.000039
      dyz     :     0.000143
      dx2y2   :     0.000136
      dxy     :     0.000040
  1 H s       :     0.883906  s :     0.883906
  2 H s       :     0.881896  s :     0.881896


                      *****************************
                      * MAYER POPULATION ANALYSIS *
                      *****************************

  NA   - Mulliken gross atomic population
  ZA   - Total nuclear charge
  QA   - Mulliken gross atomic charge
  VA   - Mayer's total valence
  BVA  - Mayer's bonded valence
  FA   - Mayer's free valence

  ATOM       NA         ZA         QA         VA         BVA        FA
  0 O      8.2265     8.0000    -0.2265     1.9629     1.9629    -0.0000
  1 H      0.8878     1.0000     0.1122     0.9876     0.9876    -0.0000
  2 H      0.8857     1.0000     0.1143     0.9872     0.9872     0.0000

  Mayer bond orders larger than 0.1
B(  0-O ,  1-H ) :   0.9817 B(  0-O ,  2-H ) :   0.9812 

-------
TIMINGS
-------

Total SCF time: 0 days 0 hours 0 min 17 sec 

Total time                  ....      17.897 sec
Sum of individual times     ....      16.812 sec  ( 93.9%)

Fock matrix formation       ....      16.140 sec  ( 90.2%)
  XC integration            ....       2.880 sec  ( 17.8% of F)
    Basis function eval.    ....       0.273 sec  (  9.5% of XC)
    Density eval.           ....       0.101 sec  (  3.5% of XC)
    XC-Functional eval.     ....       0.643 sec  ( 22.3% of XC)
    XC-Potential eval.      ....       0.019 sec  (  0.7% of XC)
Diagonalization             ....       0.052 sec  (  0.3%)
Density matrix formation    ....       0.000 sec  (  0.0%)
Population analysis         ....       0.042 sec  (  0.2%)
Initial guess               ....       0.309 sec  (  1.7%)
Orbital Transformation      ....       0.000 sec  (  0.0%)
Orbital Orthonormalization  ....       0.000 sec  (  0.0%)
DIIS solution               ....       0.000 sec  (  0.0%)
Grid generation             ....       0.269 sec  (  1.5%)


-------------------------------------------------------------------------------
                          DFT DISPERSION CORRECTION                            
                                                                               
                              DFTD3 V3.1  Rev 1                                
                              USING zero damping                               
-------------------------------------------------------------------------------
The omegaB97X-D3 functional is recognized. Fit by Chai et al.
Active option DFTDOPT                   ...         3   

molecular C6(AA) [au] = 85.409816 


            DFT-D V3
 parameters
 s6 scaling factor         :     1.0000 
 rs6 scaling factor        :     1.2810 
 s8 scaling factor         :     1.0000 
 rs8 scaling factor        :     1.0940 
 Damping factor alpha6     :    14.0000 
 Damping factor alpha8     :    16.0000 
 ad hoc parameters k1-k3   :    16.0000     1.3333    -4.0000 

 Edisp/kcal,au: -0.309661805675  -0.000493477446 
 E6   /kcal   :  -0.099471630 
 E8   /kcal   :  -0.210190176 
 % E8         :  67.877333202 

-------------------------   ----------------
Dispersion correction           -0.000493477
-------------------------   ----------------


-------------------------   --------------------
FINAL SINGLE POINT ENERGY       -75.825235890836
-------------------------   --------------------


                            ***************************************
                            *     ORCA property calculations      *
                            ***************************************

                                    ---------------------
                                    Active property flags
                                    ---------------------
   (+) Dipole Moment


------------------------------------------------------------------------------
                       ORCA ELECTRIC PROPERTIES CALCULATION
------------------------------------------------------------------------------

Dipole Moment Calculation                       ... on
Quadrupole Moment Calculation                   ... off
Polarizability Calculation                      ... off
GBWName                                         ... Scan_24.gbw
Electron density file                           ... Scan_24.scfp.tmp

-------------
DIPOLE MOMENT
-------------
                                X             Y             Z
Electronic contribution:     -0.67550      -0.66423      -0.66185
Nuclear contribution   :      0.91373       0.91537       0.91209
                        -----------------------------------------
Total Dipole Moment    :      0.23823       0.25114       0.25024
                        -----------------------------------------
Magnitude (a.u.)       :      0.42713
Magnitude (Debye)      :      1.08568


Timings for individual modules:

Sum of individual times         ...       19.425 sec (=   0.324 min)
GTO integral calculation        ...        1.306 sec (=   0.022 min)   6.7 %
SCF iterations                  ...       18.120 sec (=   0.302 min)  93.3 %
                             ****ORCA TERMINATED NORMALLY****
TOTAL RUN TIME: 0 days 0 hours 0 minutes 20 seconds 847 msec
