
                                 *****************
                                 * O   R   C   A *
                                 *****************

           --- An Ab Initio, DFT and Semiempirical electronic structure package ---

                  #######################################################
                  #                        -***-                        #
                  #  Department of molecular theory and spectroscopy    #
                  #              Directorship: Frank Neese              #
                  # Max Planck Institute for Chemical Energy Conversion #
                  #                  D-45470 Muelheim/Ruhr              #
                  #                       Germany                       #
                  #                                                     #
                  #                  All rights reserved                #
                  #                        -***-                        #
                  #######################################################


                         Program Version 4.0.0.2 - RELEASE -


 With contributions from (in alphabetic order):
   Daniel Aravena         : Magnetic Properties
   Michael Atanasov       : Ab Initio Ligand Field Theory
   Ute Becker             : Parallelization
   Martin Brehm           : Molecular dynamics
   Dmytro Bykov           : SCF Hessian
   Vijay G. Chilkuri      : MRCI spin determinant printing
   Dipayan Datta          : RHF DLPNO-CCSD density
   Achintya Kumar Dutta   : EOM-CC, STEOM-CC
   Dmitry Ganyushin       : Spin-Orbit,Spin-Spin,Magnetic field MRCI
   Yang Guo               : DLPNO-NEVPT2, CIM, IAO-localization
   Andreas Hansen         : Spin unrestricted coupled pair/coupled cluster methods
   Lee Huntington         : MR-EOM, pCC
   Robert Izsak           : Overlap fitted RIJCOSX, COSX-SCS-MP3, EOM
   Christian Kollmar      : KDIIS, OOCD, Brueckner-CCSD(T), CCSD density
   Simone Kossmann        : Meta GGA functionals, TD-DFT gradient, OOMP2, MP2 Hessian
   Martin Krupicka        : AUTO-CI
   Dagmar Lenk            : GEPOL surface
   Dimitrios Liakos       : Extrapolation schemes; parallel MDCI
   Dimitrios Manganas     : ROCIS; embedding schemes
   Dimitrios Pantazis     : SARC Basis sets
   Taras Petrenko         : DFT Hessian,TD-DFT gradient, ASA, ECA, R-Raman, ABS, FL, XAS/XES, NRVS
   Peter Pinski           : DLPNO-MP2
   Christoph Reimann      : Effective Core Potentials
   Marius Retegan         : Local ZFS, SOC
   Christoph Riplinger    : Optimizer, TS searches, QM/MM, DLPNO-CCSD(T), (RO)-DLPNO pert. Triples
   Tobias Risthaus        : Range-separated hybrids, TD-DFT gradient, RPA, STAB
   Michael Roemelt        : Restricted open shell CIS
   Masaaki Saitow         : Open-shell DLPNO
   Barbara Sandhoefer     : DKH picture change effects
   Kantharuban Sivalingam : CASSCF convergence, NEVPT2, FIC-MRCI
   Georgi Stoychev        : AutoAux
   Boris Wezisla          : Elementary symmetry handling
   Frank Wennmohs         : Technical directorship


 We gratefully acknowledge several colleagues who have allowed us to
 interface, adapt or use parts of their codes:
   Stefan Grimme, W. Hujo, H. Kruse,             : VdW corrections, initial TS optimization,
                  C. Bannwarth                     DFT functionals, gCP, sTDA/sTD-DF
   Ed Valeev                                     : LibInt (2-el integral package), F12 methods
   Garnet Chan, S. Sharma, J. Yang, R. Olivares  : DMRG
   Ulf Ekstrom                                   : XCFun DFT Library
   Mihaly Kallay                                 : mrcc  (arbitrary order and MRCC methods)
   Jiri Pittner, Ondrej Demel                    : Mk-CCSD
   Frank Weinhold                                : gennbo (NPA and NBO analysis)
   Christopher J. Cramer and Donald G. Truhlar   : smd solvation model


 Your calculation uses the libint2 library for the computation of 2-el integrals
 For citations please refer to: http://libint.valeyev.net

 This ORCA versions uses:
   CBLAS   interface :  Fast vector & matrix operations
   LAPACKE interface :  Fast linear algebra routines
   SCALAPACK package :  Parallel linear algebra routines


Your calculation utilizes the atom-pairwise dispersion correction
with the zero-damping scheme (D30)
Cite in your paper:
S.Grimme, J.Antony, S.Ehrlich and H.Krieg, J.Chem.Phys., 132, (2010), 154104 
   

XCFun DFT library Copyright 2009-2010 Ulf Ekstrom and contributors.
See http://admol.org/xcfun for more information. This is free soft-
ware; see the source code for copying conditions. There is ABSOLUTELY
NO WARRANTY; not even for MERCHANTABILITY or FITNESS FOR A PARTICULAR
PURPOSE. For details see the documentation. Scientific users of this 
library should cite U. Ekstrom, L. Visscher, R. Bast, A. J. Thorvald-
sen and K. Ruud; J.Chem.Theor.Comp. 2010, DOI: 10.1021/ct100117s
XCFun Version 0.99 
Your calculation utilizes the basis: 6-31G(d)
   H-He, Li-Ne : W. J. Hehre, R. Ditchfield and J.A. Pople, J. Chem. Phys. 56, 2257 (1972).
                 Note: He and Ne are unpublished basis sets taken from the Gaussian program.
                 Note: Li and B from J. D. Dill and J. A. Pople, J. Chem. Phys. 62, 2921 (1975).
   Na - Ar     : M. M. Francl, W. J. Pietro, W. J. Hehre, J. S. Binkley, M. S. Gordon, 
                 D. J. DeFrees and J. A. Pople, J. Chem. Phys. 77, 3654 (1982).
   K - Zn      : V. A. Rassolov, J. A. Pople, M. A. Ratner, and T. L. Windus, J. Chem. Phys. 109, 1223 (1998).

================================================================================
                                        WARNINGS
                       Please study these warnings very carefully!
================================================================================

Warning: TCutStore was < 0. Adjusted to Thresh (uncritical)

INFO   : the flag for use of LIBINT has been found!

================================================================================
                                       INPUT FILE
================================================================================
NAME = initial25.inp
|  1> ! WB97X-D3 6-31G(d) VerySlowConv
|  2> ! KDIIS NOSOSCF
|  3> %base "Scan_25"
|  4> 
|  5> %scf
|  6> maxiter 999
|  7> end
|  8> 
|  9> * xyz 0 1
| 10> O         -0.273205003424    1.374407876691   -0.203763818058
| 11> H          2.594749213989    0.883855420145   -0.692564969859
| 12> H         -1.882104210565    3.126276703165    1.541838787917
| 13> **                         ****END OF INPUT****
================================================================================

                       ****************************
                       * Single Point Calculation *
                       ****************************

---------------------------------
CARTESIAN COORDINATES (ANGSTROEM)
---------------------------------
  O     -0.273205    1.374408   -0.203764
  H      2.594749    0.883855   -0.692565
  H     -1.882104    3.126277    1.541839

----------------------------
CARTESIAN COORDINATES (A.U.)
----------------------------
  NO LB      ZA    FRAG     MASS         X           Y           Z
   0 O     8.0000    0    15.999   -0.516283    2.597254   -0.385058
   1 H     1.0000    0     1.008    4.903365    1.670245   -1.308758
   2 H     1.0000    0     1.008   -3.556662    5.907807    2.913653

--------------------------------
INTERNAL COORDINATES (ANGSTROEM)
--------------------------------
 O      0   0   0     0.000000000000     0.00000000     0.00000000
 H      1   0   0     2.950377886272     0.00000000     0.00000000
 H      1   2   0     2.950377857478   136.62155257     0.00000000

---------------------------
INTERNAL COORDINATES (A.U.)
---------------------------
 O      0   0   0     0.000000000000     0.00000000     0.00000000
 H      1   0   0     5.575406196631     0.00000000     0.00000000
 H      1   2   0     5.575406142219   136.62155257     0.00000000

---------------------
BASIS SET INFORMATION
---------------------
There are 2 groups of distinct atoms

 Group   1 Type O   : 10s4p1d contracted to 3s2p1d pattern {631/31/1}
 Group   2 Type H   : 4s contracted to 2s pattern {31}

Atom   0O    basis set group =>   1
Atom   1H    basis set group =>   2
Atom   2H    basis set group =>   2
------------------------------------------------------------------------------
                           ORCA GTO INTEGRAL CALCULATION
------------------------------------------------------------------------------

                         BASIS SET STATISTICS AND STARTUP INFO

 # of primitive gaussian shells          ...   23
 # of primitive gaussian functions       ...   35
 # of contracted shells                  ...   10
 # of contracted basis functions         ...   18
 Highest angular momentum                ...    2
 Maximum contraction depth               ...    6
 Integral package used                   ... LIBINT
 Integral threshhold            Thresh   ...  1.000e-10
 Primitive cut-off              TCut     ...  1.000e-11


------------------------------ INTEGRAL EVALUATION ----------------------------


 * One electron integrals 
 Pre-screening matrix                    ... done
 Shell pair data                         ... done (   0.000 sec)

-------------------------------------------------------------------------------
                                 ORCA SCF
-------------------------------------------------------------------------------

------------
SCF SETTINGS
------------
Hamiltonian:
 Density Functional     Method          .... DFT(GTOs)
 Exchange Functional    Exchange        .... WB97X-D3
 Correlation Functional Correlation     .... WB97X-D3
 Gradients option       PostSCFGGA      .... off
 Hybrid DFT is turned on
   Fraction HF Exchange ScalHFX         ....  0.195728
   Scaling of DF-GGA-X  ScalDFX         ....  0.000000
   Scaling of DF-GGA-C  ScalDFC         ....  1.000000
   Scaling of DF-LDA-C  ScalLDAC        ....  1.000000
   Perturbative correction              ....  0.000000
 Long-range corrected/Screened/Range-Separated Hybrid DFT is turned on
   Amount of maximum screened exact exchange              ....  0.804272
   Range separation parameter mu (erf(mu*r12)/r12)        ....  0.250000


General Settings:
 Integral files         IntName         .... Scan_25
 Hartree-Fock type      HFTyp           .... RHF
 Total Charge           Charge          ....    0
 Multiplicity           Mult            ....    1
 Number of Electrons    NEL             ....   10
 Basis Dimension        Dim             ....   18
 Nuclear Repulsion      ENuc            ....      2.9662585237 Eh

Convergence Acceleration:
 DIIS                   CNVDIIS         .... on
   Start iteration      DIISMaxIt       ....     0
   Startup error        DIISStart       ....  0.200000
   # of expansion vecs  DIISMaxEq       ....     5
   Bias factor          DIISBfac        ....   1.050
   Max. coefficient     DIISMaxC        ....  10.000
 Newton-Raphson         CNVNR           .... off
 SOSCF                  CNVSOSCF        .... off
 Level Shifting         CNVShift        .... off
 Zerner damping         CNVZerner       .... off
 Static damping         CNVDamp         .... off
 Fernandez-Rico         CNVRico         .... off

SCF Procedure:
 Maximum # iterations   MaxIter         ....   999
 SCF integral mode      SCFMode         .... Direct
   Integral package                     .... LIBINT
 Reset frequeny         DirectResetFreq ....    20
 Integral Threshold     Thresh          ....  1.000e-10 Eh
 Primitive CutOff       TCut            ....  1.000e-11 Eh

Convergence Tolerance:
 Convergence Check Mode ConvCheckMode   .... All-Criteria
 Convergence forced     ConvForced      .... 0
 Energy Change          TolE            ....  1.000e-06 Eh
 Max Density Change     TolMaxP         ....  1.000e-05
 RMS Density Change     TolRMSP         ....  1.000e-06
 DIIS Error             TolErr          ....  1.000e-06


Diagonalization of the overlap matrix:
Smallest eigenvalue                        ... 2.286e-01
Time for diagonalization                   ...    0.000 sec
Threshold for overlap eigenvalues          ... 1.000e-08
Number of eigenvalues below threshold      ... 0
Time for construction of square roots      ...    0.006 sec
Total time needed                          ...    0.007 sec

-------------------
DFT GRID GENERATION
-------------------

General Integration Accuracy     IntAcc      ...  4.340
Radial Grid Type                 RadialGrid  ... Gauss-Chebyshev
Angular Grid (max. acc.)         AngularGrid ... Lebedev-110
Angular grid pruning method      GridPruning ... 3 (G Style)
Weight generation scheme         WeightScheme... Becke
Basis function cutoff            BFCut       ...    1.0000e-10
Integration weight cutoff        WCut        ...    1.0000e-14
Grids for H and He will be reduced by one unit

# of grid points (after initial pruning)     ...   3304 (   0.0 sec)
# of grid points (after weights+screening)   ...   3293 (   0.0 sec)
nearest neighbour list constructed           ...    0.0 sec
Grid point re-assignment to atoms done       ...    0.0 sec
Grid point division into batches done        ...    0.0 sec
Reduced shell lists constructed in    0.0 sec

Total number of grid points                  ...     3293
Total number of batches                      ...       52
Average number of points per batch           ...       63
Average number of grid points per atom       ...     1098
Average number of shells per batch           ...     8.00 (80.00%)
Average number of basis functions per batch  ...    15.25 (84.70%)
Average number of large shells per batch     ...     6.45 (80.66%)
Average number of large basis fcns per batch ...    12.19 (79.95%)
Maximum spatial batch extension              ...  17.62, 20.95, 22.70 au
Average spatial batch extension              ...   5.57,  6.10,  6.20 au

Time for grid setup =    0.017 sec

------------------------------
INITIAL GUESS: MODEL POTENTIAL
------------------------------
Loading Hartree-Fock densities                     ... done
Calculating cut-offs                               ... done
Setting up the integral package                    ... done
Initializing the effective Hamiltonian             ... done
Starting the Coulomb interaction                   ... done (   0.0 sec)
Reading the grid                                   ... done
Mapping shells                                     ... done
Starting the XC term evaluation                    ... done (   0.0 sec)
  promolecular density results
     # of electrons  =      9.999312122
     EX              =     -8.524422502
     EC              =     -0.276557317
     EX+EC           =     -8.800979819
Transforming the Hamiltonian                       ... done (   0.0 sec)
Diagonalizing the Hamiltonian                      ... done (   0.0 sec)
Back transforming the eigenvectors                 ... done (   0.0 sec)
Now organizing SCF variables                       ... done
                      ------------------
                      INITIAL GUESS DONE (   0.1 sec)
                      ------------------
--------------
SCF ITERATIONS
--------------
ITER       Energy         Delta-E        Max-DP      RMS-DP      [F,P]   Gradient Norm
               ***  Starting incremental Fock matrix formation  ***
                             ****Resetting KDIIS****
                             ****Turning on KDIIS(Cayley)****
  0    -74.8555794831   0.000000000000 0.08066973  0.00980522  0.3558764   0.320540869
  1    -74.9984029443  -0.142823461227 0.16890622  0.01947383  0.2940690   0.264291534
  2    -75.2157928176  -0.217389873317 0.09673123  0.01607428  0.1720043   0.152984105
  3    -75.3761190685  -0.160326250934 0.18698691  0.03242221  0.1740484   0.110021469
  4    -75.6671817695  -0.291062700991 0.22329796  0.03581244  0.1446095   0.111159129
  5    -75.7446553016  -0.077473532091 0.20591066  0.03301622  0.1444952   0.106572244
  6    -75.7170926053   0.027562696317 0.14740975  0.02240729  0.1207208   0.081239564
  7    -75.8050158939  -0.087923288568 0.03562999  0.00515252  0.0153673   0.011752342
  8    -75.8020696891   0.002946204755 0.05191871  0.00763295  0.0248888   0.022762195
  9    -75.8040625123  -0.001992823224 0.00290630  0.00050004  0.0239988   0.014703504
 10    -75.8044166407  -0.000354128369 0.00815921  0.00123989  0.0233637   0.014282072
 11    -75.8051243829  -0.000707742161 0.20439464  0.02524352  0.0227139   0.013979765
 12    -75.8118290803  -0.006704697407 0.05006499  0.00622648  0.0107517   0.009035705
 13    -75.8123195315  -0.000490451254 0.01138907  0.00131989  0.0032301   0.002702569
 14    -75.8124200922  -0.000100560632 0.00879428  0.00103272  0.0008210   0.000495408
 15    -75.8124461736  -0.000026081404 0.00393138  0.00048609  0.0004706   0.000375254
 16    -75.8124525984  -0.000006424846 0.00151987  0.00020670  0.0003905   0.000229159
 17    -75.8124544452  -0.000001846825 0.00513542  0.00054364  0.0002065   0.000118015
 18    -75.8124588977  -0.000004452430 0.00515420  0.00054697  0.0000941   0.000072794
 19    -75.8124609332  -0.000002035532 0.00147089  0.00015721  0.0000396   0.000035778
               *** Restarting incremental Fock matrix formation ***
                             ****Resetting KDIIS****
                          ***Energy convergence achieved***
                           ***RMSP convergence achieved***
                           ***MAXP convergence achieved***
                    *** KDIIS BlockDiag ( 0.000 sec) ***

               *****************************************************
               *                     SUCCESS                       *
               *           SCF CONVERGED AFTER  20 CYCLES          *
               *****************************************************

Setting up the final grid:

General Integration Accuracy     IntAcc      ...  4.670
Radial Grid Type                 RadialGrid  ... Gauss-Chebyshev
Angular Grid (max. acc.)         AngularGrid ... Lebedev-302
Angular grid pruning method      GridPruning ... 3 (G Style)
Weight generation scheme         WeightScheme... Becke
Basis function cutoff            BFCut       ...    1.0000e-10
Integration weight cutoff        WCut        ...    1.0000e-14
Grids for H and He will be reduced by one unit

# of grid points (after initial pruning)     ...  13000 (   0.0 sec)
# of grid points (after weights+screening)   ...  12970 (   0.0 sec)
nearest neighbour list constructed           ...    0.0 sec
Grid point re-assignment to atoms done       ...    0.0 sec
Grid point division into batches done        ...    0.0 sec
Reduced shell lists constructed in    0.1 sec

Total number of grid points                  ...    12970
Total number of batches                      ...      204
Average number of points per batch           ...       63
Average number of grid points per atom       ...     4323
Average number of shells per batch           ...     6.89 (68.93%)
Average number of basis functions per batch  ...    12.87 (71.52%)
Average number of large shells per batch     ...     5.37 (77.85%)
Average number of large basis fcns per batch ...    10.07 (78.21%)
Maximum spatial batch extension              ...  15.98, 19.94, 19.94 au
Average spatial batch extension              ...   3.57,  3.84,  3.83 au

Final grid set up in    0.1 sec
Final integration                            ... done (   0.1 sec)
Change in XC energy                          ...    -0.000174061
Integrated number of electrons               ...     9.999895959
Previous integrated no of electrons          ...     9.999273840

----------------
TOTAL SCF ENERGY
----------------

Total Energy       :          -75.81263514 Eh           -2062.96668 eV

Components:
Nuclear Repulsion  :            2.96625852 Eh              80.71600 eV
Electronic Energy  :          -78.77889366 Eh           -2143.68268 eV
One Electron Energy:         -110.62913274 Eh           -3010.37175 eV
Two Electron Energy:           31.85023908 Eh             866.68907 eV

Virial components:
Potential Energy   :         -150.99909770 Eh           -4108.89434 eV
Kinetic Energy     :           75.18646256 Eh            2045.92766 eV
Virial Ratio       :            2.00832826


DFT components:
N(Alpha)           :        4.999947979445 electrons
N(Beta)            :        4.999947979445 electrons
N(Total)           :        9.999895958890 electrons
E(XC)              :       -6.134296079317 Eh       

---------------
SCF CONVERGENCE
---------------

  Last Energy change         ...   -1.4620e-07  Tolerance :   1.0000e-06
  Last MAX-Density change    ...    3.9560e-06  Tolerance :   1.0000e-05
  Last RMS-Density change    ...    5.9996e-07  Tolerance :   1.0000e-06
  Last DIIS Error            ...    1.7259e-05  Tolerance :   1.0000e-06

             **** THE GBW FILE WAS UPDATED (Scan_25.gbw) ****
             **** DENSITY FILE WAS UPDATED (Scan_25.scfp.tmp) ****
             **** ENERGY FILE WAS UPDATED (Scan_25.en.tmp) ****
----------------
ORBITAL ENERGIES
----------------

  NO   OCC          E(Eh)            E(eV) 
   0   2.0000     -19.321880      -525.7751 
   1   2.0000      -0.983585       -26.7647 
   2   2.0000      -0.385714       -10.4958 
   3   2.0000      -0.356387        -9.6978 
   4   2.0000      -0.351840        -9.5741 
   5   0.0000      -0.167291        -4.5522 
   6   0.0000      -0.146695        -3.9918 
   7   0.0000       0.793234        21.5850 
   8   0.0000       0.802122        21.8268 
   9   0.0000       1.008850        27.4522 
  10   0.0000       1.009682        27.4749 
  11   0.0000       1.055900        28.7325 
  12   0.0000       1.134604        30.8741 
  13   0.0000       1.902425        51.7676 
  14   0.0000       1.903944        51.8089 
  15   0.0000       1.920444        52.2579 
  16   0.0000       1.924370        52.3648 
  17   0.0000       1.930821        52.5403 

                    ********************************
                    * MULLIKEN POPULATION ANALYSIS *
                    ********************************

-----------------------
MULLIKEN ATOMIC CHARGES
-----------------------
   0 O :   -0.223399
   1 H :    0.110597
   2 H :    0.112802
Sum of atomic charges:    0.0000000

--------------------------------
MULLIKEN REDUCED ORBITAL CHARGES
--------------------------------
  0 O s       :     3.999395  s :     3.999395
      pz      :     1.574330  p :     4.223699
      px      :     1.079227
      py      :     1.570141
      dz2     :     0.000038  d :     0.000305
      dxz     :     0.000019
      dyz     :     0.000124
      dx2y2   :     0.000106
      dxy     :     0.000019
  1 H s       :     0.889403  s :     0.889403
  2 H s       :     0.887198  s :     0.887198


                     *******************************
                     * LOEWDIN POPULATION ANALYSIS *
                     *******************************

----------------------
LOEWDIN ATOMIC CHARGES
----------------------
   0 O :   -0.229972
   1 H :    0.113891
   2 H :    0.116081

-------------------------------
LOEWDIN REDUCED ORBITAL CHARGES
-------------------------------
  0 O s       :     3.999008  s :     3.999008
      pz      :     1.575768  p :     4.230616
      px      :     1.083256
      py      :     1.571592
      dz2     :     0.000043  d :     0.000348
      dxz     :     0.000027
      dyz     :     0.000131
      dx2y2   :     0.000119
      dxy     :     0.000027
  1 H s       :     0.886109  s :     0.886109
  2 H s       :     0.883919  s :     0.883919


                      *****************************
                      * MAYER POPULATION ANALYSIS *
                      *****************************

  NA   - Mulliken gross atomic population
  ZA   - Total nuclear charge
  QA   - Mulliken gross atomic charge
  VA   - Mayer's total valence
  BVA  - Mayer's bonded valence
  FA   - Mayer's free valence

  ATOM       NA         ZA         QA         VA         BVA        FA
  0 O      8.2234     8.0000    -0.2234     1.9575     1.9575     0.0000
  1 H      0.8894     1.0000     0.1106     0.9880     0.9880     0.0000
  2 H      0.8872     1.0000     0.1128     0.9875     0.9875    -0.0000

  Mayer bond orders larger than 0.1
B(  0-O ,  1-H ) :   0.9790 B(  0-O ,  2-H ) :   0.9785 

-------
TIMINGS
-------

Total SCF time: 0 days 0 hours 0 min 4 sec 

Total time                  ....       4.698 sec
Sum of individual times     ....       4.459 sec  ( 94.9%)

Fock matrix formation       ....       4.224 sec  ( 89.9%)
  XC integration            ....       0.985 sec  ( 23.3% of F)
    Basis function eval.    ....       0.157 sec  ( 16.0% of XC)
    Density eval.           ....       0.034 sec  (  3.5% of XC)
    XC-Functional eval.     ....       0.266 sec  ( 27.0% of XC)
    XC-Potential eval.      ....       0.013 sec  (  1.3% of XC)
Diagonalization             ....       0.020 sec  (  0.4%)
Density matrix formation    ....       0.000 sec  (  0.0%)
Population analysis         ....       0.012 sec  (  0.2%)
Initial guess               ....       0.107 sec  (  2.3%)
Orbital Transformation      ....       0.000 sec  (  0.0%)
Orbital Orthonormalization  ....       0.000 sec  (  0.0%)
DIIS solution               ....       0.000 sec  (  0.0%)
Grid generation             ....       0.097 sec  (  2.1%)


-------------------------------------------------------------------------------
                          DFT DISPERSION CORRECTION                            
                                                                               
                              DFTD3 V3.1  Rev 1                                
                              USING zero damping                               
-------------------------------------------------------------------------------
The omegaB97X-D3 functional is recognized. Fit by Chai et al.
Active option DFTDOPT                   ...         3   

molecular C6(AA) [au] = 85.410156 


            DFT-D V3
 parameters
 s6 scaling factor         :     1.0000 
 rs6 scaling factor        :     1.2810 
 s8 scaling factor         :     1.0000 
 rs8 scaling factor        :     1.0940 
 Damping factor alpha6     :    14.0000 
 Damping factor alpha8     :    16.0000 
 ad hoc parameters k1-k3   :    16.0000     1.3333    -4.0000 

 Edisp/kcal,au: -0.294854752168  -0.000469880907 
 E6   /kcal   :  -0.117048252 
 E8   /kcal   :  -0.177806500 
 % E8         :  60.303080943 

-------------------------   ----------------
Dispersion correction           -0.000469881
-------------------------   ----------------


-------------------------   --------------------
FINAL SINGLE POINT ENERGY       -75.813105020978
-------------------------   --------------------


                            ***************************************
                            *     ORCA property calculations      *
                            ***************************************

                                    ---------------------
                                    Active property flags
                                    ---------------------
   (+) Dipole Moment


------------------------------------------------------------------------------
                       ORCA ELECTRIC PROPERTIES CALCULATION
------------------------------------------------------------------------------

Dipole Moment Calculation                       ... on
Quadrupole Moment Calculation                   ... off
Polarizability Calculation                      ... off
GBWName                                         ... Scan_25.gbw
Electron density file                           ... Scan_25.scfp.tmp

-------------
DIPOLE MOMENT
-------------
                                X             Y             Z
Electronic contribution:     -0.77866      -0.76609      -0.76334
Nuclear contribution   :      1.04799       1.04987       1.04611
                        -----------------------------------------
Total Dipole Moment    :      0.26933       0.28378       0.28277
                        -----------------------------------------
Magnitude (a.u.)       :      0.48273
Magnitude (Debye)      :      1.22700


Timings for individual modules:

Sum of individual times         ...        5.060 sec (=   0.084 min)
GTO integral calculation        ...        0.321 sec (=   0.005 min)   6.3 %
SCF iterations                  ...        4.739 sec (=   0.079 min)  93.7 %
                             ****ORCA TERMINATED NORMALLY****
TOTAL RUN TIME: 0 days 0 hours 0 minutes 5 seconds 416 msec
