
                                 *****************
                                 * O   R   C   A *
                                 *****************

           --- An Ab Initio, DFT and Semiempirical electronic structure package ---

                  #######################################################
                  #                        -***-                        #
                  #  Department of molecular theory and spectroscopy    #
                  #              Directorship: Frank Neese              #
                  # Max Planck Institute for Chemical Energy Conversion #
                  #                  D-45470 Muelheim/Ruhr              #
                  #                       Germany                       #
                  #                                                     #
                  #                  All rights reserved                #
                  #                        -***-                        #
                  #######################################################


                         Program Version 4.0.0.2 - RELEASE -


 With contributions from (in alphabetic order):
   Daniel Aravena         : Magnetic Properties
   Michael Atanasov       : Ab Initio Ligand Field Theory
   Ute Becker             : Parallelization
   Martin Brehm           : Molecular dynamics
   Dmytro Bykov           : SCF Hessian
   Vijay G. Chilkuri      : MRCI spin determinant printing
   Dipayan Datta          : RHF DLPNO-CCSD density
   Achintya Kumar Dutta   : EOM-CC, STEOM-CC
   Dmitry Ganyushin       : Spin-Orbit,Spin-Spin,Magnetic field MRCI
   Yang Guo               : DLPNO-NEVPT2, CIM, IAO-localization
   Andreas Hansen         : Spin unrestricted coupled pair/coupled cluster methods
   Lee Huntington         : MR-EOM, pCC
   Robert Izsak           : Overlap fitted RIJCOSX, COSX-SCS-MP3, EOM
   Christian Kollmar      : KDIIS, OOCD, Brueckner-CCSD(T), CCSD density
   Simone Kossmann        : Meta GGA functionals, TD-DFT gradient, OOMP2, MP2 Hessian
   Martin Krupicka        : AUTO-CI
   Dagmar Lenk            : GEPOL surface
   Dimitrios Liakos       : Extrapolation schemes; parallel MDCI
   Dimitrios Manganas     : ROCIS; embedding schemes
   Dimitrios Pantazis     : SARC Basis sets
   Taras Petrenko         : DFT Hessian,TD-DFT gradient, ASA, ECA, R-Raman, ABS, FL, XAS/XES, NRVS
   Peter Pinski           : DLPNO-MP2
   Christoph Reimann      : Effective Core Potentials
   Marius Retegan         : Local ZFS, SOC
   Christoph Riplinger    : Optimizer, TS searches, QM/MM, DLPNO-CCSD(T), (RO)-DLPNO pert. Triples
   Tobias Risthaus        : Range-separated hybrids, TD-DFT gradient, RPA, STAB
   Michael Roemelt        : Restricted open shell CIS
   Masaaki Saitow         : Open-shell DLPNO
   Barbara Sandhoefer     : DKH picture change effects
   Kantharuban Sivalingam : CASSCF convergence, NEVPT2, FIC-MRCI
   Georgi Stoychev        : AutoAux
   Boris Wezisla          : Elementary symmetry handling
   Frank Wennmohs         : Technical directorship


 We gratefully acknowledge several colleagues who have allowed us to
 interface, adapt or use parts of their codes:
   Stefan Grimme, W. Hujo, H. Kruse,             : VdW corrections, initial TS optimization,
                  C. Bannwarth                     DFT functionals, gCP, sTDA/sTD-DF
   Ed Valeev                                     : LibInt (2-el integral package), F12 methods
   Garnet Chan, S. Sharma, J. Yang, R. Olivares  : DMRG
   Ulf Ekstrom                                   : XCFun DFT Library
   Mihaly Kallay                                 : mrcc  (arbitrary order and MRCC methods)
   Jiri Pittner, Ondrej Demel                    : Mk-CCSD
   Frank Weinhold                                : gennbo (NPA and NBO analysis)
   Christopher J. Cramer and Donald G. Truhlar   : smd solvation model


 Your calculation uses the libint2 library for the computation of 2-el integrals
 For citations please refer to: http://libint.valeyev.net

 This ORCA versions uses:
   CBLAS   interface :  Fast vector & matrix operations
   LAPACKE interface :  Fast linear algebra routines
   SCALAPACK package :  Parallel linear algebra routines


Your calculation utilizes the atom-pairwise dispersion correction
with the zero-damping scheme (D30)
Cite in your paper:
S.Grimme, J.Antony, S.Ehrlich and H.Krieg, J.Chem.Phys., 132, (2010), 154104 
   

XCFun DFT library Copyright 2009-2010 Ulf Ekstrom and contributors.
See http://admol.org/xcfun for more information. This is free soft-
ware; see the source code for copying conditions. There is ABSOLUTELY
NO WARRANTY; not even for MERCHANTABILITY or FITNESS FOR A PARTICULAR
PURPOSE. For details see the documentation. Scientific users of this 
library should cite U. Ekstrom, L. Visscher, R. Bast, A. J. Thorvald-
sen and K. Ruud; J.Chem.Theor.Comp. 2010, DOI: 10.1021/ct100117s
XCFun Version 0.99 
Your calculation utilizes the basis: 6-31G(d)
   H-He, Li-Ne : W. J. Hehre, R. Ditchfield and J.A. Pople, J. Chem. Phys. 56, 2257 (1972).
                 Note: He and Ne are unpublished basis sets taken from the Gaussian program.
                 Note: Li and B from J. D. Dill and J. A. Pople, J. Chem. Phys. 62, 2921 (1975).
   Na - Ar     : M. M. Francl, W. J. Pietro, W. J. Hehre, J. S. Binkley, M. S. Gordon, 
                 D. J. DeFrees and J. A. Pople, J. Chem. Phys. 77, 3654 (1982).
   K - Zn      : V. A. Rassolov, J. A. Pople, M. A. Ratner, and T. L. Windus, J. Chem. Phys. 109, 1223 (1998).

================================================================================
                                        WARNINGS
                       Please study these warnings very carefully!
================================================================================

Warning: TCutStore was < 0. Adjusted to Thresh (uncritical)

INFO   : the flag for use of LIBINT has been found!

================================================================================
                                       INPUT FILE
================================================================================
NAME = initial26.inp
|  1> ! WB97X-D3 6-31G(d) VerySlowConv
|  2> ! KDIIS NOSOSCF
|  3> %base "Scan_26"
|  4> 
|  5> %scf
|  6> maxiter 999
|  7> end
|  8> 
|  9> * xyz 0 1
| 10> O         -0.325596948093    1.321921812541   -0.256062006934
| 11> H          2.665744326061    0.887658906591   -0.688775190976
| 12> H         -1.900707377968    3.174959280868    1.590347197911
| 13> **                         ****END OF INPUT****
================================================================================

                       ****************************
                       * Single Point Calculation *
                       ****************************

---------------------------------
CARTESIAN COORDINATES (ANGSTROEM)
---------------------------------
  O     -0.325597    1.321922   -0.256062
  H      2.665744    0.887659   -0.688775
  H     -1.900707    3.174959    1.590347

----------------------------
CARTESIAN COORDINATES (A.U.)
----------------------------
  NO LB      ZA    FRAG     MASS         X           Y           Z
   0 O     8.0000    0    15.999   -0.615289    2.498070   -0.483887
   1 H     1.0000    0     1.008    5.037527    1.677432   -1.301596
   2 H     1.0000    0     1.008   -3.591816    5.999804    3.005321

--------------------------------
INTERNAL COORDINATES (ANGSTROEM)
--------------------------------
 O      0   0   0     0.000000000000     0.00000000     0.00000000
 H      1   0   0     3.053513974028     0.00000000     0.00000000
 H      1   2   0     3.053513988352   132.63513694     0.00000000

---------------------------
INTERNAL COORDINATES (A.U.)
---------------------------
 O      0   0   0     0.000000000000     0.00000000     0.00000000
 H      1   0   0     5.770305157015     0.00000000     0.00000000
 H      1   2   0     5.770305184083   132.63513694     0.00000000

---------------------
BASIS SET INFORMATION
---------------------
There are 2 groups of distinct atoms

 Group   1 Type O   : 10s4p1d contracted to 3s2p1d pattern {631/31/1}
 Group   2 Type H   : 4s contracted to 2s pattern {31}

Atom   0O    basis set group =>   1
Atom   1H    basis set group =>   2
Atom   2H    basis set group =>   2
------------------------------------------------------------------------------
                           ORCA GTO INTEGRAL CALCULATION
------------------------------------------------------------------------------

                         BASIS SET STATISTICS AND STARTUP INFO

 # of primitive gaussian shells          ...   23
 # of primitive gaussian functions       ...   35
 # of contracted shells                  ...   10
 # of contracted basis functions         ...   18
 Highest angular momentum                ...    2
 Maximum contraction depth               ...    6
 Integral package used                   ... LIBINT
 Integral threshhold            Thresh   ...  1.000e-10
 Primitive cut-off              TCut     ...  1.000e-11


------------------------------ INTEGRAL EVALUATION ----------------------------


 * One electron integrals 
 Pre-screening matrix                    ... done
 Shell pair data                         ... done (   0.000 sec)

-------------------------------------------------------------------------------
                                 ORCA SCF
-------------------------------------------------------------------------------

------------
SCF SETTINGS
------------
Hamiltonian:
 Density Functional     Method          .... DFT(GTOs)
 Exchange Functional    Exchange        .... WB97X-D3
 Correlation Functional Correlation     .... WB97X-D3
 Gradients option       PostSCFGGA      .... off
 Hybrid DFT is turned on
   Fraction HF Exchange ScalHFX         ....  0.195728
   Scaling of DF-GGA-X  ScalDFX         ....  0.000000
   Scaling of DF-GGA-C  ScalDFC         ....  1.000000
   Scaling of DF-LDA-C  ScalLDAC        ....  1.000000
   Perturbative correction              ....  0.000000
 Long-range corrected/Screened/Range-Separated Hybrid DFT is turned on
   Amount of maximum screened exact exchange              ....  0.804272
   Range separation parameter mu (erf(mu*r12)/r12)        ....  0.250000


General Settings:
 Integral files         IntName         .... Scan_26
 Hartree-Fock type      HFTyp           .... RHF
 Total Charge           Charge          ....    0
 Multiplicity           Mult            ....    1
 Number of Electrons    NEL             ....   10
 Basis Dimension        Dim             ....   18
 Nuclear Repulsion      ENuc            ....      2.8674357271 Eh

Convergence Acceleration:
 DIIS                   CNVDIIS         .... on
   Start iteration      DIISMaxIt       ....     0
   Startup error        DIISStart       ....  0.200000
   # of expansion vecs  DIISMaxEq       ....     5
   Bias factor          DIISBfac        ....   1.050
   Max. coefficient     DIISMaxC        ....  10.000
 Newton-Raphson         CNVNR           .... off
 SOSCF                  CNVSOSCF        .... off
 Level Shifting         CNVShift        .... off
 Zerner damping         CNVZerner       .... off
 Static damping         CNVDamp         .... off
 Fernandez-Rico         CNVRico         .... off

SCF Procedure:
 Maximum # iterations   MaxIter         ....   999
 SCF integral mode      SCFMode         .... Direct
   Integral package                     .... LIBINT
 Reset frequeny         DirectResetFreq ....    20
 Integral Threshold     Thresh          ....  1.000e-10 Eh
 Primitive CutOff       TCut            ....  1.000e-11 Eh

Convergence Tolerance:
 Convergence Check Mode ConvCheckMode   .... All-Criteria
 Convergence forced     ConvForced      .... 0
 Energy Change          TolE            ....  1.000e-06 Eh
 Max Density Change     TolMaxP         ....  1.000e-05
 RMS Density Change     TolRMSP         ....  1.000e-06
 DIIS Error             TolErr          ....  1.000e-06


Diagonalization of the overlap matrix:
Smallest eigenvalue                        ... 2.301e-01
Time for diagonalization                   ...    0.000 sec
Threshold for overlap eigenvalues          ... 1.000e-08
Number of eigenvalues below threshold      ... 0
Time for construction of square roots      ...    0.009 sec
Total time needed                          ...    0.010 sec

-------------------
DFT GRID GENERATION
-------------------

General Integration Accuracy     IntAcc      ...  4.340
Radial Grid Type                 RadialGrid  ... Gauss-Chebyshev
Angular Grid (max. acc.)         AngularGrid ... Lebedev-110
Angular grid pruning method      GridPruning ... 3 (G Style)
Weight generation scheme         WeightScheme... Becke
Basis function cutoff            BFCut       ...    1.0000e-10
Integration weight cutoff        WCut        ...    1.0000e-14
Grids for H and He will be reduced by one unit

# of grid points (after initial pruning)     ...   3304 (   0.0 sec)
# of grid points (after weights+screening)   ...   3294 (   0.0 sec)
nearest neighbour list constructed           ...    0.0 sec
Grid point re-assignment to atoms done       ...    0.0 sec
Grid point division into batches done        ...    0.0 sec
Reduced shell lists constructed in    0.0 sec

Total number of grid points                  ...     3294
Total number of batches                      ...       52
Average number of points per batch           ...       63
Average number of grid points per atom       ...     1098
Average number of shells per batch           ...     7.83 (78.30%)
Average number of basis functions per batch  ...    14.96 (83.12%)
Average number of large shells per batch     ...     6.36 (81.20%)
Average number of large basis fcns per batch ...    12.02 (80.33%)
Maximum spatial batch extension              ...  17.62, 20.95, 22.48 au
Average spatial batch extension              ...   5.91,  6.26,  6.02 au

Time for grid setup =    0.018 sec

------------------------------
INITIAL GUESS: MODEL POTENTIAL
------------------------------
Loading Hartree-Fock densities                     ... done
Calculating cut-offs                               ... done
Setting up the integral package                    ... done
Initializing the effective Hamiltonian             ... done
Starting the Coulomb interaction                   ... done (   0.0 sec)
Reading the grid                                   ... done
Mapping shells                                     ... done
Starting the XC term evaluation                    ... done (   0.0 sec)
  promolecular density results
     # of electrons  =      9.999492466
     EX              =     -8.524282520
     EC              =     -0.276371392
     EX+EC           =     -8.800653912
Transforming the Hamiltonian                       ... done (   0.0 sec)
Diagonalizing the Hamiltonian                      ... done (   0.0 sec)
Back transforming the eigenvectors                 ... done (   0.0 sec)
Now organizing SCF variables                       ... done
                      ------------------
                      INITIAL GUESS DONE (   0.1 sec)
                      ------------------
--------------
SCF ITERATIONS
--------------
ITER       Energy         Delta-E        Max-DP      RMS-DP      [F,P]   Gradient Norm
               ***  Starting incremental Fock matrix formation  ***
                             ****Resetting KDIIS****
                             ****Turning on KDIIS(Cayley)****
  0    -74.8141870875   0.000000000000 0.08004844  0.00982535  0.3597566   0.321455006
  1    -74.9565697606  -0.142382673100 0.16836590  0.01961060  0.2983508   0.265295333
  2    -75.1750486005  -0.218478839970 0.10348061  0.01655049  0.1602875   0.153146186
  3    -75.3389236044  -0.163875003810 0.17894956  0.03102803  0.1675876   0.108502233
  4    -75.6247154330  -0.285791828611 0.19450564  0.03037500  0.1450316   0.120487866
  5    -75.7478599889  -0.123144555910 0.17185073  0.02232738  0.1421755   0.096994268
  6    -75.7286700998   0.019189889089 0.17334092  0.02532290  0.1042543   0.072668630
  7    -75.7840284367  -0.055358336911 0.08159817  0.01152989  0.0429572   0.039021111
  8    -75.7899353378  -0.005906901069 0.02417854  0.00329574  0.0348698   0.022338497
  9    -75.7947545495  -0.004819211702 0.01217269  0.00197571  0.0153646   0.008914868
 10    -75.7954912936  -0.000736744103 0.01857279  0.00271132  0.0155508   0.009443434
 11    -75.7967253401  -0.001234046506 0.13765900  0.01688552  0.0142678   0.008875765
 12    -75.8007940971  -0.004068757017 0.01896994  0.00234318  0.0076855   0.008403522
 13    -75.8011929109  -0.000398813781 0.00783797  0.00090913  0.0007661   0.000778050
 14    -75.8012096278  -0.000016716972 0.00271914  0.00032728  0.0002176   0.000158151
                          ***Energy convergence achieved***
 15    -75.8012106170  -0.000000989142 0.00058025  0.00007597  0.0002878   0.000172251
 16    -75.8012111535  -0.000000536472 0.00079918  0.00009305  0.0001309   0.000080739
 17    -75.8012119101  -0.000000756623 0.00383248  0.00041586  0.0001243   0.000075449
 18    -75.8012150612  -0.000003151109 0.01002894  0.00106540  0.0001220   0.000073120
 19    -75.8012207904  -0.000005729222 0.00832852  0.00088556  0.0000956   0.000080397
               *** Restarting incremental Fock matrix formation ***
                             ****Resetting KDIIS****
 20    -75.8012227955  -0.000002005131 0.00002134  0.00000252  0.0000472   0.000045230
                          ***Energy convergence achieved***
 21    -75.8012228030  -0.000000007474 0.00001302  0.00000248  0.0000290   0.000029842

            ***Energy convergence in two consecutive cycles with***
                    ***'reasonable' density convergence***
                       *** signaling convergence ***

                    *** KDIIS BlockDiag ( 0.000 sec) ***

               *****************************************************
               *                     SUCCESS                       *
               *           SCF CONVERGED AFTER  22 CYCLES          *
               *****************************************************

Setting up the final grid:

General Integration Accuracy     IntAcc      ...  4.670
Radial Grid Type                 RadialGrid  ... Gauss-Chebyshev
Angular Grid (max. acc.)         AngularGrid ... Lebedev-302
Angular grid pruning method      GridPruning ... 3 (G Style)
Weight generation scheme         WeightScheme... Becke
Basis function cutoff            BFCut       ...    1.0000e-10
Integration weight cutoff        WCut        ...    1.0000e-14
Grids for H and He will be reduced by one unit

# of grid points (after initial pruning)     ...  13000 (   0.0 sec)
# of grid points (after weights+screening)   ...  12973 (   0.0 sec)
nearest neighbour list constructed           ...    0.0 sec
Grid point re-assignment to atoms done       ...    0.0 sec
Grid point division into batches done        ...    0.0 sec
Reduced shell lists constructed in    0.1 sec

Total number of grid points                  ...    12973
Total number of batches                      ...      205
Average number of points per batch           ...       63
Average number of grid points per atom       ...     4324
Average number of shells per batch           ...     6.82 (68.16%)
Average number of basis functions per batch  ...    12.70 (70.55%)
Average number of large shells per batch     ...     5.23 (76.71%)
Average number of large basis fcns per batch ...     9.76 (76.87%)
Maximum spatial batch extension              ...  16.71, 19.94, 19.94 au
Average spatial batch extension              ...   3.61,  3.79,  3.75 au

Final grid set up in    0.1 sec
Final integration                            ... done (   0.1 sec)
Change in XC energy                          ...    -0.000124063
Integrated number of electrons               ...     9.999925920
Previous integrated no of electrons          ...     9.998714690

----------------
TOTAL SCF ENERGY
----------------

Total Energy       :          -75.80134687 Eh           -2062.65951 eV

Components:
Nuclear Repulsion  :            2.86743573 Eh              78.02689 eV
Electronic Energy  :          -78.66878260 Eh           -2140.68640 eV
One Electron Energy:         -110.42738664 Eh           -3004.88196 eV
Two Electron Energy:           31.75860404 Eh             864.19555 eV

Virial components:
Potential Energy   :         -151.00578475 Eh           -4109.07630 eV
Kinetic Energy     :           75.20443787 Eh            2046.41679 eV
Virial Ratio       :            2.00793715


DFT components:
N(Alpha)           :        4.999962959842 electrons
N(Beta)            :        4.999962959842 electrons
N(Total)           :        9.999925919685 electrons
E(XC)              :       -6.136202640900 Eh       

---------------
SCF CONVERGENCE
---------------

  Last Energy change         ...   -5.2498e-09  Tolerance :   1.0000e-06
  Last MAX-Density change    ...    4.1126e-05  Tolerance :   1.0000e-05
  Last RMS-Density change    ...    6.3734e-06  Tolerance :   1.0000e-06
  Last DIIS Error            ...    2.5247e-05  Tolerance :   1.0000e-06

             **** THE GBW FILE WAS UPDATED (Scan_26.gbw) ****
             **** DENSITY FILE WAS UPDATED (Scan_26.scfp.tmp) ****
             **** ENERGY FILE WAS UPDATED (Scan_26.en.tmp) ****
----------------
ORBITAL ENERGIES
----------------

  NO   OCC          E(Eh)            E(eV) 
   0   2.0000     -19.320455      -525.7363 
   1   2.0000      -0.982987       -26.7484 
   2   2.0000      -0.385273       -10.4838 
   3   2.0000      -0.353584        -9.6215 
   4   2.0000      -0.347198        -9.4477 
   5   0.0000      -0.173894        -4.7319 
   6   0.0000      -0.147988        -4.0270 
   7   0.0000       0.795383        21.6435 
   8   0.0000       0.803870        21.8744 
   9   0.0000       1.010238        27.4900 
  10   0.0000       1.010288        27.4913 
  11   0.0000       1.044643        28.4262 
  12   0.0000       1.127780        30.6885 
  13   0.0000       1.901999        51.7560 
  14   0.0000       1.903146        51.7872 
  15   0.0000       1.918447        52.2036 
  16   0.0000       1.926480        52.4222 
  17   0.0000       1.931118        52.5484 

                    ********************************
                    * MULLIKEN POPULATION ANALYSIS *
                    ********************************

-----------------------
MULLIKEN ATOMIC CHARGES
-----------------------
   0 O :   -0.220707
   1 H :    0.109396
   2 H :    0.111312
Sum of atomic charges:   -0.0000000

--------------------------------
MULLIKEN REDUCED ORBITAL CHARGES
--------------------------------
  0 O s       :     3.999362  s :     3.999362
      pz      :     1.590079  p :     4.221070
      px      :     1.048257
      py      :     1.582734
      dz2     :     0.000035  d :     0.000276
      dxz     :     0.000016
      dyz     :     0.000110
      dx2y2   :     0.000098
      dxy     :     0.000016
  1 H s       :     0.890604  s :     0.890604
  2 H s       :     0.888688  s :     0.888688


                     *******************************
                     * LOEWDIN POPULATION ANALYSIS *
                     *******************************

----------------------
LOEWDIN ATOMIC CHARGES
----------------------
   0 O :   -0.226251
   1 H :    0.112171
   2 H :    0.114080

-------------------------------
LOEWDIN REDUCED ORBITAL CHARGES
-------------------------------
  0 O s       :     3.999105  s :     3.999105
      pz      :     1.591289  p :     4.226844
      px      :     1.051595
      py      :     1.583959
      dz2     :     0.000038  d :     0.000302
      dxz     :     0.000021
      dyz     :     0.000115
      dx2y2   :     0.000107
      dxy     :     0.000021
  1 H s       :     0.887829  s :     0.887829
  2 H s       :     0.885920  s :     0.885920


                      *****************************
                      * MAYER POPULATION ANALYSIS *
                      *****************************

  NA   - Mulliken gross atomic population
  ZA   - Total nuclear charge
  QA   - Mulliken gross atomic charge
  VA   - Mayer's total valence
  BVA  - Mayer's bonded valence
  FA   - Mayer's free valence

  ATOM       NA         ZA         QA         VA         BVA        FA
  0 O      8.2207     8.0000    -0.2207     1.9096     1.9096    -0.0000
  1 H      0.8906     1.0000     0.1094     0.9881     0.9881     0.0000
  2 H      0.8887     1.0000     0.1113     0.9877     0.9877    -0.0000

  Mayer bond orders larger than 0.1
B(  0-O ,  1-H ) :   0.9550 B(  0-O ,  2-H ) :   0.9546 

-------
TIMINGS
-------

Total SCF time: 0 days 0 hours 0 min 4 sec 

Total time                  ....       4.995 sec
Sum of individual times     ....       4.711 sec  ( 94.3%)

Fock matrix formation       ....       4.486 sec  ( 89.8%)
  XC integration            ....       1.053 sec  ( 23.5% of F)
    Basis function eval.    ....       0.191 sec  ( 18.1% of XC)
    Density eval.           ....       0.039 sec  (  3.7% of XC)
    XC-Functional eval.     ....       0.313 sec  ( 29.7% of XC)
    XC-Potential eval.      ....       0.016 sec  (  1.5% of XC)
Diagonalization             ....       0.009 sec  (  0.2%)
Density matrix formation    ....       0.000 sec  (  0.0%)
Population analysis         ....       0.009 sec  (  0.2%)
Initial guess               ....       0.108 sec  (  2.2%)
Orbital Transformation      ....       0.000 sec  (  0.0%)
Orbital Orthonormalization  ....       0.000 sec  (  0.0%)
DIIS solution               ....       0.000 sec  (  0.0%)
Grid generation             ....       0.100 sec  (  2.0%)


-------------------------------------------------------------------------------
                          DFT DISPERSION CORRECTION                            
                                                                               
                              DFTD3 V3.1  Rev 1                                
                              USING zero damping                               
-------------------------------------------------------------------------------
The omegaB97X-D3 functional is recognized. Fit by Chai et al.
Active option DFTDOPT                   ...         3   

molecular C6(AA) [au] = 85.410403 


            DFT-D V3
 parameters
 s6 scaling factor         :     1.0000 
 rs6 scaling factor        :     1.2810 
 s8 scaling factor         :     1.0000 
 rs8 scaling factor        :     1.0940 
 Damping factor alpha6     :    14.0000 
 Damping factor alpha8     :    16.0000 
 ad hoc parameters k1-k3   :    16.0000     1.3333    -4.0000 

 Edisp/kcal,au: -0.276337473962  -0.000440371749 
 E6   /kcal   :  -0.131247005 
 E8   /kcal   :  -0.145090469 
 % E8         :  52.504811210 

-------------------------   ----------------
Dispersion correction           -0.000440372
-------------------------   ----------------


-------------------------   --------------------
FINAL SINGLE POINT ENERGY       -75.801787242585
-------------------------   --------------------


                            ***************************************
                            *     ORCA property calculations      *
                            ***************************************

                                    ---------------------
                                    Active property flags
                                    ---------------------
   (+) Dipole Moment


------------------------------------------------------------------------------
                       ORCA ELECTRIC PROPERTIES CALCULATION
------------------------------------------------------------------------------

Dipole Moment Calculation                       ... on
Quadrupole Moment Calculation                   ... off
Polarizability Calculation                      ... off
GBWName                                         ... Scan_26.gbw
Electron density file                           ... Scan_26.scfp.tmp

-------------
DIPOLE MOMENT
-------------
                                X             Y             Z
Electronic contribution:     -0.87863      -0.86759      -0.86446
Nuclear contribution   :      1.17881       1.18093       1.17670
                        -----------------------------------------
Total Dipole Moment    :      0.30018       0.31334       0.31224
                        -----------------------------------------
Magnitude (a.u.)       :      0.53459
Magnitude (Debye)      :      1.35882


Timings for individual modules:

Sum of individual times         ...        5.349 sec (=   0.089 min)
GTO integral calculation        ...        0.314 sec (=   0.005 min)   5.9 %
SCF iterations                  ...        5.035 sec (=   0.084 min)  94.1 %
                             ****ORCA TERMINATED NORMALLY****
TOTAL RUN TIME: 0 days 0 hours 0 minutes 5 seconds 695 msec
