
                                 *****************
                                 * O   R   C   A *
                                 *****************

           --- An Ab Initio, DFT and Semiempirical electronic structure package ---

                  #######################################################
                  #                        -***-                        #
                  #  Department of molecular theory and spectroscopy    #
                  #              Directorship: Frank Neese              #
                  # Max Planck Institute for Chemical Energy Conversion #
                  #                  D-45470 Muelheim/Ruhr              #
                  #                       Germany                       #
                  #                                                     #
                  #                  All rights reserved                #
                  #                        -***-                        #
                  #######################################################


                         Program Version 4.0.0.2 - RELEASE -


 With contributions from (in alphabetic order):
   Daniel Aravena         : Magnetic Properties
   Michael Atanasov       : Ab Initio Ligand Field Theory
   Ute Becker             : Parallelization
   Martin Brehm           : Molecular dynamics
   Dmytro Bykov           : SCF Hessian
   Vijay G. Chilkuri      : MRCI spin determinant printing
   Dipayan Datta          : RHF DLPNO-CCSD density
   Achintya Kumar Dutta   : EOM-CC, STEOM-CC
   Dmitry Ganyushin       : Spin-Orbit,Spin-Spin,Magnetic field MRCI
   Yang Guo               : DLPNO-NEVPT2, CIM, IAO-localization
   Andreas Hansen         : Spin unrestricted coupled pair/coupled cluster methods
   Lee Huntington         : MR-EOM, pCC
   Robert Izsak           : Overlap fitted RIJCOSX, COSX-SCS-MP3, EOM
   Christian Kollmar      : KDIIS, OOCD, Brueckner-CCSD(T), CCSD density
   Simone Kossmann        : Meta GGA functionals, TD-DFT gradient, OOMP2, MP2 Hessian
   Martin Krupicka        : AUTO-CI
   Dagmar Lenk            : GEPOL surface
   Dimitrios Liakos       : Extrapolation schemes; parallel MDCI
   Dimitrios Manganas     : ROCIS; embedding schemes
   Dimitrios Pantazis     : SARC Basis sets
   Taras Petrenko         : DFT Hessian,TD-DFT gradient, ASA, ECA, R-Raman, ABS, FL, XAS/XES, NRVS
   Peter Pinski           : DLPNO-MP2
   Christoph Reimann      : Effective Core Potentials
   Marius Retegan         : Local ZFS, SOC
   Christoph Riplinger    : Optimizer, TS searches, QM/MM, DLPNO-CCSD(T), (RO)-DLPNO pert. Triples
   Tobias Risthaus        : Range-separated hybrids, TD-DFT gradient, RPA, STAB
   Michael Roemelt        : Restricted open shell CIS
   Masaaki Saitow         : Open-shell DLPNO
   Barbara Sandhoefer     : DKH picture change effects
   Kantharuban Sivalingam : CASSCF convergence, NEVPT2, FIC-MRCI
   Georgi Stoychev        : AutoAux
   Boris Wezisla          : Elementary symmetry handling
   Frank Wennmohs         : Technical directorship


 We gratefully acknowledge several colleagues who have allowed us to
 interface, adapt or use parts of their codes:
   Stefan Grimme, W. Hujo, H. Kruse,             : VdW corrections, initial TS optimization,
                  C. Bannwarth                     DFT functionals, gCP, sTDA/sTD-DF
   Ed Valeev                                     : LibInt (2-el integral package), F12 methods
   Garnet Chan, S. Sharma, J. Yang, R. Olivares  : DMRG
   Ulf Ekstrom                                   : XCFun DFT Library
   Mihaly Kallay                                 : mrcc  (arbitrary order and MRCC methods)
   Jiri Pittner, Ondrej Demel                    : Mk-CCSD
   Frank Weinhold                                : gennbo (NPA and NBO analysis)
   Christopher J. Cramer and Donald G. Truhlar   : smd solvation model


 Your calculation uses the libint2 library for the computation of 2-el integrals
 For citations please refer to: http://libint.valeyev.net

 This ORCA versions uses:
   CBLAS   interface :  Fast vector & matrix operations
   LAPACKE interface :  Fast linear algebra routines
   SCALAPACK package :  Parallel linear algebra routines


Your calculation utilizes the atom-pairwise dispersion correction
with the zero-damping scheme (D30)
Cite in your paper:
S.Grimme, J.Antony, S.Ehrlich and H.Krieg, J.Chem.Phys., 132, (2010), 154104 
   

XCFun DFT library Copyright 2009-2010 Ulf Ekstrom and contributors.
See http://admol.org/xcfun for more information. This is free soft-
ware; see the source code for copying conditions. There is ABSOLUTELY
NO WARRANTY; not even for MERCHANTABILITY or FITNESS FOR A PARTICULAR
PURPOSE. For details see the documentation. Scientific users of this 
library should cite U. Ekstrom, L. Visscher, R. Bast, A. J. Thorvald-
sen and K. Ruud; J.Chem.Theor.Comp. 2010, DOI: 10.1021/ct100117s
XCFun Version 0.99 
Your calculation utilizes the basis: 6-31G(d)
   H-He, Li-Ne : W. J. Hehre, R. Ditchfield and J.A. Pople, J. Chem. Phys. 56, 2257 (1972).
                 Note: He and Ne are unpublished basis sets taken from the Gaussian program.
                 Note: Li and B from J. D. Dill and J. A. Pople, J. Chem. Phys. 62, 2921 (1975).
   Na - Ar     : M. M. Francl, W. J. Pietro, W. J. Hehre, J. S. Binkley, M. S. Gordon, 
                 D. J. DeFrees and J. A. Pople, J. Chem. Phys. 77, 3654 (1982).
   K - Zn      : V. A. Rassolov, J. A. Pople, M. A. Ratner, and T. L. Windus, J. Chem. Phys. 109, 1223 (1998).

================================================================================
                                        WARNINGS
                       Please study these warnings very carefully!
================================================================================

Warning: TCutStore was < 0. Adjusted to Thresh (uncritical)

INFO   : the flag for use of LIBINT has been found!

================================================================================
                                       INPUT FILE
================================================================================
NAME = initial29.inp
|  1> ! WB97X-D3 6-31G(d) VerySlowConv
|  2> ! KDIIS NOSOSCF
|  3> %base "Scan_29"
|  4> 
|  5> %scf
|  6> maxiter 999
|  7> end
|  8> 
|  9> * xyz 0 1
| 10> O         -0.425900616789    1.221438012289   -0.356186122729
| 11> H          2.894316507056    0.848531438170   -0.727762971493
| 12> H         -2.028975890267    3.314570549541    1.729459094223
| 13> **                         ****END OF INPUT****
================================================================================

                       ****************************
                       * Single Point Calculation *
                       ****************************

---------------------------------
CARTESIAN COORDINATES (ANGSTROEM)
---------------------------------
  O     -0.425901    1.221438   -0.356186
  H      2.894317    0.848531   -0.727763
  H     -2.028976    3.314571    1.729459

----------------------------
CARTESIAN COORDINATES (A.U.)
----------------------------
  NO LB      ZA    FRAG     MASS         X           Y           Z
   0 O     8.0000    0    15.999   -0.804836    2.308183   -0.673094
   1 H     1.0000    0     1.008    5.469466    1.603492   -1.375273
   2 H     1.0000    0     1.008   -3.834209    6.263631    3.268204

--------------------------------
INTERNAL COORDINATES (ANGSTROEM)
--------------------------------
 O      0   0   0     0.000000000000     0.00000000     0.00000000
 H      1   0   0     3.361691600524     0.00000000     0.00000000
 H      1   2   0     3.361691556633   127.49030947     0.00000000

---------------------------
INTERNAL COORDINATES (A.U.)
---------------------------
 O      0   0   0     0.000000000000     0.00000000     0.00000000
 H      1   0   0     6.352676471693     0.00000000     0.00000000
 H      1   2   0     6.352676388751   127.49030947     0.00000000

---------------------
BASIS SET INFORMATION
---------------------
There are 2 groups of distinct atoms

 Group   1 Type O   : 10s4p1d contracted to 3s2p1d pattern {631/31/1}
 Group   2 Type H   : 4s contracted to 2s pattern {31}

Atom   0O    basis set group =>   1
Atom   1H    basis set group =>   2
Atom   2H    basis set group =>   2
------------------------------------------------------------------------------
                           ORCA GTO INTEGRAL CALCULATION
------------------------------------------------------------------------------

                         BASIS SET STATISTICS AND STARTUP INFO

 # of primitive gaussian shells          ...   23
 # of primitive gaussian functions       ...   35
 # of contracted shells                  ...   10
 # of contracted basis functions         ...   18
 Highest angular momentum                ...    2
 Maximum contraction depth               ...    6
 Integral package used                   ... LIBINT
 Integral threshhold            Thresh   ...  1.000e-10
 Primitive cut-off              TCut     ...  1.000e-11


------------------------------ INTEGRAL EVALUATION ----------------------------


 * One electron integrals 
 Pre-screening matrix                    ... done
 Shell pair data                         ... done (   0.000 sec)

-------------------------------------------------------------------------------
                                 ORCA SCF
-------------------------------------------------------------------------------

------------
SCF SETTINGS
------------
Hamiltonian:
 Density Functional     Method          .... DFT(GTOs)
 Exchange Functional    Exchange        .... WB97X-D3
 Correlation Functional Correlation     .... WB97X-D3
 Gradients option       PostSCFGGA      .... off
 Hybrid DFT is turned on
   Fraction HF Exchange ScalHFX         ....  0.195728
   Scaling of DF-GGA-X  ScalDFX         ....  0.000000
   Scaling of DF-GGA-C  ScalDFC         ....  1.000000
   Scaling of DF-LDA-C  ScalLDAC        ....  1.000000
   Perturbative correction              ....  0.000000
 Long-range corrected/Screened/Range-Separated Hybrid DFT is turned on
   Amount of maximum screened exact exchange              ....  0.804272
   Range separation parameter mu (erf(mu*r12)/r12)        ....  0.250000


General Settings:
 Integral files         IntName         .... Scan_29
 Hartree-Fock type      HFTyp           .... RHF
 Total Charge           Charge          ....    0
 Multiplicity           Mult            ....    1
 Number of Electrons    NEL             ....   10
 Basis Dimension        Dim             ....   18
 Nuclear Repulsion      ENuc            ....      2.6063842740 Eh

Convergence Acceleration:
 DIIS                   CNVDIIS         .... on
   Start iteration      DIISMaxIt       ....     0
   Startup error        DIISStart       ....  0.200000
   # of expansion vecs  DIISMaxEq       ....     5
   Bias factor          DIISBfac        ....   1.050
   Max. coefficient     DIISMaxC        ....  10.000
 Newton-Raphson         CNVNR           .... off
 SOSCF                  CNVSOSCF        .... off
 Level Shifting         CNVShift        .... off
 Zerner damping         CNVZerner       .... off
 Static damping         CNVDamp         .... off
 Fernandez-Rico         CNVRico         .... off

SCF Procedure:
 Maximum # iterations   MaxIter         ....   999
 SCF integral mode      SCFMode         .... Direct
   Integral package                     .... LIBINT
 Reset frequeny         DirectResetFreq ....    20
 Integral Threshold     Thresh          ....  1.000e-10 Eh
 Primitive CutOff       TCut            ....  1.000e-11 Eh

Convergence Tolerance:
 Convergence Check Mode ConvCheckMode   .... All-Criteria
 Convergence forced     ConvForced      .... 0
 Energy Change          TolE            ....  1.000e-06 Eh
 Max Density Change     TolMaxP         ....  1.000e-05
 RMS Density Change     TolRMSP         ....  1.000e-06
 DIIS Error             TolErr          ....  1.000e-06


Diagonalization of the overlap matrix:
Smallest eigenvalue                        ... 2.324e-01
Time for diagonalization                   ...    0.001 sec
Threshold for overlap eigenvalues          ... 1.000e-08
Number of eigenvalues below threshold      ... 0
Time for construction of square roots      ...    0.006 sec
Total time needed                          ...    0.007 sec

-------------------
DFT GRID GENERATION
-------------------

General Integration Accuracy     IntAcc      ...  4.340
Radial Grid Type                 RadialGrid  ... Gauss-Chebyshev
Angular Grid (max. acc.)         AngularGrid ... Lebedev-110
Angular grid pruning method      GridPruning ... 3 (G Style)
Weight generation scheme         WeightScheme... Becke
Basis function cutoff            BFCut       ...    1.0000e-10
Integration weight cutoff        WCut        ...    1.0000e-14
Grids for H and He will be reduced by one unit

# of grid points (after initial pruning)     ...   3304 (   0.0 sec)
# of grid points (after weights+screening)   ...   3300 (   0.0 sec)
nearest neighbour list constructed           ...    0.0 sec
Grid point re-assignment to atoms done       ...    0.0 sec
Grid point division into batches done        ...    0.0 sec
Reduced shell lists constructed in    0.0 sec

Total number of grid points                  ...     3300
Total number of batches                      ...       53
Average number of points per batch           ...       62
Average number of grid points per atom       ...     1100
Average number of shells per batch           ...     7.41 (74.07%)
Average number of basis functions per batch  ...    13.70 (76.13%)
Average number of large shells per batch     ...     6.07 (82.00%)
Average number of large basis fcns per batch ...    11.52 (84.05%)
Maximum spatial batch extension              ...  17.31, 23.24, 25.65 au
Average spatial batch extension              ...   5.81,  6.34,  6.27 au

Time for grid setup =    0.020 sec

------------------------------
INITIAL GUESS: MODEL POTENTIAL
------------------------------
Loading Hartree-Fock densities                     ... done
Calculating cut-offs                               ... done
Setting up the integral package                    ... done
Initializing the effective Hamiltonian             ... done
Starting the Coulomb interaction                   ... done (   0.0 sec)
Reading the grid                                   ... done
Mapping shells                                     ... done
Starting the XC term evaluation                    ... done (   0.0 sec)
  promolecular density results
     # of electrons  =      9.999746013
     EX              =     -8.523856370
     EC              =     -0.276079106
     EX+EC           =     -8.799935476
Transforming the Hamiltonian                       ... done (   0.0 sec)
Diagonalizing the Hamiltonian                      ... done (   0.0 sec)
Back transforming the eigenvectors                 ... done (   0.0 sec)
Now organizing SCF variables                       ... done
                      ------------------
                      INITIAL GUESS DONE (   0.5 sec)
                      ------------------
--------------
SCF ITERATIONS
--------------
ITER       Energy         Delta-E        Max-DP      RMS-DP      [F,P]   Gradient Norm
               ***  Starting incremental Fock matrix formation  ***
                             ****Resetting KDIIS****
                             ****Turning on KDIIS(Cayley)****
  0    -74.7221396338   0.000000000000 0.07723566  0.00976826  0.3669056   0.322540484
  1    -74.8593668681  -0.137227234238 0.16364277  0.02004463  0.3073334   0.267501556
  2    -75.0761804019  -0.216813533884 0.12001229  0.01748373  0.1691936   0.153213536
  3    -75.2386530958  -0.162472693837 0.18804144  0.02696387  0.1550489   0.104824840
  4    -75.4191972029  -0.180544107116 0.10298916  0.01877079  0.1374782   0.146536201
  5    -75.5287819966  -0.109584793713 0.24004922  0.02781272  0.1228516   0.125504237
  6    -75.6583487608  -0.129566764160 0.29904376  0.03265757  0.1425682   0.129419655
  7    -75.5369037647   0.121444996044 0.12927966  0.01866077  0.1731539   0.112648351
  8    -75.7034934890  -0.166589724268 0.06156674  0.00945371  0.1117308   0.071005841
  9    -75.7504876170  -0.046994127996 0.06509974  0.00851705  0.0572472   0.039406058
 10    -75.7627921483  -0.012304531255 0.07065918  0.00903168  0.0436711   0.035331428
 11    -75.7689229737  -0.006130825413 0.03093836  0.00351284  0.0211436   0.015343199
 12    -75.7704651588  -0.001542185173 0.02025047  0.00276287  0.0115444   0.012662703
 13    -75.7713229385  -0.000857779662 0.01287556  0.00134887  0.0070653   0.004658556
 14    -75.7715329932  -0.000210054705 0.00305943  0.00033736  0.0011538   0.000732962
 15    -75.7715584079  -0.000025414739 0.02482831  0.00261758  0.0009582   0.000667476
 16    -75.7713913205   0.000167087466 0.03901628  0.00405873  0.0006319   0.000529897
 17    -75.7712744115   0.000116909020 0.00548554  0.00057443  0.0001834   0.000237916
 18    -75.7712728736   0.000001537858 0.00058837  0.00007604  0.0001029   0.000116405
                          ***Energy convergence achieved***
 19    -75.7712731267  -0.000000253097 0.00034275  0.00004834  0.0000926   0.000109661
               *** Restarting incremental Fock matrix formation ***
                             ****Resetting KDIIS****

            ***Energy convergence in two consecutive cycles with***
                    ***'reasonable' density convergence***
                       *** signaling convergence ***

                    *** KDIIS BlockDiag ( 0.000 sec) ***

               *****************************************************
               *                     SUCCESS                       *
               *           SCF CONVERGED AFTER  20 CYCLES          *
               *****************************************************

Setting up the final grid:

General Integration Accuracy     IntAcc      ...  4.670
Radial Grid Type                 RadialGrid  ... Gauss-Chebyshev
Angular Grid (max. acc.)         AngularGrid ... Lebedev-302
Angular grid pruning method      GridPruning ... 3 (G Style)
Weight generation scheme         WeightScheme... Becke
Basis function cutoff            BFCut       ...    1.0000e-10
Integration weight cutoff        WCut        ...    1.0000e-14
Grids for H and He will be reduced by one unit

# of grid points (after initial pruning)     ...  13000 (   0.0 sec)
# of grid points (after weights+screening)   ...  12980 (   0.0 sec)
nearest neighbour list constructed           ...    0.0 sec
Grid point re-assignment to atoms done       ...    0.0 sec
Grid point division into batches done        ...    0.1 sec
Reduced shell lists constructed in    0.2 sec

Total number of grid points                  ...    12980
Total number of batches                      ...      204
Average number of points per batch           ...       63
Average number of grid points per atom       ...     4327
Average number of shells per batch           ...     6.40 (64.00%)
Average number of basis functions per batch  ...    11.67 (64.82%)
Average number of large shells per batch     ...     5.01 (78.28%)
Average number of large basis fcns per batch ...     9.36 (80.23%)
Maximum spatial batch extension              ...  15.87, 17.58, 17.58 au
Average spatial batch extension              ...   3.78,  3.89,  3.79 au

Final grid set up in    0.2 sec
Final integration                            ... done (   0.3 sec)
Change in XC energy                          ...     0.000012246
Integrated number of electrons               ...     9.999972082
Previous integrated no of electrons          ...     9.999697013

----------------
TOTAL SCF ENERGY
----------------

Total Energy       :          -75.77126126 Eh           -2061.84084 eV

Components:
Nuclear Repulsion  :            2.60638427 Eh              70.92332 eV
Electronic Energy  :          -78.37764554 Eh           -2132.76416 eV
One Electron Energy:         -109.89742215 Eh           -2990.46089 eV
Two Electron Energy:           31.51977661 Eh             857.69673 eV

Virial components:
Potential Energy   :         -151.02307742 Eh           -4109.54686 eV
Kinetic Energy     :           75.25181615 Eh            2047.70602 eV
Virial Ratio       :            2.00690276


DFT components:
N(Alpha)           :        4.999986041132 electrons
N(Beta)            :        4.999986041132 electrons
N(Total)           :        9.999972082264 electrons
E(XC)              :       -6.138922305092 Eh       

---------------
SCF CONVERGENCE
---------------

  Last Energy change         ...   -3.8380e-07  Tolerance :   1.0000e-06
  Last MAX-Density change    ...    3.1675e-05  Tolerance :   1.0000e-05
  Last RMS-Density change    ...    4.5594e-06  Tolerance :   1.0000e-06
  Last DIIS Error            ...    8.8832e-05  Tolerance :   1.0000e-06

             **** THE GBW FILE WAS UPDATED (Scan_29.gbw) ****
             **** DENSITY FILE WAS UPDATED (Scan_29.scfp.tmp) ****
             **** ENERGY FILE WAS UPDATED (Scan_29.en.tmp) ****
----------------
ORBITAL ENERGIES
----------------

  NO   OCC          E(Eh)            E(eV) 
   0   2.0000     -19.317693      -525.6612 
   1   2.0000      -0.982262       -26.7287 
   2   2.0000      -0.384592       -10.4653 
   3   2.0000      -0.343195        -9.3388 
   4   2.0000      -0.334766        -9.1094 
   5   0.0000      -0.172605        -4.6968 
   6   0.0000      -0.169531        -4.6132 
   7   0.0000       0.807294        21.9676 
   8   0.0000       0.812944        22.1213 
   9   0.0000       1.006079        27.3768 
  10   0.0000       1.011107        27.5136 
  11   0.0000       1.021792        27.8044 
  12   0.0000       1.113883        30.3103 
  13   0.0000       1.901448        51.7410 
  14   0.0000       1.901868        51.7525 
  15   0.0000       1.921654        52.2909 
  16   0.0000       1.922778        52.3214 
  17   0.0000       1.930124        52.5213 

                    ********************************
                    * MULLIKEN POPULATION ANALYSIS *
                    ********************************

-----------------------
MULLIKEN ATOMIC CHARGES
-----------------------
   0 O :   -0.212676
   1 H :    0.105975
   2 H :    0.106701
Sum of atomic charges:    0.0000000

--------------------------------
MULLIKEN REDUCED ORBITAL CHARGES
--------------------------------
  0 O s       :     3.999809  s :     3.999809
      pz      :     1.573122  p :     4.212684
      px      :     1.113765
      py      :     1.525797
      dz2     :     0.000022  d :     0.000183
      dxz     :     0.000005
      dyz     :     0.000096
      dx2y2   :     0.000054
      dxy     :     0.000005
  1 H s       :     0.894025  s :     0.894025
  2 H s       :     0.893299  s :     0.893299


                     *******************************
                     * LOEWDIN POPULATION ANALYSIS *
                     *******************************

----------------------
LOEWDIN ATOMIC CHARGES
----------------------
   0 O :   -0.215635
   1 H :    0.107459
   2 H :    0.108175

-------------------------------
LOEWDIN REDUCED ORBITAL CHARGES
-------------------------------
  0 O s       :     3.999733  s :     3.999733
      pz      :     1.573774  p :     4.215713
      px      :     1.115454
      py      :     1.526485
      dz2     :     0.000022  d :     0.000189
      dxz     :     0.000006
      dyz     :     0.000097
      dx2y2   :     0.000056
      dxy     :     0.000006
  1 H s       :     0.892541  s :     0.892541
  2 H s       :     0.891825  s :     0.891825


                      *****************************
                      * MAYER POPULATION ANALYSIS *
                      *****************************

  NA   - Mulliken gross atomic population
  ZA   - Total nuclear charge
  QA   - Mulliken gross atomic charge
  VA   - Mayer's total valence
  BVA  - Mayer's bonded valence
  FA   - Mayer's free valence

  ATOM       NA         ZA         QA         VA         BVA        FA
  0 O      8.2127     8.0000    -0.2127     1.9763     1.9763    -0.0000
  1 H      0.8940     1.0000     0.1060     0.9889     0.9889    -0.0000
  2 H      0.8933     1.0000     0.1067     0.9887     0.9887     0.0000

  Mayer bond orders larger than 0.1
B(  0-O ,  1-H ) :   0.9882 B(  0-O ,  2-H ) :   0.9881 

-------
TIMINGS
-------

Total SCF time: 0 days 0 hours 0 min 20 sec 

Total time                  ....      20.045 sec
Sum of individual times     ....      19.310 sec  ( 96.3%)

Fock matrix formation       ....      18.546 sec  ( 92.5%)
  XC integration            ....       3.917 sec  ( 21.1% of F)
    Basis function eval.    ....       0.287 sec  (  7.3% of XC)
    Density eval.           ....       0.186 sec  (  4.8% of XC)
    XC-Functional eval.     ....       0.608 sec  ( 15.5% of XC)
    XC-Potential eval.      ....       0.132 sec  (  3.4% of XC)
Diagonalization             ....       0.067 sec  (  0.3%)
Density matrix formation    ....       0.000 sec  (  0.0%)
Population analysis         ....       0.034 sec  (  0.2%)
Initial guess               ....       0.455 sec  (  2.3%)
Orbital Transformation      ....       0.000 sec  (  0.0%)
Orbital Orthonormalization  ....       0.000 sec  (  0.0%)
DIIS solution               ....       0.000 sec  (  0.0%)
Grid generation             ....       0.208 sec  (  1.0%)


-------------------------------------------------------------------------------
                          DFT DISPERSION CORRECTION                            
                                                                               
                              DFTD3 V3.1  Rev 1                                
                              USING zero damping                               
-------------------------------------------------------------------------------
The omegaB97X-D3 functional is recognized. Fit by Chai et al.
Active option DFTDOPT                   ...         3   

molecular C6(AA) [au] = 85.410837 


            DFT-D V3
 parameters
 s6 scaling factor         :     1.0000 
 rs6 scaling factor        :     1.2810 
 s8 scaling factor         :     1.0000 
 rs8 scaling factor        :     1.0940 
 Damping factor alpha6     :    14.0000 
 Damping factor alpha8     :    16.0000 
 ad hoc parameters k1-k3   :    16.0000     1.3333    -4.0000 

 Edisp/kcal,au: -0.209208142511  -0.000333394361 
 E6   /kcal   :  -0.136166037 
 E8   /kcal   :  -0.073042106 
 % E8         :  34.913605591 

-------------------------   ----------------
Dispersion correction           -0.000333394
-------------------------   ----------------


-------------------------   --------------------
FINAL SINGLE POINT ENERGY       -75.771594658485
-------------------------   --------------------


                            ***************************************
                            *     ORCA property calculations      *
                            ***************************************

                                    ---------------------
                                    Active property flags
                                    ---------------------
   (+) Dipole Moment


------------------------------------------------------------------------------
                       ORCA ELECTRIC PROPERTIES CALCULATION
------------------------------------------------------------------------------

Dipole Moment Calculation                       ... on
Quadrupole Moment Calculation                   ... off
Polarizability Calculation                      ... off
GBWName                                         ... Scan_29.gbw
Electron density file                           ... Scan_29.scfp.tmp

-------------
DIPOLE MOMENT
-------------
                                X             Y             Z
Electronic contribution:     -1.07902      -1.07552      -1.07160
Nuclear contribution   :      1.42928       1.43185       1.42672
                        -----------------------------------------
Total Dipole Moment    :      0.35027       0.35633       0.35512
                        -----------------------------------------
Magnitude (a.u.)       :      0.61300
Magnitude (Debye)      :      1.55812


Timings for individual modules:

Sum of individual times         ...       21.641 sec (=   0.361 min)
GTO integral calculation        ...        1.371 sec (=   0.023 min)   6.3 %
SCF iterations                  ...       20.270 sec (=   0.338 min)  93.7 %
                             ****ORCA TERMINATED NORMALLY****
TOTAL RUN TIME: 0 days 0 hours 0 minutes 23 seconds 507 msec
