
                                 *****************
                                 * O   R   C   A *
                                 *****************

           --- An Ab Initio, DFT and Semiempirical electronic structure package ---

                  #######################################################
                  #                        -***-                        #
                  #  Department of molecular theory and spectroscopy    #
                  #              Directorship: Frank Neese              #
                  # Max Planck Institute for Chemical Energy Conversion #
                  #                  D-45470 Muelheim/Ruhr              #
                  #                       Germany                       #
                  #                                                     #
                  #                  All rights reserved                #
                  #                        -***-                        #
                  #######################################################


                         Program Version 4.0.0.2 - RELEASE -


 With contributions from (in alphabetic order):
   Daniel Aravena         : Magnetic Properties
   Michael Atanasov       : Ab Initio Ligand Field Theory
   Ute Becker             : Parallelization
   Martin Brehm           : Molecular dynamics
   Dmytro Bykov           : SCF Hessian
   Vijay G. Chilkuri      : MRCI spin determinant printing
   Dipayan Datta          : RHF DLPNO-CCSD density
   Achintya Kumar Dutta   : EOM-CC, STEOM-CC
   Dmitry Ganyushin       : Spin-Orbit,Spin-Spin,Magnetic field MRCI
   Yang Guo               : DLPNO-NEVPT2, CIM, IAO-localization
   Andreas Hansen         : Spin unrestricted coupled pair/coupled cluster methods
   Lee Huntington         : MR-EOM, pCC
   Robert Izsak           : Overlap fitted RIJCOSX, COSX-SCS-MP3, EOM
   Christian Kollmar      : KDIIS, OOCD, Brueckner-CCSD(T), CCSD density
   Simone Kossmann        : Meta GGA functionals, TD-DFT gradient, OOMP2, MP2 Hessian
   Martin Krupicka        : AUTO-CI
   Dagmar Lenk            : GEPOL surface
   Dimitrios Liakos       : Extrapolation schemes; parallel MDCI
   Dimitrios Manganas     : ROCIS; embedding schemes
   Dimitrios Pantazis     : SARC Basis sets
   Taras Petrenko         : DFT Hessian,TD-DFT gradient, ASA, ECA, R-Raman, ABS, FL, XAS/XES, NRVS
   Peter Pinski           : DLPNO-MP2
   Christoph Reimann      : Effective Core Potentials
   Marius Retegan         : Local ZFS, SOC
   Christoph Riplinger    : Optimizer, TS searches, QM/MM, DLPNO-CCSD(T), (RO)-DLPNO pert. Triples
   Tobias Risthaus        : Range-separated hybrids, TD-DFT gradient, RPA, STAB
   Michael Roemelt        : Restricted open shell CIS
   Masaaki Saitow         : Open-shell DLPNO
   Barbara Sandhoefer     : DKH picture change effects
   Kantharuban Sivalingam : CASSCF convergence, NEVPT2, FIC-MRCI
   Georgi Stoychev        : AutoAux
   Boris Wezisla          : Elementary symmetry handling
   Frank Wennmohs         : Technical directorship


 We gratefully acknowledge several colleagues who have allowed us to
 interface, adapt or use parts of their codes:
   Stefan Grimme, W. Hujo, H. Kruse,             : VdW corrections, initial TS optimization,
                  C. Bannwarth                     DFT functionals, gCP, sTDA/sTD-DF
   Ed Valeev                                     : LibInt (2-el integral package), F12 methods
   Garnet Chan, S. Sharma, J. Yang, R. Olivares  : DMRG
   Ulf Ekstrom                                   : XCFun DFT Library
   Mihaly Kallay                                 : mrcc  (arbitrary order and MRCC methods)
   Jiri Pittner, Ondrej Demel                    : Mk-CCSD
   Frank Weinhold                                : gennbo (NPA and NBO analysis)
   Christopher J. Cramer and Donald G. Truhlar   : smd solvation model


 Your calculation uses the libint2 library for the computation of 2-el integrals
 For citations please refer to: http://libint.valeyev.net

 This ORCA versions uses:
   CBLAS   interface :  Fast vector & matrix operations
   LAPACKE interface :  Fast linear algebra routines
   SCALAPACK package :  Parallel linear algebra routines


Your calculation utilizes the atom-pairwise dispersion correction
with the zero-damping scheme (D30)
Cite in your paper:
S.Grimme, J.Antony, S.Ehrlich and H.Krieg, J.Chem.Phys., 132, (2010), 154104 
   

XCFun DFT library Copyright 2009-2010 Ulf Ekstrom and contributors.
See http://admol.org/xcfun for more information. This is free soft-
ware; see the source code for copying conditions. There is ABSOLUTELY
NO WARRANTY; not even for MERCHANTABILITY or FITNESS FOR A PARTICULAR
PURPOSE. For details see the documentation. Scientific users of this 
library should cite U. Ekstrom, L. Visscher, R. Bast, A. J. Thorvald-
sen and K. Ruud; J.Chem.Theor.Comp. 2010, DOI: 10.1021/ct100117s
XCFun Version 0.99 
Your calculation utilizes the basis: 6-31G(d)
   H-He, Li-Ne : W. J. Hehre, R. Ditchfield and J.A. Pople, J. Chem. Phys. 56, 2257 (1972).
                 Note: He and Ne are unpublished basis sets taken from the Gaussian program.
                 Note: Li and B from J. D. Dill and J. A. Pople, J. Chem. Phys. 62, 2921 (1975).
   Na - Ar     : M. M. Francl, W. J. Pietro, W. J. Hehre, J. S. Binkley, M. S. Gordon, 
                 D. J. DeFrees and J. A. Pople, J. Chem. Phys. 77, 3654 (1982).
   K - Zn      : V. A. Rassolov, J. A. Pople, M. A. Ratner, and T. L. Windus, J. Chem. Phys. 109, 1223 (1998).

================================================================================
                                        WARNINGS
                       Please study these warnings very carefully!
================================================================================

Warning: TCutStore was < 0. Adjusted to Thresh (uncritical)

INFO   : the flag for use of LIBINT has been found!

================================================================================
                                       INPUT FILE
================================================================================
NAME = initial30.inp
|  1> ! WB97X-D3 6-31G(d) VerySlowConv
|  2> ! KDIIS NOSOSCF
|  3> %base "Scan_30"
|  4> 
|  5> %scf
|  6> maxiter 999
|  7> end
|  8> 
|  9> * xyz 0 1
| 10> O         -0.473735213594    1.173517495190   -0.403935107053
| 11> H          2.960492170891    0.851324807055   -0.724979689161
| 12> H         -2.047316957297    3.359697697755    1.774424796215
| 13> **                         ****END OF INPUT****
================================================================================

                       ****************************
                       * Single Point Calculation *
                       ****************************

---------------------------------
CARTESIAN COORDINATES (ANGSTROEM)
---------------------------------
  O     -0.473735    1.173517   -0.403935
  H      2.960492    0.851325   -0.724980
  H     -2.047317    3.359698    1.774425

----------------------------
CARTESIAN COORDINATES (A.U.)
----------------------------
  NO LB      ZA    FRAG     MASS         X           Y           Z
   0 O     8.0000    0    15.999   -0.895230    2.217627   -0.763327
   1 H     1.0000    0     1.008    5.594519    1.608771   -1.370013
   2 H     1.0000    0     1.008   -3.868868    6.348909    3.353177

--------------------------------
INTERNAL COORDINATES (ANGSTROEM)
--------------------------------
 O      0   0   0     0.000000000000     0.00000000     0.00000000
 H      1   0   0     3.464216430931     0.00000000     0.00000000
 H      1   2   0     3.464216397740   124.56046879     0.00000000

---------------------------
INTERNAL COORDINATES (A.U.)
---------------------------
 O      0   0   0     0.000000000000     0.00000000     0.00000000
 H      1   0   0     6.546420323091     0.00000000     0.00000000
 H      1   2   0     6.546420260367   124.56046879     0.00000000

---------------------
BASIS SET INFORMATION
---------------------
There are 2 groups of distinct atoms

 Group   1 Type O   : 10s4p1d contracted to 3s2p1d pattern {631/31/1}
 Group   2 Type H   : 4s contracted to 2s pattern {31}

Atom   0O    basis set group =>   1
Atom   1H    basis set group =>   2
Atom   2H    basis set group =>   2
------------------------------------------------------------------------------
                           ORCA GTO INTEGRAL CALCULATION
------------------------------------------------------------------------------

                         BASIS SET STATISTICS AND STARTUP INFO

 # of primitive gaussian shells          ...   23
 # of primitive gaussian functions       ...   35
 # of contracted shells                  ...   10
 # of contracted basis functions         ...   18
 Highest angular momentum                ...    2
 Maximum contraction depth               ...    6
 Integral package used                   ... LIBINT
 Integral threshhold            Thresh   ...  1.000e-10
 Primitive cut-off              TCut     ...  1.000e-11


------------------------------ INTEGRAL EVALUATION ----------------------------


 * One electron integrals 
 Pre-screening matrix                    ... done
 Shell pair data                         ... done (   0.000 sec)

-------------------------------------------------------------------------------
                                 ORCA SCF
-------------------------------------------------------------------------------

------------
SCF SETTINGS
------------
Hamiltonian:
 Density Functional     Method          .... DFT(GTOs)
 Exchange Functional    Exchange        .... WB97X-D3
 Correlation Functional Correlation     .... WB97X-D3
 Gradients option       PostSCFGGA      .... off
 Hybrid DFT is turned on
   Fraction HF Exchange ScalHFX         ....  0.195728
   Scaling of DF-GGA-X  ScalDFX         ....  0.000000
   Scaling of DF-GGA-C  ScalDFC         ....  1.000000
   Scaling of DF-LDA-C  ScalLDAC        ....  1.000000
   Perturbative correction              ....  0.000000
 Long-range corrected/Screened/Range-Separated Hybrid DFT is turned on
   Amount of maximum screened exact exchange              ....  0.804272
   Range separation parameter mu (erf(mu*r12)/r12)        ....  0.250000


General Settings:
 Integral files         IntName         .... Scan_30
 Hartree-Fock type      HFTyp           .... RHF
 Total Charge           Charge          ....    0
 Multiplicity           Mult            ....    1
 Number of Electrons    NEL             ....   10
 Basis Dimension        Dim             ....   18
 Nuclear Repulsion      ENuc            ....      2.5303634921 Eh

Convergence Acceleration:
 DIIS                   CNVDIIS         .... on
   Start iteration      DIISMaxIt       ....     0
   Startup error        DIISStart       ....  0.200000
   # of expansion vecs  DIISMaxEq       ....     5
   Bias factor          DIISBfac        ....   1.050
   Max. coefficient     DIISMaxC        ....  10.000
 Newton-Raphson         CNVNR           .... off
 SOSCF                  CNVSOSCF        .... off
 Level Shifting         CNVShift        .... off
 Zerner damping         CNVZerner       .... off
 Static damping         CNVDamp         .... off
 Fernandez-Rico         CNVRico         .... off

SCF Procedure:
 Maximum # iterations   MaxIter         ....   999
 SCF integral mode      SCFMode         .... Direct
   Integral package                     .... LIBINT
 Reset frequeny         DirectResetFreq ....    20
 Integral Threshold     Thresh          ....  1.000e-10 Eh
 Primitive CutOff       TCut            ....  1.000e-11 Eh

Convergence Tolerance:
 Convergence Check Mode ConvCheckMode   .... All-Criteria
 Convergence forced     ConvForced      .... 0
 Energy Change          TolE            ....  1.000e-06 Eh
 Max Density Change     TolMaxP         ....  1.000e-05
 RMS Density Change     TolRMSP         ....  1.000e-06
 DIIS Error             TolErr          ....  1.000e-06


Diagonalization of the overlap matrix:
Smallest eigenvalue                        ... 2.327e-01
Time for diagonalization                   ...    0.000 sec
Threshold for overlap eigenvalues          ... 1.000e-08
Number of eigenvalues below threshold      ... 0
Time for construction of square roots      ...    0.006 sec
Total time needed                          ...    0.006 sec

-------------------
DFT GRID GENERATION
-------------------

General Integration Accuracy     IntAcc      ...  4.340
Radial Grid Type                 RadialGrid  ... Gauss-Chebyshev
Angular Grid (max. acc.)         AngularGrid ... Lebedev-110
Angular grid pruning method      GridPruning ... 3 (G Style)
Weight generation scheme         WeightScheme... Becke
Basis function cutoff            BFCut       ...    1.0000e-10
Integration weight cutoff        WCut        ...    1.0000e-14
Grids for H and He will be reduced by one unit

# of grid points (after initial pruning)     ...   3304 (   0.0 sec)
# of grid points (after weights+screening)   ...   3300 (   0.0 sec)
nearest neighbour list constructed           ...    0.0 sec
Grid point re-assignment to atoms done       ...    0.0 sec
Grid point division into batches done        ...    0.0 sec
Reduced shell lists constructed in    0.1 sec

Total number of grid points                  ...     3300
Total number of batches                      ...       53
Average number of points per batch           ...       62
Average number of grid points per atom       ...     1100
Average number of shells per batch           ...     7.39 (73.89%)
Average number of basis functions per batch  ...    13.69 (76.03%)
Average number of large shells per batch     ...     5.96 (80.70%)
Average number of large basis fcns per batch ...    11.19 (81.73%)
Maximum spatial batch extension              ...  17.31, 20.95, 25.65 au
Average spatial batch extension              ...   5.92,  6.34,  6.32 au

Time for grid setup =    0.087 sec

------------------------------
INITIAL GUESS: MODEL POTENTIAL
------------------------------
Loading Hartree-Fock densities                     ... done
Calculating cut-offs                               ... done
Setting up the integral package                    ... done
Initializing the effective Hamiltonian             ... done
Starting the Coulomb interaction                   ... done (   0.0 sec)
Reading the grid                                   ... done
Mapping shells                                     ... done
Starting the XC term evaluation                    ... done (   0.0 sec)
  promolecular density results
     # of electrons  =      9.999815479
     EX              =     -8.523753701
     EC              =     -0.276034004
     EX+EC           =     -8.799787704
Transforming the Hamiltonian                       ... done (   0.0 sec)
Diagonalizing the Hamiltonian                      ... done (   0.0 sec)
Back transforming the eigenvectors                 ... done (   0.0 sec)
Now organizing SCF variables                       ... done
                      ------------------
                      INITIAL GUESS DONE (   0.3 sec)
                      ------------------
--------------
SCF ITERATIONS
--------------
ITER       Energy         Delta-E        Max-DP      RMS-DP      [F,P]   Gradient Norm
               ***  Starting incremental Fock matrix formation  ***
                             ****Resetting KDIIS****
                             ****Turning on KDIIS(Cayley)****
  0    -74.6984957670   0.000000000000 0.07296164  0.00948840  0.3682483   0.322633506
  1    -74.8313858188  -0.132890051776 0.15410032  0.01927626  0.3100494   0.268908279
  2    -75.0406854330  -0.209299614196 0.10870269  0.01479015  0.1791193   0.158000555
  3    -75.1711093598  -0.130423926815 0.16116624  0.02318682  0.1605256   0.121632798
  4    -75.3607962319  -0.189686872111 0.08031661  0.01238341  0.1686951   0.115080434
  5    -75.4490940807  -0.088297848795 0.15426435  0.02370861  0.1846603   0.119568144
  6    -75.4572182871  -0.008124206376 0.07742458  0.01245179  0.1415969   0.143129142
  7    -75.5465948460  -0.089376558955 0.05066924  0.00959835  0.1266146   0.121889957
  8    -75.5908845177  -0.044289671655 0.23205177  0.03440774  0.1134522   0.111524941
  9    -75.7148446229  -0.123960105255 0.11677229  0.01709293  0.1217803   0.112632709
 10    -75.7403954153  -0.025550792336 0.10386449  0.01382909  0.0739814   0.048803355
 11    -75.7607659933  -0.020370578078 0.03917954  0.00458838  0.0242959   0.015727523
 12    -75.7628967351  -0.002130741735 0.00771943  0.00110216  0.0066697   0.004201470
 13    -75.7631029264  -0.000206191341 0.00115445  0.00015184  0.0005825   0.000366836
 14    -75.7631075810  -0.000004654608 0.00149256  0.00018976  0.0004306   0.000293011
 15    -75.7631103980  -0.000002817004 0.01092398  0.00118943  0.0010946   0.000532799
 16    -75.7630839864   0.000026411607 0.00540818  0.00057446  0.0003042   0.000237978
 17    -75.7630784312   0.000005555214 0.00111737  0.00013182  0.0002190   0.000201060
                          ***Energy convergence achieved***
 18    -75.7630788354  -0.000000404182 0.00120833  0.00016481  0.0002067   0.000157289
 19    -75.7630805889  -0.000001753548 0.00726593  0.00085069  0.0001648   0.000169769
               *** Restarting incremental Fock matrix formation ***
                             ****Resetting KDIIS****
 20    -75.7630880722  -0.000007483308 0.00002055  0.00000357  0.0001004   0.000092002
                          ***Energy convergence achieved***
 21    -75.7630880977  -0.000000025485 0.00005275  0.00000772  0.0000950   0.000081405
 22    -75.7630881447  -0.000000047014 0.00013432  0.00001764  0.0000830   0.000071467
 23    -75.7630882433  -0.000000098572 0.00146826  0.00018604  0.0000708   0.000053568
 24    -75.7630890472  -0.000000803918 0.00037331  0.00005200  0.0000510   0.000038072

            ***Energy convergence in two consecutive cycles with***
                    ***'reasonable' density convergence***
                       *** signaling convergence ***

                    *** KDIIS BlockDiag ( 0.000 sec) ***

               *****************************************************
               *                     SUCCESS                       *
               *           SCF CONVERGED AFTER  25 CYCLES          *
               *****************************************************

Setting up the final grid:

General Integration Accuracy     IntAcc      ...  4.670
Radial Grid Type                 RadialGrid  ... Gauss-Chebyshev
Angular Grid (max. acc.)         AngularGrid ... Lebedev-302
Angular grid pruning method      GridPruning ... 3 (G Style)
Weight generation scheme         WeightScheme... Becke
Basis function cutoff            BFCut       ...    1.0000e-10
Integration weight cutoff        WCut        ...    1.0000e-14
Grids for H and He will be reduced by one unit

# of grid points (after initial pruning)     ...  13000 (   0.0 sec)
# of grid points (after weights+screening)   ...  12983 (   0.0 sec)
nearest neighbour list constructed           ...    0.0 sec
Grid point re-assignment to atoms done       ...    0.0 sec
Grid point division into batches done        ...    0.0 sec
Reduced shell lists constructed in    0.1 sec

Total number of grid points                  ...    12983
Total number of batches                      ...      204
Average number of points per batch           ...       63
Average number of grid points per atom       ...     4328
Average number of shells per batch           ...     6.23 (62.34%)
Average number of basis functions per batch  ...    11.26 (62.55%)
Average number of large shells per batch     ...     4.89 (78.48%)
Average number of large basis fcns per batch ...     9.13 (81.07%)
Maximum spatial batch extension              ...  15.54, 15.26, 15.22 au
Average spatial batch extension              ...   3.81,  3.89,  3.88 au

Final grid set up in    0.3 sec
Final integration                            ... done (   0.2 sec)
Change in XC energy                          ...     0.000031534
Integrated number of electrons               ...     9.999973972
Previous integrated no of electrons          ...    10.000254722

----------------
TOTAL SCF ENERGY
----------------

Total Energy       :          -75.76305772 Eh           -2061.61761 eV

Components:
Nuclear Repulsion  :            2.53036349 Eh              68.85469 eV
Electronic Energy  :          -78.29342121 Eh           -2130.47230 eV
One Electron Energy:         -109.74545977 Eh           -2986.32578 eV
Two Electron Energy:           31.45203856 Eh             855.85348 eV

Virial components:
Potential Energy   :         -151.02845365 Eh           -4109.69316 eV
Kinetic Energy     :           75.26539593 Eh            2048.07555 eV
Virial Ratio       :            2.00661209


DFT components:
N(Alpha)           :        4.999986986201 electrons
N(Beta)            :        4.999986986201 electrons
N(Total)           :        9.999973972403 electrons
E(XC)              :       -6.140348819020 Eh       

---------------
SCF CONVERGENCE
---------------

  Last Energy change         ...   -2.0145e-07  Tolerance :   1.0000e-06
  Last MAX-Density change    ...    5.1437e-05  Tolerance :   1.0000e-05
  Last RMS-Density change    ...    7.7525e-06  Tolerance :   1.0000e-06
  Last DIIS Error            ...    4.6093e-05  Tolerance :   1.0000e-06

             **** THE GBW FILE WAS UPDATED (Scan_30.gbw) ****
             **** DENSITY FILE WAS UPDATED (Scan_30.scfp.tmp) ****
             **** ENERGY FILE WAS UPDATED (Scan_30.en.tmp) ****
----------------
ORBITAL ENERGIES
----------------

  NO   OCC          E(Eh)            E(eV) 
   0   2.0000     -19.316488      -525.6284 
   1   2.0000      -0.981709       -26.7137 
   2   2.0000      -0.384086       -10.4515 
   3   2.0000      -0.338616        -9.2142 
   4   2.0000      -0.332882        -9.0582 
   5   0.0000      -0.175507        -4.7758 
   6   0.0000      -0.172195        -4.6857 
   7   0.0000       0.810777        22.0624 
   8   0.0000       0.814938        22.1756 
   9   0.0000       1.005623        27.3644 
  10   0.0000       1.011557        27.5259 
  11   0.0000       1.016060        27.6484 
  12   0.0000       1.111651        30.2496 
  13   0.0000       1.901465        51.7415 
  14   0.0000       1.902073        51.7580 
  15   0.0000       1.922281        52.3079 
  16   0.0000       1.922661        52.3183 
  17   0.0000       1.930337        52.5271 

                    ********************************
                    * MULLIKEN POPULATION ANALYSIS *
                    ********************************

-----------------------
MULLIKEN ATOMIC CHARGES
-----------------------
   0 O :   -0.210773
   1 H :    0.105318
   2 H :    0.105455
Sum of atomic charges:   -0.0000000

--------------------------------
MULLIKEN REDUCED ORBITAL CHARGES
--------------------------------
  0 O s       :     3.999809  s :     3.999809
      pz      :     1.553503  p :     4.210798
      px      :     1.108450
      py      :     1.548846
      dz2     :     0.000018  d :     0.000166
      dxz     :     0.000004
      dyz     :     0.000091
      dx2y2   :     0.000049
      dxy     :     0.000004
  1 H s       :     0.894682  s :     0.894682
  2 H s       :     0.894545  s :     0.894545


                     *******************************
                     * LOEWDIN POPULATION ANALYSIS *
                     *******************************

----------------------
LOEWDIN ATOMIC CHARGES
----------------------
   0 O :   -0.213158
   1 H :    0.106509
   2 H :    0.106649

-------------------------------
LOEWDIN REDUCED ORBITAL CHARGES
-------------------------------
  0 O s       :     3.999757  s :     3.999757
      pz      :     1.554043  p :     4.213231
      px      :     1.109798
      py      :     1.549391
      dz2     :     0.000018  d :     0.000169
      dxz     :     0.000005
      dyz     :     0.000091
      dx2y2   :     0.000051
      dxy     :     0.000005
  1 H s       :     0.893491  s :     0.893491
  2 H s       :     0.893351  s :     0.893351


                      *****************************
                      * MAYER POPULATION ANALYSIS *
                      *****************************

  NA   - Mulliken gross atomic population
  ZA   - Total nuclear charge
  QA   - Mulliken gross atomic charge
  VA   - Mayer's total valence
  BVA  - Mayer's bonded valence
  FA   - Mayer's free valence

  ATOM       NA         ZA         QA         VA         BVA        FA
  0 O      8.2108     8.0000    -0.2108     1.9777     1.9777    -0.0000
  1 H      0.8947     1.0000     0.1053     0.9890     0.9890    -0.0000
  2 H      0.8945     1.0000     0.1055     0.9889     0.9889     0.0000

  Mayer bond orders larger than 0.1
B(  0-O ,  1-H ) :   0.9888 B(  0-O ,  2-H ) :   0.9888 

-------
TIMINGS
-------

Total SCF time: 0 days 0 hours 0 min 15 sec 

Total time                  ....      15.235 sec
Sum of individual times     ....      14.138 sec  ( 92.8%)

Fock matrix formation       ....      13.223 sec  ( 86.8%)
  XC integration            ....       3.256 sec  ( 24.6% of F)
    Basis function eval.    ....       0.344 sec  ( 10.6% of XC)
    Density eval.           ....       0.104 sec  (  3.2% of XC)
    XC-Functional eval.     ....       0.564 sec  ( 17.3% of XC)
    XC-Potential eval.      ....       0.017 sec  (  0.5% of XC)
Diagonalization             ....       0.269 sec  (  1.8%)
Density matrix formation    ....       0.000 sec  (  0.0%)
Population analysis         ....       0.053 sec  (  0.3%)
Initial guess               ....       0.236 sec  (  1.5%)
Orbital Transformation      ....       0.000 sec  (  0.0%)
Orbital Orthonormalization  ....       0.000 sec  (  0.0%)
DIIS solution               ....       0.000 sec  (  0.0%)
Grid generation             ....       0.357 sec  (  2.3%)


-------------------------------------------------------------------------------
                          DFT DISPERSION CORRECTION                            
                                                                               
                              DFTD3 V3.1  Rev 1                                
                              USING zero damping                               
-------------------------------------------------------------------------------
The omegaB97X-D3 functional is recognized. Fit by Chai et al.
Active option DFTDOPT                   ...         3   

molecular C6(AA) [au] = 85.410921 


            DFT-D V3
 parameters
 s6 scaling factor         :     1.0000 
 rs6 scaling factor        :     1.2810 
 s8 scaling factor         :     1.0000 
 rs8 scaling factor        :     1.0940 
 Damping factor alpha6     :    14.0000 
 Damping factor alpha8     :    16.0000 
 ad hoc parameters k1-k3   :    16.0000     1.3333    -4.0000 

 Edisp/kcal,au: -0.184898740643  -0.000294654867 
 E6   /kcal   :  -0.126924277 
 E8   /kcal   :  -0.057974464 
 % E8         :  31.354709946 

-------------------------   ----------------
Dispersion correction           -0.000294655
-------------------------   ----------------


-------------------------   --------------------
FINAL SINGLE POINT ENERGY       -75.763352369894
-------------------------   --------------------


                            ***************************************
                            *     ORCA property calculations      *
                            ***************************************

                                    ---------------------
                                    Active property flags
                                    ---------------------
   (+) Dipole Moment


------------------------------------------------------------------------------
                       ORCA ELECTRIC PROPERTIES CALCULATION
------------------------------------------------------------------------------

Dipole Moment Calculation                       ... on
Quadrupole Moment Calculation                   ... off
Polarizability Calculation                      ... off
GBWName                                         ... Scan_30.gbw
Electron density file                           ... Scan_30.scfp.tmp

-------------
DIPOLE MOMENT
-------------
                                X             Y             Z
Electronic contribution:     -1.17135      -1.17185      -1.16766
Nuclear contribution   :      1.54873       1.55151       1.54596
                        -----------------------------------------
Total Dipole Moment    :      0.37738       0.37966       0.37830
                        -----------------------------------------
Magnitude (a.u.)       :      0.65549
Magnitude (Debye)      :      1.66611


Timings for individual modules:

Sum of individual times         ...       16.152 sec (=   0.269 min)
GTO integral calculation        ...        0.778 sec (=   0.013 min)   4.8 %
SCF iterations                  ...       15.374 sec (=   0.256 min)  95.2 %
                             ****ORCA TERMINATED NORMALLY****
TOTAL RUN TIME: 0 days 0 hours 0 minutes 17 seconds 402 msec
