
                                 *****************
                                 * O   R   C   A *
                                 *****************

           --- An Ab Initio, DFT and Semiempirical electronic structure package ---

                  #######################################################
                  #                        -***-                        #
                  #  Department of molecular theory and spectroscopy    #
                  #              Directorship: Frank Neese              #
                  # Max Planck Institute for Chemical Energy Conversion #
                  #                  D-45470 Muelheim/Ruhr              #
                  #                       Germany                       #
                  #                                                     #
                  #                  All rights reserved                #
                  #                        -***-                        #
                  #######################################################


                         Program Version 4.0.0.2 - RELEASE -


 With contributions from (in alphabetic order):
   Daniel Aravena         : Magnetic Properties
   Michael Atanasov       : Ab Initio Ligand Field Theory
   Ute Becker             : Parallelization
   Martin Brehm           : Molecular dynamics
   Dmytro Bykov           : SCF Hessian
   Vijay G. Chilkuri      : MRCI spin determinant printing
   Dipayan Datta          : RHF DLPNO-CCSD density
   Achintya Kumar Dutta   : EOM-CC, STEOM-CC
   Dmitry Ganyushin       : Spin-Orbit,Spin-Spin,Magnetic field MRCI
   Yang Guo               : DLPNO-NEVPT2, CIM, IAO-localization
   Andreas Hansen         : Spin unrestricted coupled pair/coupled cluster methods
   Lee Huntington         : MR-EOM, pCC
   Robert Izsak           : Overlap fitted RIJCOSX, COSX-SCS-MP3, EOM
   Christian Kollmar      : KDIIS, OOCD, Brueckner-CCSD(T), CCSD density
   Simone Kossmann        : Meta GGA functionals, TD-DFT gradient, OOMP2, MP2 Hessian
   Martin Krupicka        : AUTO-CI
   Dagmar Lenk            : GEPOL surface
   Dimitrios Liakos       : Extrapolation schemes; parallel MDCI
   Dimitrios Manganas     : ROCIS; embedding schemes
   Dimitrios Pantazis     : SARC Basis sets
   Taras Petrenko         : DFT Hessian,TD-DFT gradient, ASA, ECA, R-Raman, ABS, FL, XAS/XES, NRVS
   Peter Pinski           : DLPNO-MP2
   Christoph Reimann      : Effective Core Potentials
   Marius Retegan         : Local ZFS, SOC
   Christoph Riplinger    : Optimizer, TS searches, QM/MM, DLPNO-CCSD(T), (RO)-DLPNO pert. Triples
   Tobias Risthaus        : Range-separated hybrids, TD-DFT gradient, RPA, STAB
   Michael Roemelt        : Restricted open shell CIS
   Masaaki Saitow         : Open-shell DLPNO
   Barbara Sandhoefer     : DKH picture change effects
   Kantharuban Sivalingam : CASSCF convergence, NEVPT2, FIC-MRCI
   Georgi Stoychev        : AutoAux
   Boris Wezisla          : Elementary symmetry handling
   Frank Wennmohs         : Technical directorship


 We gratefully acknowledge several colleagues who have allowed us to
 interface, adapt or use parts of their codes:
   Stefan Grimme, W. Hujo, H. Kruse,             : VdW corrections, initial TS optimization,
                  C. Bannwarth                     DFT functionals, gCP, sTDA/sTD-DF
   Ed Valeev                                     : LibInt (2-el integral package), F12 methods
   Garnet Chan, S. Sharma, J. Yang, R. Olivares  : DMRG
   Ulf Ekstrom                                   : XCFun DFT Library
   Mihaly Kallay                                 : mrcc  (arbitrary order and MRCC methods)
   Jiri Pittner, Ondrej Demel                    : Mk-CCSD
   Frank Weinhold                                : gennbo (NPA and NBO analysis)
   Christopher J. Cramer and Donald G. Truhlar   : smd solvation model


 Your calculation uses the libint2 library for the computation of 2-el integrals
 For citations please refer to: http://libint.valeyev.net

 This ORCA versions uses:
   CBLAS   interface :  Fast vector & matrix operations
   LAPACKE interface :  Fast linear algebra routines
   SCALAPACK package :  Parallel linear algebra routines


Your calculation utilizes the atom-pairwise dispersion correction
with the zero-damping scheme (D30)
Cite in your paper:
S.Grimme, J.Antony, S.Ehrlich and H.Krieg, J.Chem.Phys., 132, (2010), 154104 
   

XCFun DFT library Copyright 2009-2010 Ulf Ekstrom and contributors.
See http://admol.org/xcfun for more information. This is free soft-
ware; see the source code for copying conditions. There is ABSOLUTELY
NO WARRANTY; not even for MERCHANTABILITY or FITNESS FOR A PARTICULAR
PURPOSE. For details see the documentation. Scientific users of this 
library should cite U. Ekstrom, L. Visscher, R. Bast, A. J. Thorvald-
sen and K. Ruud; J.Chem.Theor.Comp. 2010, DOI: 10.1021/ct100117s
XCFun Version 0.99 
Your calculation utilizes the basis: 6-31G(d)
   H-He, Li-Ne : W. J. Hehre, R. Ditchfield and J.A. Pople, J. Chem. Phys. 56, 2257 (1972).
                 Note: He and Ne are unpublished basis sets taken from the Gaussian program.
                 Note: Li and B from J. D. Dill and J. A. Pople, J. Chem. Phys. 62, 2921 (1975).
   Na - Ar     : M. M. Francl, W. J. Pietro, W. J. Hehre, J. S. Binkley, M. S. Gordon, 
                 D. J. DeFrees and J. A. Pople, J. Chem. Phys. 77, 3654 (1982).
   K - Zn      : V. A. Rassolov, J. A. Pople, M. A. Ratner, and T. L. Windus, J. Chem. Phys. 109, 1223 (1998).

================================================================================
                                        WARNINGS
                       Please study these warnings very carefully!
================================================================================

Warning: TCutStore was < 0. Adjusted to Thresh (uncritical)

INFO   : the flag for use of LIBINT has been found!

================================================================================
                                       INPUT FILE
================================================================================
NAME = initial31.inp
|  1> ! WB97X-D3 6-31G(d) VerySlowConv
|  2> ! KDIIS NOSOSCF
|  3> %base "Scan_31"
|  4> 
|  5> %scf
|  6> maxiter 999
|  7> end
|  8> 
|  9> * xyz 0 1
| 10> O         -0.524926024639    1.122234726152   -0.455034308045
| 11> H          3.022246494043    0.858854466382   -0.717477057420
| 12> H         -2.057880469403    3.403450807467    1.818021365465
| 13> **                         ****END OF INPUT****
================================================================================

                       ****************************
                       * Single Point Calculation *
                       ****************************

---------------------------------
CARTESIAN COORDINATES (ANGSTROEM)
---------------------------------
  O     -0.524926    1.122235   -0.455034
  H      3.022246    0.858854   -0.717477
  H     -2.057880    3.403451    1.818021

----------------------------
CARTESIAN COORDINATES (A.U.)
----------------------------
  NO LB      ZA    FRAG     MASS         X           Y           Z
   0 O     8.0000    0    15.999   -0.991966    2.120716   -0.859890
   1 H     1.0000    0     1.008    5.711218    1.623000   -1.355835
   2 H     1.0000    0     1.008   -3.888831    6.431590    3.435562

--------------------------------
INTERNAL COORDINATES (ANGSTROEM)
--------------------------------
 O      0   0   0     0.000000000000     0.00000000     0.00000000
 H      1   0   0     3.566605982616     0.00000000     0.00000000
 H      1   2   0     3.566605982478   121.43922786     0.00000000

---------------------------
INTERNAL COORDINATES (A.U.)
---------------------------
 O      0   0   0     0.000000000000     0.00000000     0.00000000
 H      1   0   0     6.739908534748     0.00000000     0.00000000
 H      1   2   0     6.739908534489   121.43922786     0.00000000

---------------------
BASIS SET INFORMATION
---------------------
There are 2 groups of distinct atoms

 Group   1 Type O   : 10s4p1d contracted to 3s2p1d pattern {631/31/1}
 Group   2 Type H   : 4s contracted to 2s pattern {31}

Atom   0O    basis set group =>   1
Atom   1H    basis set group =>   2
Atom   2H    basis set group =>   2
------------------------------------------------------------------------------
                           ORCA GTO INTEGRAL CALCULATION
------------------------------------------------------------------------------

                         BASIS SET STATISTICS AND STARTUP INFO

 # of primitive gaussian shells          ...   23
 # of primitive gaussian functions       ...   35
 # of contracted shells                  ...   10
 # of contracted basis functions         ...   18
 Highest angular momentum                ...    2
 Maximum contraction depth               ...    6
 Integral package used                   ... LIBINT
 Integral threshhold            Thresh   ...  1.000e-10
 Primitive cut-off              TCut     ...  1.000e-11


------------------------------ INTEGRAL EVALUATION ----------------------------


 * One electron integrals 
 Pre-screening matrix                    ... done
 Shell pair data                         ... done (   0.000 sec)

-------------------------------------------------------------------------------
                                 ORCA SCF
-------------------------------------------------------------------------------

------------
SCF SETTINGS
------------
Hamiltonian:
 Density Functional     Method          .... DFT(GTOs)
 Exchange Functional    Exchange        .... WB97X-D3
 Correlation Functional Correlation     .... WB97X-D3
 Gradients option       PostSCFGGA      .... off
 Hybrid DFT is turned on
   Fraction HF Exchange ScalHFX         ....  0.195728
   Scaling of DF-GGA-X  ScalDFX         ....  0.000000
   Scaling of DF-GGA-C  ScalDFC         ....  1.000000
   Scaling of DF-LDA-C  ScalLDAC        ....  1.000000
   Perturbative correction              ....  0.000000
 Long-range corrected/Screened/Range-Separated Hybrid DFT is turned on
   Amount of maximum screened exact exchange              ....  0.804272
   Range separation parameter mu (erf(mu*r12)/r12)        ....  0.250000


General Settings:
 Integral files         IntName         .... Scan_31
 Hartree-Fock type      HFTyp           .... RHF
 Total Charge           Charge          ....    0
 Multiplicity           Mult            ....    1
 Number of Electrons    NEL             ....   10
 Basis Dimension        Dim             ....   18
 Nuclear Repulsion      ENuc            ....      2.4589708858 Eh

Convergence Acceleration:
 DIIS                   CNVDIIS         .... on
   Start iteration      DIISMaxIt       ....     0
   Startup error        DIISStart       ....  0.200000
   # of expansion vecs  DIISMaxEq       ....     5
   Bias factor          DIISBfac        ....   1.050
   Max. coefficient     DIISMaxC        ....  10.000
 Newton-Raphson         CNVNR           .... off
 SOSCF                  CNVSOSCF        .... off
 Level Shifting         CNVShift        .... off
 Zerner damping         CNVZerner       .... off
 Static damping         CNVDamp         .... off
 Fernandez-Rico         CNVRico         .... off

SCF Procedure:
 Maximum # iterations   MaxIter         ....   999
 SCF integral mode      SCFMode         .... Direct
   Integral package                     .... LIBINT
 Reset frequeny         DirectResetFreq ....    20
 Integral Threshold     Thresh          ....  1.000e-10 Eh
 Primitive CutOff       TCut            ....  1.000e-11 Eh

Convergence Tolerance:
 Convergence Check Mode ConvCheckMode   .... All-Criteria
 Convergence forced     ConvForced      .... 0
 Energy Change          TolE            ....  1.000e-06 Eh
 Max Density Change     TolMaxP         ....  1.000e-05
 RMS Density Change     TolRMSP         ....  1.000e-06
 DIIS Error             TolErr          ....  1.000e-06


Diagonalization of the overlap matrix:
Smallest eigenvalue                        ... 2.329e-01
Time for diagonalization                   ...    0.000 sec
Threshold for overlap eigenvalues          ... 1.000e-08
Number of eigenvalues below threshold      ... 0
Time for construction of square roots      ...    0.021 sec
Total time needed                          ...    0.021 sec

-------------------
DFT GRID GENERATION
-------------------

General Integration Accuracy     IntAcc      ...  4.340
Radial Grid Type                 RadialGrid  ... Gauss-Chebyshev
Angular Grid (max. acc.)         AngularGrid ... Lebedev-110
Angular grid pruning method      GridPruning ... 3 (G Style)
Weight generation scheme         WeightScheme... Becke
Basis function cutoff            BFCut       ...    1.0000e-10
Integration weight cutoff        WCut        ...    1.0000e-14
Grids for H and He will be reduced by one unit

# of grid points (after initial pruning)     ...   3304 (   0.0 sec)
# of grid points (after weights+screening)   ...   3297 (   0.0 sec)
nearest neighbour list constructed           ...    0.0 sec
Grid point re-assignment to atoms done       ...    0.0 sec
Grid point division into batches done        ...    0.0 sec
Reduced shell lists constructed in    0.0 sec

Total number of grid points                  ...     3297
Total number of batches                      ...       53
Average number of points per batch           ...       62
Average number of grid points per atom       ...     1099
Average number of shells per batch           ...     7.15 (71.48%)
Average number of basis functions per batch  ...    13.33 (74.07%)
Average number of large shells per batch     ...     5.67 (79.27%)
Average number of large basis fcns per batch ...    11.00 (82.50%)
Maximum spatial batch extension              ...  18.87, 20.95, 25.65 au
Average spatial batch extension              ...   6.17,  6.13,  6.25 au

Time for grid setup =    0.020 sec

------------------------------
INITIAL GUESS: MODEL POTENTIAL
------------------------------
Loading Hartree-Fock densities                     ... done
Calculating cut-offs                               ... done
Setting up the integral package                    ... done
Initializing the effective Hamiltonian             ... done
Starting the Coulomb interaction                   ... done (   0.0 sec)
Reading the grid                                   ... done
Mapping shells                                     ... done
Starting the XC term evaluation                    ... done (   0.1 sec)
  promolecular density results
     # of electrons  =      9.999932461
     EX              =     -8.523674510
     EC              =     -0.275981737
     EX+EC           =     -8.799656247
Transforming the Hamiltonian                       ... done (   0.0 sec)
Diagonalizing the Hamiltonian                      ... done (   0.0 sec)
Back transforming the eigenvectors                 ... done (   0.0 sec)
Now organizing SCF variables                       ... done
                      ------------------
                      INITIAL GUESS DONE (   0.3 sec)
                      ------------------
--------------
SCF ITERATIONS
--------------
ITER       Energy         Delta-E        Max-DP      RMS-DP      [F,P]   Gradient Norm
               ***  Starting incremental Fock matrix formation  ***
                             ****Resetting KDIIS****
                             ****Turning on KDIIS(Cayley)****
  0    -74.6772601665   0.000000000000 0.06841854  0.00934366  0.3692849   0.322688817
  1    -74.8071317398  -0.129871573270 0.13171197  0.01753035  0.3119769   0.269730465
  2    -74.9962571512  -0.189125411354 0.12784243  0.02001614  0.1966301   0.167882835
  3    -75.1069624428  -0.110705291669 0.15145176  0.02331413  0.1526191   0.115724893
  4    -75.2783465483  -0.171384105424 0.00010680  0.00001930  0.2176533   0.127636399
Warning: badly conditioned DIIS matrix, 1 vectors out of 5 destroyed
  5    -75.2784850693  -0.000138521025 0.16778517  0.02484685  0.2177270   0.127698844
Warning: badly conditioned DIIS matrix, 1 vectors out of 5 destroyed
  6    -75.4287942957  -0.150309226405 0.05288310  0.01013661  0.1567904   0.128737235
  7    -75.5044700922  -0.075675796525 0.05363247  0.00924750  0.1461384   0.121734078
  8    -75.5919818389  -0.087511746722 0.10700651  0.01150136  0.1175294   0.110703617
  9    -75.6652063303  -0.073224491404 0.25576500  0.04377807  0.0940075   0.094276898
 10    -75.5360912522   0.129115078174 0.24258405  0.04173592  0.2547598   0.191351205
 11    -75.1214659687   0.414625283463 0.17020100  0.03055779  0.3588250   0.199710198
 12    -75.5828296647  -0.461363696010 0.12687262  0.01256807  0.1886104   0.112379157
 13    -75.6640083374  -0.081178672652 0.18150539  0.02122896  0.1394430   0.084733055
 14    -75.7504833304  -0.086474993033 0.27733837  0.03420560  0.0289826   0.020713923
 15    -75.6583307003   0.092152630063 0.25918777  0.03275339  0.1333825   0.082347761
 16    -75.7514083900  -0.093077689688 0.07573270  0.00913839  0.0314343   0.019432688
 17    -75.7544967662  -0.003088376142 0.00759521  0.00101272  0.0206305   0.012111552
 18    -75.7550674087  -0.000570642520 0.00744912  0.00077520  0.0161232   0.009126872
 19    -75.7545435192   0.000523889479 0.00608647  0.00096236  0.0203092   0.011787574
               *** Restarting incremental Fock matrix formation ***
                             ****Resetting KDIIS****
 20    -75.7551122625  -0.000568743331 0.00495500  0.00067759  0.0158657   0.008934196
 21    -75.7556038879  -0.000491625390 0.00225728  0.00038467  0.0093492   0.005511160
 22    -75.7557376875  -0.000133799593 0.00444196  0.00074074  0.0086751   0.004697869
 23    -75.7559723229  -0.000234635422 0.02136661  0.00239239  0.0061962   0.003098033
 24    -75.7557690593   0.000203263601 0.04852380  0.00520009  0.0018807   0.001159456
 25    -75.7554262825   0.000342776801 0.00332578  0.00051483  0.0009463   0.000597943
 26    -75.7554383655  -0.000012082943 0.00180209  0.00024353  0.0007240   0.000472403
 27    -75.7554424553  -0.000004089798 0.01028803  0.00117516  0.0007390   0.000409927
 28    -75.7554888710  -0.000046415690 0.01308823  0.00146440  0.0006104   0.000494244
 29    -75.7555300853  -0.000041214321 0.01666168  0.00185178  0.0004922   0.000388249
 30    -75.7555559822  -0.000025896940 0.00384065  0.00043210  0.0001308   0.000135690
 31    -75.7555574319  -0.000001449705 0.00035377  0.00004891  0.0000863   0.000067418
                          ***Energy convergence achieved***
 32    -75.7555577149  -0.000000282974 0.00015883  0.00001840  0.0000944   0.000062529
 33    -75.7555576698   0.000000045053 0.00164416  0.00019798  0.0001040   0.000067566
 34    -75.7555569780   0.000000691886 0.00105549  0.00011534  0.0000936   0.000064558
 35    -75.7555566226   0.000000355336 0.00098915  0.00015482  0.0000516   0.000046889
 36    -75.7555566618  -0.000000039144 0.00037583  0.00004559  0.0000500   0.000030815
 37    -75.7555566931  -0.000000031334 0.00029014  0.00004178  0.0000495   0.000026668
 38    -75.7555567619  -0.000000068792 0.00067508  0.00009731  0.0000480   0.000025922
 39    -75.7555569641  -0.000000202229 0.00025747  0.00004025  0.0000440   0.000030593
               *** Restarting incremental Fock matrix formation ***
                             ****Resetting KDIIS****

            ***Energy convergence in two consecutive cycles with***
                    ***'reasonable' density convergence***
                       *** signaling convergence ***

                    *** KDIIS BlockDiag ( 0.000 sec) ***

               *****************************************************
               *                     SUCCESS                       *
               *           SCF CONVERGED AFTER  40 CYCLES          *
               *****************************************************

Setting up the final grid:

General Integration Accuracy     IntAcc      ...  4.670
Radial Grid Type                 RadialGrid  ... Gauss-Chebyshev
Angular Grid (max. acc.)         AngularGrid ... Lebedev-302
Angular grid pruning method      GridPruning ... 3 (G Style)
Weight generation scheme         WeightScheme... Becke
Basis function cutoff            BFCut       ...    1.0000e-10
Integration weight cutoff        WCut        ...    1.0000e-14
Grids for H and He will be reduced by one unit

# of grid points (after initial pruning)     ...  13000 (   0.0 sec)
# of grid points (after weights+screening)   ...  12983 (   0.0 sec)
nearest neighbour list constructed           ...    0.0 sec
Grid point re-assignment to atoms done       ...    0.0 sec
Grid point division into batches done        ...    0.2 sec
Reduced shell lists constructed in    0.2 sec

Total number of grid points                  ...    12983
Total number of batches                      ...      205
Average number of points per batch           ...       63
Average number of grid points per atom       ...     4328
Average number of shells per batch           ...     6.06 (60.58%)
Average number of basis functions per batch  ...    10.91 (60.63%)
Average number of large shells per batch     ...     4.75 (78.45%)
Average number of large basis fcns per batch ...     8.86 (81.18%)
Maximum spatial batch extension              ...  15.75, 15.44, 15.22 au
Average spatial batch extension              ...   3.82,  3.90,  3.87 au

Final grid set up in    0.2 sec
Final integration                            ... done (   0.3 sec)
Change in XC energy                          ...     0.000022582
Integrated number of electrons               ...     9.999966958
Previous integrated no of electrons          ...    10.000891817

----------------
TOTAL SCF ENERGY
----------------

Total Energy       :          -75.75553444 Eh           -2061.41289 eV

Components:
Nuclear Repulsion  :            2.45897089 Eh              66.91200 eV
Electronic Energy  :          -78.21450533 Eh           -2128.32489 eV
One Electron Energy:         -109.60292208 Eh           -2982.44713 eV
Two Electron Energy:           31.38841675 Eh             854.12224 eV

Virial components:
Potential Energy   :         -151.03379700 Eh           -4109.83856 eV
Kinetic Energy     :           75.27826256 Eh            2048.42566 eV
Virial Ratio       :            2.00634010


DFT components:
N(Alpha)           :        4.999983479133 electrons
N(Beta)            :        4.999983479133 electrons
N(Total)           :        9.999966958266 electrons
E(XC)              :       -6.141777317424 Eh       

---------------
SCF CONVERGENCE
---------------

  Last Energy change         ...   -5.8952e-08  Tolerance :   1.0000e-06
  Last MAX-Density change    ...    1.1234e-05  Tolerance :   1.0000e-05
  Last RMS-Density change    ...    1.5299e-06  Tolerance :   1.0000e-06
  Last DIIS Error            ...    4.1881e-05  Tolerance :   1.0000e-06

             **** THE GBW FILE WAS UPDATED (Scan_31.gbw) ****
             **** DENSITY FILE WAS UPDATED (Scan_31.scfp.tmp) ****
             **** ENERGY FILE WAS UPDATED (Scan_31.en.tmp) ****
----------------
ORBITAL ENERGIES
----------------

  NO   OCC          E(Eh)            E(eV) 
   0   2.0000     -19.315370      -525.5979 
   1   2.0000      -0.981214       -26.7002 
   2   2.0000      -0.383634       -10.4392 
   3   2.0000      -0.334970        -9.1150 
   4   2.0000      -0.330432        -8.9915 
   5   0.0000      -0.177664        -4.8345 
   6   0.0000      -0.175139        -4.7658 
   7   0.0000       0.813841        22.1457 
   8   0.0000       0.816697        22.2234 
   9   0.0000       1.005056        27.3490 
  10   0.0000       1.011753        27.5312 
  11   0.0000       1.011967        27.5370 
  12   0.0000       1.110137        30.2084 
  13   0.0000       1.901552        51.7439 
  14   0.0000       1.902283        51.7638 
  15   0.0000       1.922563        52.3156 
  16   0.0000       1.922832        52.3229 
  17   0.0000       1.930568        52.5334 

                    ********************************
                    * MULLIKEN POPULATION ANALYSIS *
                    ********************************

-----------------------
MULLIKEN ATOMIC CHARGES
-----------------------
   0 O :   -0.208763
   1 H :    0.104509
   2 H :    0.104254
Sum of atomic charges:    0.0000000

--------------------------------
MULLIKEN REDUCED ORBITAL CHARGES
--------------------------------
  0 O s       :     3.999816  s :     3.999816
      pz      :     1.563737  p :     4.208794
      px      :     1.107057
      py      :     1.538000
      dz2     :     0.000017  d :     0.000153
      dxz     :     0.000003
      dyz     :     0.000086
      dx2y2   :     0.000044
      dxy     :     0.000003
  1 H s       :     0.895491  s :     0.895491
  2 H s       :     0.895746  s :     0.895746


                     *******************************
                     * LOEWDIN POPULATION ANALYSIS *
                     *******************************

----------------------
LOEWDIN ATOMIC CHARGES
----------------------
   0 O :   -0.210665
   1 H :    0.105459
   2 H :    0.105205

-------------------------------
LOEWDIN REDUCED ORBITAL CHARGES
-------------------------------
  0 O s       :     3.999781  s :     3.999781
      pz      :     1.564168  p :     4.210730
      px      :     1.108118
      py      :     1.538443
      dz2     :     0.000017  d :     0.000154
      dxz     :     0.000003
      dyz     :     0.000086
      dx2y2   :     0.000044
      dxy     :     0.000003
  1 H s       :     0.894541  s :     0.894541
  2 H s       :     0.894795  s :     0.894795


                      *****************************
                      * MAYER POPULATION ANALYSIS *
                      *****************************

  NA   - Mulliken gross atomic population
  ZA   - Total nuclear charge
  QA   - Mulliken gross atomic charge
  VA   - Mayer's total valence
  BVA  - Mayer's bonded valence
  FA   - Mayer's free valence

  ATOM       NA         ZA         QA         VA         BVA        FA
  0 O      8.2088     8.0000    -0.2088     1.9781     1.9781     0.0000
  1 H      0.8955     1.0000     0.1045     0.9891     0.9891    -0.0000
  2 H      0.8957     1.0000     0.1043     0.9892     0.9892     0.0000

  Mayer bond orders larger than 0.1
B(  0-O ,  1-H ) :   0.9890 B(  0-O ,  2-H ) :   0.9891 

-------
TIMINGS
-------

Total SCF time: 0 days 0 hours 0 min 22 sec 

Total time                  ....      22.631 sec
Sum of individual times     ....      21.264 sec  ( 94.0%)

Fock matrix formation       ....      20.630 sec  ( 91.2%)
  XC integration            ....       5.066 sec  ( 24.6% of F)
    Basis function eval.    ....       0.452 sec  (  8.9% of XC)
    Density eval.           ....       0.197 sec  (  3.9% of XC)
    XC-Functional eval.     ....       0.892 sec  ( 17.6% of XC)
    XC-Potential eval.      ....       0.122 sec  (  2.4% of XC)
Diagonalization             ....       0.101 sec  (  0.4%)
Density matrix formation    ....       0.000 sec  (  0.0%)
Population analysis         ....       0.009 sec  (  0.0%)
Initial guess               ....       0.256 sec  (  1.1%)
Orbital Transformation      ....       0.000 sec  (  0.0%)
Orbital Orthonormalization  ....       0.000 sec  (  0.0%)
DIIS solution               ....       0.000 sec  (  0.0%)
Grid generation             ....       0.266 sec  (  1.2%)


-------------------------------------------------------------------------------
                          DFT DISPERSION CORRECTION                            
                                                                               
                              DFTD3 V3.1  Rev 1                                
                              USING zero damping                               
-------------------------------------------------------------------------------
The omegaB97X-D3 functional is recognized. Fit by Chai et al.
Active option DFTDOPT                   ...         3   

molecular C6(AA) [au] = 85.410988 


            DFT-D V3
 parameters
 s6 scaling factor         :     1.0000 
 rs6 scaling factor        :     1.2810 
 s8 scaling factor         :     1.0000 
 rs8 scaling factor        :     1.0940 
 Damping factor alpha6     :    14.0000 
 Damping factor alpha8     :    16.0000 
 ad hoc parameters k1-k3   :    16.0000     1.3333    -4.0000 

 Edisp/kcal,au: -0.161401157112  -0.000257209089 
 E6   /kcal   :  -0.115208230 
 E8   /kcal   :  -0.046192927 
 % E8         :  28.619947958 

-------------------------   ----------------
Dispersion correction           -0.000257209
-------------------------   ----------------


-------------------------   --------------------
FINAL SINGLE POINT ENERGY       -75.755791650435
-------------------------   --------------------


                            ***************************************
                            *     ORCA property calculations      *
                            ***************************************

                                    ---------------------
                                    Active property flags
                                    ---------------------
   (+) Dipole Moment


------------------------------------------------------------------------------
                       ORCA ELECTRIC PROPERTIES CALCULATION
------------------------------------------------------------------------------

Dipole Moment Calculation                       ... on
Quadrupole Moment Calculation                   ... off
Polarizability Calculation                      ... off
GBWName                                         ... Scan_31.gbw
Electron density file                           ... Scan_31.scfp.tmp

-------------
DIPOLE MOMENT
-------------
                                X             Y             Z
Electronic contribution:     -1.27156      -1.27504      -1.27049
Nuclear contribution   :      1.67656       1.67957       1.67356
                        -----------------------------------------
Total Dipole Moment    :      0.40500       0.40453       0.40306
                        -----------------------------------------
Magnitude (a.u.)       :      0.70009
Magnitude (Debye)      :      1.77950


Timings for individual modules:

Sum of individual times         ...       23.592 sec (=   0.393 min)
GTO integral calculation        ...        0.848 sec (=   0.014 min)   3.6 %
SCF iterations                  ...       22.743 sec (=   0.379 min)  96.4 %
                             ****ORCA TERMINATED NORMALLY****
TOTAL RUN TIME: 0 days 0 hours 0 minutes 24 seconds 563 msec
