
                                 *****************
                                 * O   R   C   A *
                                 *****************

           --- An Ab Initio, DFT and Semiempirical electronic structure package ---

                  #######################################################
                  #                        -***-                        #
                  #  Department of molecular theory and spectroscopy    #
                  #              Directorship: Frank Neese              #
                  # Max Planck Institute for Chemical Energy Conversion #
                  #                  D-45470 Muelheim/Ruhr              #
                  #                       Germany                       #
                  #                                                     #
                  #                  All rights reserved                #
                  #                        -***-                        #
                  #######################################################


                         Program Version 4.0.0.2 - RELEASE -


 With contributions from (in alphabetic order):
   Daniel Aravena         : Magnetic Properties
   Michael Atanasov       : Ab Initio Ligand Field Theory
   Ute Becker             : Parallelization
   Martin Brehm           : Molecular dynamics
   Dmytro Bykov           : SCF Hessian
   Vijay G. Chilkuri      : MRCI spin determinant printing
   Dipayan Datta          : RHF DLPNO-CCSD density
   Achintya Kumar Dutta   : EOM-CC, STEOM-CC
   Dmitry Ganyushin       : Spin-Orbit,Spin-Spin,Magnetic field MRCI
   Yang Guo               : DLPNO-NEVPT2, CIM, IAO-localization
   Andreas Hansen         : Spin unrestricted coupled pair/coupled cluster methods
   Lee Huntington         : MR-EOM, pCC
   Robert Izsak           : Overlap fitted RIJCOSX, COSX-SCS-MP3, EOM
   Christian Kollmar      : KDIIS, OOCD, Brueckner-CCSD(T), CCSD density
   Simone Kossmann        : Meta GGA functionals, TD-DFT gradient, OOMP2, MP2 Hessian
   Martin Krupicka        : AUTO-CI
   Dagmar Lenk            : GEPOL surface
   Dimitrios Liakos       : Extrapolation schemes; parallel MDCI
   Dimitrios Manganas     : ROCIS; embedding schemes
   Dimitrios Pantazis     : SARC Basis sets
   Taras Petrenko         : DFT Hessian,TD-DFT gradient, ASA, ECA, R-Raman, ABS, FL, XAS/XES, NRVS
   Peter Pinski           : DLPNO-MP2
   Christoph Reimann      : Effective Core Potentials
   Marius Retegan         : Local ZFS, SOC
   Christoph Riplinger    : Optimizer, TS searches, QM/MM, DLPNO-CCSD(T), (RO)-DLPNO pert. Triples
   Tobias Risthaus        : Range-separated hybrids, TD-DFT gradient, RPA, STAB
   Michael Roemelt        : Restricted open shell CIS
   Masaaki Saitow         : Open-shell DLPNO
   Barbara Sandhoefer     : DKH picture change effects
   Kantharuban Sivalingam : CASSCF convergence, NEVPT2, FIC-MRCI
   Georgi Stoychev        : AutoAux
   Boris Wezisla          : Elementary symmetry handling
   Frank Wennmohs         : Technical directorship


 We gratefully acknowledge several colleagues who have allowed us to
 interface, adapt or use parts of their codes:
   Stefan Grimme, W. Hujo, H. Kruse,             : VdW corrections, initial TS optimization,
                  C. Bannwarth                     DFT functionals, gCP, sTDA/sTD-DF
   Ed Valeev                                     : LibInt (2-el integral package), F12 methods
   Garnet Chan, S. Sharma, J. Yang, R. Olivares  : DMRG
   Ulf Ekstrom                                   : XCFun DFT Library
   Mihaly Kallay                                 : mrcc  (arbitrary order and MRCC methods)
   Jiri Pittner, Ondrej Demel                    : Mk-CCSD
   Frank Weinhold                                : gennbo (NPA and NBO analysis)
   Christopher J. Cramer and Donald G. Truhlar   : smd solvation model


 Your calculation uses the libint2 library for the computation of 2-el integrals
 For citations please refer to: http://libint.valeyev.net

 This ORCA versions uses:
   CBLAS   interface :  Fast vector & matrix operations
   LAPACKE interface :  Fast linear algebra routines
   SCALAPACK package :  Parallel linear algebra routines


Your calculation utilizes the atom-pairwise dispersion correction
with the zero-damping scheme (D30)
Cite in your paper:
S.Grimme, J.Antony, S.Ehrlich and H.Krieg, J.Chem.Phys., 132, (2010), 154104 
   

XCFun DFT library Copyright 2009-2010 Ulf Ekstrom and contributors.
See http://admol.org/xcfun for more information. This is free soft-
ware; see the source code for copying conditions. There is ABSOLUTELY
NO WARRANTY; not even for MERCHANTABILITY or FITNESS FOR A PARTICULAR
PURPOSE. For details see the documentation. Scientific users of this 
library should cite U. Ekstrom, L. Visscher, R. Bast, A. J. Thorvald-
sen and K. Ruud; J.Chem.Theor.Comp. 2010, DOI: 10.1021/ct100117s
XCFun Version 0.99 
Your calculation utilizes the basis: 6-31G(d)
   H-He, Li-Ne : W. J. Hehre, R. Ditchfield and J.A. Pople, J. Chem. Phys. 56, 2257 (1972).
                 Note: He and Ne are unpublished basis sets taken from the Gaussian program.
                 Note: Li and B from J. D. Dill and J. A. Pople, J. Chem. Phys. 62, 2921 (1975).
   Na - Ar     : M. M. Francl, W. J. Pietro, W. J. Hehre, J. S. Binkley, M. S. Gordon, 
                 D. J. DeFrees and J. A. Pople, J. Chem. Phys. 77, 3654 (1982).
   K - Zn      : V. A. Rassolov, J. A. Pople, M. A. Ratner, and T. L. Windus, J. Chem. Phys. 109, 1223 (1998).

================================================================================
                                        WARNINGS
                       Please study these warnings very carefully!
================================================================================

Warning: TCutStore was < 0. Adjusted to Thresh (uncritical)

INFO   : the flag for use of LIBINT has been found!

================================================================================
                                       INPUT FILE
================================================================================
NAME = initial33.inp
|  1> ! WB97X-D3 6-31G(d) VerySlowConv
|  2> ! KDIIS NOSOSCF
|  3> %base "Scan_33"
|  4> 
|  5> %scf
|  6> maxiter 999
|  7> end
|  8> 
|  9> * xyz 0 1
| 10> O         -0.625231011042    1.021749581938   -0.555159762992
| 11> H          3.140596692927    0.874937334750   -0.701451899504
| 12> H         -2.075925681885    3.487853083312    1.902121662496
| 13> **                         ****END OF INPUT****
================================================================================

                       ****************************
                       * Single Point Calculation *
                       ****************************

---------------------------------
CARTESIAN COORDINATES (ANGSTROEM)
---------------------------------
  O     -0.625231    1.021750   -0.555160
  H      3.140597    0.874937   -0.701452
  H     -2.075926    3.487853    1.902122

----------------------------
CARTESIAN COORDINATES (A.U.)
----------------------------
  NO LB      ZA    FRAG     MASS         X           Y           Z
   0 O     8.0000    0    15.999   -1.181515    1.930827   -1.049100
   1 H     1.0000    0     1.008    5.934868    1.653392   -1.325552
   2 H     1.0000    0     1.008   -3.922931    6.591087    3.594489

--------------------------------
INTERNAL COORDINATES (ANGSTROEM)
--------------------------------
 O      0   0   0     0.000000000000     0.00000000     0.00000000
 H      1   0   0     3.771526683070     0.00000000     0.00000000
 H      1   2   0     3.771526681803   115.77179145     0.00000000

---------------------------
INTERNAL COORDINATES (A.U.)
---------------------------
 O      0   0   0     0.000000000000     0.00000000     0.00000000
 H      1   0   0     7.127152537779     0.00000000     0.00000000
 H      1   2   0     7.127152535384   115.77179145     0.00000000

---------------------
BASIS SET INFORMATION
---------------------
There are 2 groups of distinct atoms

 Group   1 Type O   : 10s4p1d contracted to 3s2p1d pattern {631/31/1}
 Group   2 Type H   : 4s contracted to 2s pattern {31}

Atom   0O    basis set group =>   1
Atom   1H    basis set group =>   2
Atom   2H    basis set group =>   2
------------------------------------------------------------------------------
                           ORCA GTO INTEGRAL CALCULATION
------------------------------------------------------------------------------

                         BASIS SET STATISTICS AND STARTUP INFO

 # of primitive gaussian shells          ...   23
 # of primitive gaussian functions       ...   35
 # of contracted shells                  ...   10
 # of contracted basis functions         ...   18
 Highest angular momentum                ...    2
 Maximum contraction depth               ...    6
 Integral package used                   ... LIBINT
 Integral threshhold            Thresh   ...  1.000e-10
 Primitive cut-off              TCut     ...  1.000e-11


------------------------------ INTEGRAL EVALUATION ----------------------------


 * One electron integrals 
 Pre-screening matrix                    ... done
 Shell pair data                         ... done (   0.000 sec)

-------------------------------------------------------------------------------
                                 ORCA SCF
-------------------------------------------------------------------------------

------------
SCF SETTINGS
------------
Hamiltonian:
 Density Functional     Method          .... DFT(GTOs)
 Exchange Functional    Exchange        .... WB97X-D3
 Correlation Functional Correlation     .... WB97X-D3
 Gradients option       PostSCFGGA      .... off
 Hybrid DFT is turned on
   Fraction HF Exchange ScalHFX         ....  0.195728
   Scaling of DF-GGA-X  ScalDFX         ....  0.000000
   Scaling of DF-GGA-C  ScalDFC         ....  1.000000
   Scaling of DF-LDA-C  ScalLDAC        ....  1.000000
   Perturbative correction              ....  0.000000
 Long-range corrected/Screened/Range-Separated Hybrid DFT is turned on
   Amount of maximum screened exact exchange              ....  0.804272
   Range separation parameter mu (erf(mu*r12)/r12)        ....  0.250000


General Settings:
 Integral files         IntName         .... Scan_33
 Hartree-Fock type      HFTyp           .... RHF
 Total Charge           Charge          ....    0
 Multiplicity           Mult            ....    1
 Number of Electrons    NEL             ....   10
 Basis Dimension        Dim             ....   18
 Nuclear Repulsion      ENuc            ....      2.3277634233 Eh

Convergence Acceleration:
 DIIS                   CNVDIIS         .... on
   Start iteration      DIISMaxIt       ....     0
   Startup error        DIISStart       ....  0.200000
   # of expansion vecs  DIISMaxEq       ....     5
   Bias factor          DIISBfac        ....   1.050
   Max. coefficient     DIISMaxC        ....  10.000
 Newton-Raphson         CNVNR           .... off
 SOSCF                  CNVSOSCF        .... off
 Level Shifting         CNVShift        .... off
 Zerner damping         CNVZerner       .... off
 Static damping         CNVDamp         .... off
 Fernandez-Rico         CNVRico         .... off

SCF Procedure:
 Maximum # iterations   MaxIter         ....   999
 SCF integral mode      SCFMode         .... Direct
   Integral package                     .... LIBINT
 Reset frequeny         DirectResetFreq ....    20
 Integral Threshold     Thresh          ....  1.000e-10 Eh
 Primitive CutOff       TCut            ....  1.000e-11 Eh

Convergence Tolerance:
 Convergence Check Mode ConvCheckMode   .... All-Criteria
 Convergence forced     ConvForced      .... 0
 Energy Change          TolE            ....  1.000e-06 Eh
 Max Density Change     TolMaxP         ....  1.000e-05
 RMS Density Change     TolRMSP         ....  1.000e-06
 DIIS Error             TolErr          ....  1.000e-06


Diagonalization of the overlap matrix:
Smallest eigenvalue                        ... 2.331e-01
Time for diagonalization                   ...    0.000 sec
Threshold for overlap eigenvalues          ... 1.000e-08
Number of eigenvalues below threshold      ... 0
Time for construction of square roots      ...    0.016 sec
Total time needed                          ...    0.016 sec

-------------------
DFT GRID GENERATION
-------------------

General Integration Accuracy     IntAcc      ...  4.340
Radial Grid Type                 RadialGrid  ... Gauss-Chebyshev
Angular Grid (max. acc.)         AngularGrid ... Lebedev-110
Angular grid pruning method      GridPruning ... 3 (G Style)
Weight generation scheme         WeightScheme... Becke
Basis function cutoff            BFCut       ...    1.0000e-10
Integration weight cutoff        WCut        ...    1.0000e-14
Grids for H and He will be reduced by one unit

# of grid points (after initial pruning)     ...   3304 (   0.0 sec)
# of grid points (after weights+screening)   ...   3296 (   0.0 sec)
nearest neighbour list constructed           ...    0.0 sec
Grid point re-assignment to atoms done       ...    0.0 sec
Grid point division into batches done        ...    0.0 sec
Reduced shell lists constructed in    0.0 sec

Total number of grid points                  ...     3296
Total number of batches                      ...       53
Average number of points per batch           ...       62
Average number of grid points per atom       ...     1099
Average number of shells per batch           ...     6.94 (69.44%)
Average number of basis functions per batch  ...    12.91 (71.71%)
Average number of large shells per batch     ...     5.44 (78.40%)
Average number of large basis fcns per batch ...    10.41 (80.63%)
Maximum spatial batch extension              ...  17.31, 20.95, 25.65 au
Average spatial batch extension              ...   6.15,  6.14,  6.21 au

Time for grid setup =    0.027 sec

------------------------------
INITIAL GUESS: MODEL POTENTIAL
------------------------------
Loading Hartree-Fock densities                     ... done
Calculating cut-offs                               ... done
Setting up the integral package                    ... done
Initializing the effective Hamiltonian             ... done
Starting the Coulomb interaction                   ... done (   0.0 sec)
Reading the grid                                   ... done
Mapping shells                                     ... done
Starting the XC term evaluation                    ... done (   0.0 sec)
  promolecular density results
     # of electrons  =     10.000271532
     EX              =     -8.523534825
     EC              =     -0.275910856
     EX+EC           =     -8.799445681
Transforming the Hamiltonian                       ... done (   0.0 sec)
Diagonalizing the Hamiltonian                      ... done (   0.0 sec)
Back transforming the eigenvectors                 ... done (   0.0 sec)
Now organizing SCF variables                       ... done
                      ------------------
                      INITIAL GUESS DONE (   0.3 sec)
                      ------------------
--------------
SCF ITERATIONS
--------------
ITER       Energy         Delta-E        Max-DP      RMS-DP      [F,P]   Gradient Norm
               ***  Starting incremental Fock matrix formation  ***
                             ****Resetting KDIIS****
                             ****Turning on KDIIS(Cayley)****
  0    -74.6407961879   0.000000000000 0.07595125  0.01049681  0.3707169   0.322752184
  1    -74.7777467475  -0.136950559568 0.15463611  0.02052627  0.3103503   0.265128057
  2    -74.9810399954  -0.203293247889 0.11310147  0.01436242  0.1780764   0.151780775
  3    -75.0838202098  -0.102780214415 0.18025129  0.02197199  0.1308573   0.123549321
  4    -75.2328198172  -0.148999607455 0.12427949  0.01958020  0.1494263   0.123986258
  5    -75.2987074647  -0.065887647502 0.18330638  0.03048390  0.1994705   0.157861611
  6    -75.3123227369  -0.013615272143 0.24001391  0.02955193  0.1449416   0.123778489
  7    -75.5445815981  -0.232258861175 0.23151819  0.02530155  0.1070954   0.122575682
  8    -75.5135038665   0.031077731532 0.43029022  0.06238030  0.1529008   0.113133848
  9    -75.4148578601   0.098646006460 0.22704906  0.03244625  0.2862709   0.231278473
 10    -75.7381182377  -0.323260377663 0.02285138  0.00440753  0.0268254   0.017748386
 11    -75.7398647381  -0.001746500370 0.02437840  0.00205111  0.0103841   0.009448148
 12    -75.7407570696  -0.000892331455 0.00721366  0.00092003  0.0048599   0.004960718
 13    -75.7407511335   0.000005936057 0.00155249  0.00016100  0.0090845   0.005496184
 14    -75.7408149449  -0.000063811384 0.01504093  0.00167205  0.0077102   0.004680322
 15    -75.7411770391  -0.000362094220 0.00749855  0.00103498  0.0016399   0.001138635
 16    -75.7413121233  -0.000135084214 0.00830819  0.00117469  0.0016314   0.001121283
 17    -75.7414647608  -0.000152637503 0.00224024  0.00033028  0.0015781   0.001128415
 18    -75.7414215474   0.000043213437 0.00278699  0.00045051  0.0015318   0.001164650
 19    -75.7414304951  -0.000008947724 0.00417289  0.00046884  0.0019309   0.001183099
               *** Restarting incremental Fock matrix formation ***
                             ****Resetting KDIIS****
 20    -75.7414046083   0.000025886770 0.00042040  0.00006273  0.0017366   0.001067550
 21    -75.7414122868  -0.000007678422 0.00115872  0.00017170  0.0017113   0.001058166
 22    -75.7414331017  -0.000020814902 0.00277005  0.00040997  0.0016474   0.001053704
 23    -75.7414827598  -0.000049658123 0.00120046  0.00016338  0.0015785   0.001038843
 24    -75.7414673058   0.000015454015 0.00442872  0.00075390  0.0015649   0.001015981
 25    -75.7414967616  -0.000029455819 0.02980658  0.00359240  0.0012823   0.000964265
 26    -75.7417821808  -0.000285419233 0.08588735  0.00964581  0.0010568   0.000918599
 27    -75.7422048678  -0.000422686957 0.00819476  0.00095709  0.0020736   0.001595943
 28    -75.7422316095  -0.000026741747 0.00935080  0.00116720  0.0005483   0.000354815
 29    -75.7422333885  -0.000001778943 0.00628339  0.00070442  0.0004242   0.000275266
 30    -75.7422321280   0.000001260425 0.00712166  0.00082670  0.0005595   0.000351363
 31    -75.7422344370  -0.000002308987 0.00083238  0.00012251  0.0003548   0.000309889
                          ***Energy convergence achieved***
 32    -75.7422344584  -0.000000021415 0.00322208  0.00040998  0.0001006   0.000092171
 33    -75.7422338868   0.000000571670 0.00072295  0.00009116  0.0000307   0.000030057
 34    -75.7422337544   0.000000132408 0.00006608  0.00001126  0.0000212   0.000016579
 35    -75.7422337609  -0.000000006555 0.00105026  0.00013266  0.0000240   0.000016955
 36    -75.7422338721  -0.000000111223 0.00049740  0.00005857  0.0000138   0.000014444
 37    -75.7422338946  -0.000000022489 0.00016835  0.00002347  0.0000117   0.000010081

            ***Energy convergence in two consecutive cycles with***
                    ***'reasonable' density convergence***
                       *** signaling convergence ***

                    *** KDIIS BlockDiag ( 0.000 sec) ***

               *****************************************************
               *                     SUCCESS                       *
               *           SCF CONVERGED AFTER  38 CYCLES          *
               *****************************************************

Setting up the final grid:

General Integration Accuracy     IntAcc      ...  4.670
Radial Grid Type                 RadialGrid  ... Gauss-Chebyshev
Angular Grid (max. acc.)         AngularGrid ... Lebedev-302
Angular grid pruning method      GridPruning ... 3 (G Style)
Weight generation scheme         WeightScheme... Becke
Basis function cutoff            BFCut       ...    1.0000e-10
Integration weight cutoff        WCut        ...    1.0000e-14
Grids for H and He will be reduced by one unit

# of grid points (after initial pruning)     ...  13000 (   0.0 sec)
# of grid points (after weights+screening)   ...  12980 (   0.0 sec)
nearest neighbour list constructed           ...    0.0 sec
Grid point re-assignment to atoms done       ...    0.0 sec
Grid point division into batches done        ...    0.2 sec
Reduced shell lists constructed in    0.2 sec

Total number of grid points                  ...    12980
Total number of batches                      ...      204
Average number of points per batch           ...       63
Average number of grid points per atom       ...     4327
Average number of shells per batch           ...     5.90 (58.98%)
Average number of basis functions per batch  ...    10.78 (59.86%)
Average number of large shells per batch     ...     4.59 (77.75%)
Average number of large basis fcns per batch ...     8.57 (79.49%)
Maximum spatial batch extension              ...  15.50, 15.79, 15.23 au
Average spatial batch extension              ...   3.90,  4.03,  3.92 au

Final grid set up in    0.4 sec
Final integration                            ... done (   0.1 sec)
Change in XC energy                          ...    -0.000044102
Integrated number of electrons               ...     9.999962657
Previous integrated no of electrons          ...    10.001840029

----------------
TOTAL SCF ENERGY
----------------

Total Energy       :          -75.74227800 Eh           -2061.05217 eV

Components:
Nuclear Repulsion  :            2.32776342 Eh              63.34166 eV
Electronic Energy  :          -78.07004142 Eh           -2124.39383 eV
One Electron Energy:         -109.34122365 Eh           -2975.32596 eV
Two Electron Energy:           31.27118222 Eh             850.93213 eV

Virial components:
Potential Energy   :         -151.04290202 Eh           -4110.08632 eV
Kinetic Energy     :           75.30062402 Eh            2049.03415 eV
Virial Ratio       :            2.00586521


DFT components:
N(Alpha)           :        4.999981328719 electrons
N(Beta)            :        4.999981328719 electrons
N(Total)           :        9.999962657437 electrons
E(XC)              :       -6.144349511694 Eh       

---------------
SCF CONVERGENCE
---------------

  Last Energy change         ...   -4.2997e-09  Tolerance :   1.0000e-06
  Last MAX-Density change    ...    1.9960e-05  Tolerance :   1.0000e-05
  Last RMS-Density change    ...    2.7369e-06  Tolerance :   1.0000e-06
  Last DIIS Error            ...    5.2792e-06  Tolerance :   1.0000e-06

             **** THE GBW FILE WAS UPDATED (Scan_33.gbw) ****
             **** DENSITY FILE WAS UPDATED (Scan_33.scfp.tmp) ****
             **** ENERGY FILE WAS UPDATED (Scan_33.en.tmp) ****
----------------
ORBITAL ENERGIES
----------------

  NO   OCC          E(Eh)            E(eV) 
   0   2.0000     -19.313440      -525.5454 
   1   2.0000      -0.980374       -26.6773 
   2   2.0000      -0.382858       -10.4181 
   3   2.0000      -0.328534        -8.9399 
   4   2.0000      -0.325870        -8.8674 
   5   0.0000      -0.181799        -4.9470 
   6   0.0000      -0.180203        -4.9036 
   7   0.0000       0.818122        22.2622 
   8   0.0000       0.819294        22.2941 
   9   0.0000       1.004143        27.3241 
  10   0.0000       1.006534        27.3892 
  11   0.0000       1.012671        27.5562 
  12   0.0000       1.108645        30.1678 
  13   0.0000       1.902061        51.7577 
  14   0.0000       1.902551        51.7710 
  15   0.0000       1.923076        52.3295 
  16   0.0000       1.923131        52.3311 
  17   0.0000       1.931048        52.5465 

                    ********************************
                    * MULLIKEN POPULATION ANALYSIS *
                    ********************************

-----------------------
MULLIKEN ATOMIC CHARGES
-----------------------
   0 O :   -0.204747
   1 H :    0.102724
   2 H :    0.102023
Sum of atomic charges:    0.0000000

--------------------------------
MULLIKEN REDUCED ORBITAL CHARGES
--------------------------------
  0 O s       :     3.999825  s :     3.999825
      pz      :     1.553732  p :     4.204789
      px      :     1.103851
      py      :     1.547206
      dz2     :     0.000013  d :     0.000133
      dxz     :     0.000002
      dyz     :     0.000079
      dx2y2   :     0.000036
      dxy     :     0.000002
  1 H s       :     0.897276  s :     0.897276
  2 H s       :     0.897977  s :     0.897977


                     *******************************
                     * LOEWDIN POPULATION ANALYSIS *
                     *******************************

----------------------
LOEWDIN ATOMIC CHARGES
----------------------
   0 O :   -0.205923
   1 H :    0.103311
   2 H :    0.102612

-------------------------------
LOEWDIN REDUCED ORBITAL CHARGES
-------------------------------
  0 O s       :     3.999809  s :     3.999809
      pz      :     1.554005  p :     4.205981
      px      :     1.104493
      py      :     1.547483
      dz2     :     0.000013  d :     0.000133
      dxz     :     0.000002
      dyz     :     0.000080
      dx2y2   :     0.000036
      dxy     :     0.000002
  1 H s       :     0.896689  s :     0.896689
  2 H s       :     0.897388  s :     0.897388


                      *****************************
                      * MAYER POPULATION ANALYSIS *
                      *****************************

  NA   - Mulliken gross atomic population
  ZA   - Total nuclear charge
  QA   - Mulliken gross atomic charge
  VA   - Mayer's total valence
  BVA  - Mayer's bonded valence
  FA   - Mayer's free valence

  ATOM       NA         ZA         QA         VA         BVA        FA
  0 O      8.2047     8.0000    -0.2047     1.9790     1.9790     0.0000
  1 H      0.8973     1.0000     0.1027     0.9895     0.9895    -0.0000
  2 H      0.8980     1.0000     0.1020     0.9896     0.9896     0.0000

  Mayer bond orders larger than 0.1
B(  0-O ,  1-H ) :   0.9894 B(  0-O ,  2-H ) :   0.9896 

-------
TIMINGS
-------

Total SCF time: 0 days 0 hours 0 min 17 sec 

Total time                  ....      17.650 sec
Sum of individual times     ....      16.871 sec  ( 95.6%)

Fock matrix formation       ....      15.870 sec  ( 89.9%)
  XC integration            ....       3.373 sec  ( 21.3% of F)
    Basis function eval.    ....       0.270 sec  (  8.0% of XC)
    Density eval.           ....       0.133 sec  (  4.0% of XC)
    XC-Functional eval.     ....       0.778 sec  ( 23.1% of XC)
    XC-Potential eval.      ....       0.023 sec  (  0.7% of XC)
Diagonalization             ....       0.201 sec  (  1.1%)
Density matrix formation    ....       0.000 sec  (  0.0%)
Population analysis         ....       0.081 sec  (  0.5%)
Initial guess               ....       0.273 sec  (  1.5%)
Orbital Transformation      ....       0.000 sec  (  0.0%)
Orbital Orthonormalization  ....       0.000 sec  (  0.0%)
DIIS solution               ....       0.000 sec  (  0.0%)
Grid generation             ....       0.446 sec  (  2.5%)


-------------------------------------------------------------------------------
                          DFT DISPERSION CORRECTION                            
                                                                               
                              DFTD3 V3.1  Rev 1                                
                              USING zero damping                               
-------------------------------------------------------------------------------
The omegaB97X-D3 functional is recognized. Fit by Chai et al.
Active option DFTDOPT                   ...         3   

molecular C6(AA) [au] = 85.411085 


            DFT-D V3
 parameters
 s6 scaling factor         :     1.0000 
 rs6 scaling factor        :     1.2810 
 s8 scaling factor         :     1.0000 
 rs8 scaling factor        :     1.0940 
 Damping factor alpha6     :    14.0000 
 Damping factor alpha8     :    16.0000 
 ad hoc parameters k1-k3   :    16.0000     1.3333    -4.0000 

 Edisp/kcal,au: -0.120116484592  -0.000191417782 
 E6   /kcal   :  -0.090383460 
 E8   /kcal   :  -0.029733025 
 % E8         :  24.753492330 

-------------------------   ----------------
Dispersion correction           -0.000191418
-------------------------   ----------------


-------------------------   --------------------
FINAL SINGLE POINT ENERGY       -75.742469418479
-------------------------   --------------------


                            ***************************************
                            *     ORCA property calculations      *
                            ***************************************

                                    ---------------------
                                    Active property flags
                                    ---------------------
   (+) Dipole Moment


------------------------------------------------------------------------------
                       ORCA ELECTRIC PROPERTIES CALCULATION
------------------------------------------------------------------------------

Dipole Moment Calculation                       ... on
Quadrupole Moment Calculation                   ... off
Polarizability Calculation                      ... off
GBWName                                         ... Scan_33.gbw
Electron density file                           ... Scan_33.scfp.tmp

-------------
DIPOLE MOMENT
-------------
                                X             Y             Z
Electronic contribution:     -1.47110      -1.47836      -1.47307
Nuclear contribution   :      1.92703       1.93049       1.92358
                        -----------------------------------------
Total Dipole Moment    :      0.45593       0.45213       0.45050
                        -----------------------------------------
Magnitude (a.u.)       :      0.78438
Magnitude (Debye)      :      1.99372


Timings for individual modules:

Sum of individual times         ...       18.471 sec (=   0.308 min)
GTO integral calculation        ...        0.657 sec (=   0.011 min)   3.6 %
SCF iterations                  ...       17.814 sec (=   0.297 min)  96.4 %
                             ****ORCA TERMINATED NORMALLY****
TOTAL RUN TIME: 0 days 0 hours 0 minutes 19 seconds 291 msec
