
                                 *****************
                                 * O   R   C   A *
                                 *****************

           --- An Ab Initio, DFT and Semiempirical electronic structure package ---

                  #######################################################
                  #                        -***-                        #
                  #  Department of molecular theory and spectroscopy    #
                  #              Directorship: Frank Neese              #
                  # Max Planck Institute for Chemical Energy Conversion #
                  #                  D-45470 Muelheim/Ruhr              #
                  #                       Germany                       #
                  #                                                     #
                  #                  All rights reserved                #
                  #                        -***-                        #
                  #######################################################


                         Program Version 4.0.0.2 - RELEASE -


 With contributions from (in alphabetic order):
   Daniel Aravena         : Magnetic Properties
   Michael Atanasov       : Ab Initio Ligand Field Theory
   Ute Becker             : Parallelization
   Martin Brehm           : Molecular dynamics
   Dmytro Bykov           : SCF Hessian
   Vijay G. Chilkuri      : MRCI spin determinant printing
   Dipayan Datta          : RHF DLPNO-CCSD density
   Achintya Kumar Dutta   : EOM-CC, STEOM-CC
   Dmitry Ganyushin       : Spin-Orbit,Spin-Spin,Magnetic field MRCI
   Yang Guo               : DLPNO-NEVPT2, CIM, IAO-localization
   Andreas Hansen         : Spin unrestricted coupled pair/coupled cluster methods
   Lee Huntington         : MR-EOM, pCC
   Robert Izsak           : Overlap fitted RIJCOSX, COSX-SCS-MP3, EOM
   Christian Kollmar      : KDIIS, OOCD, Brueckner-CCSD(T), CCSD density
   Simone Kossmann        : Meta GGA functionals, TD-DFT gradient, OOMP2, MP2 Hessian
   Martin Krupicka        : AUTO-CI
   Dagmar Lenk            : GEPOL surface
   Dimitrios Liakos       : Extrapolation schemes; parallel MDCI
   Dimitrios Manganas     : ROCIS; embedding schemes
   Dimitrios Pantazis     : SARC Basis sets
   Taras Petrenko         : DFT Hessian,TD-DFT gradient, ASA, ECA, R-Raman, ABS, FL, XAS/XES, NRVS
   Peter Pinski           : DLPNO-MP2
   Christoph Reimann      : Effective Core Potentials
   Marius Retegan         : Local ZFS, SOC
   Christoph Riplinger    : Optimizer, TS searches, QM/MM, DLPNO-CCSD(T), (RO)-DLPNO pert. Triples
   Tobias Risthaus        : Range-separated hybrids, TD-DFT gradient, RPA, STAB
   Michael Roemelt        : Restricted open shell CIS
   Masaaki Saitow         : Open-shell DLPNO
   Barbara Sandhoefer     : DKH picture change effects
   Kantharuban Sivalingam : CASSCF convergence, NEVPT2, FIC-MRCI
   Georgi Stoychev        : AutoAux
   Boris Wezisla          : Elementary symmetry handling
   Frank Wennmohs         : Technical directorship


 We gratefully acknowledge several colleagues who have allowed us to
 interface, adapt or use parts of their codes:
   Stefan Grimme, W. Hujo, H. Kruse,             : VdW corrections, initial TS optimization,
                  C. Bannwarth                     DFT functionals, gCP, sTDA/sTD-DF
   Ed Valeev                                     : LibInt (2-el integral package), F12 methods
   Garnet Chan, S. Sharma, J. Yang, R. Olivares  : DMRG
   Ulf Ekstrom                                   : XCFun DFT Library
   Mihaly Kallay                                 : mrcc  (arbitrary order and MRCC methods)
   Jiri Pittner, Ondrej Demel                    : Mk-CCSD
   Frank Weinhold                                : gennbo (NPA and NBO analysis)
   Christopher J. Cramer and Donald G. Truhlar   : smd solvation model


 Your calculation uses the libint2 library for the computation of 2-el integrals
 For citations please refer to: http://libint.valeyev.net

 This ORCA versions uses:
   CBLAS   interface :  Fast vector & matrix operations
   LAPACKE interface :  Fast linear algebra routines
   SCALAPACK package :  Parallel linear algebra routines


Your calculation utilizes the atom-pairwise dispersion correction
with the zero-damping scheme (D30)
Cite in your paper:
S.Grimme, J.Antony, S.Ehrlich and H.Krieg, J.Chem.Phys., 132, (2010), 154104 
   

XCFun DFT library Copyright 2009-2010 Ulf Ekstrom and contributors.
See http://admol.org/xcfun for more information. This is free soft-
ware; see the source code for copying conditions. There is ABSOLUTELY
NO WARRANTY; not even for MERCHANTABILITY or FITNESS FOR A PARTICULAR
PURPOSE. For details see the documentation. Scientific users of this 
library should cite U. Ekstrom, L. Visscher, R. Bast, A. J. Thorvald-
sen and K. Ruud; J.Chem.Theor.Comp. 2010, DOI: 10.1021/ct100117s
XCFun Version 0.99 
Your calculation utilizes the basis: 6-31G(d)
   H-He, Li-Ne : W. J. Hehre, R. Ditchfield and J.A. Pople, J. Chem. Phys. 56, 2257 (1972).
                 Note: He and Ne are unpublished basis sets taken from the Gaussian program.
                 Note: Li and B from J. D. Dill and J. A. Pople, J. Chem. Phys. 62, 2921 (1975).
   Na - Ar     : M. M. Francl, W. J. Pietro, W. J. Hehre, J. S. Binkley, M. S. Gordon, 
                 D. J. DeFrees and J. A. Pople, J. Chem. Phys. 77, 3654 (1982).
   K - Zn      : V. A. Rassolov, J. A. Pople, M. A. Ratner, and T. L. Windus, J. Chem. Phys. 109, 1223 (1998).

================================================================================
                                        WARNINGS
                       Please study these warnings very carefully!
================================================================================

Warning: TCutStore was < 0. Adjusted to Thresh (uncritical)

INFO   : the flag for use of LIBINT has been found!

================================================================================
                                       INPUT FILE
================================================================================
NAME = initial34.inp
|  1> ! WB97X-D3 6-31G(d) VerySlowConv
|  2> ! KDIIS NOSOSCF
|  3> %base "Scan_34"
|  4> 
|  5> %scf
|  6> maxiter 999
|  7> end
|  8> 
|  9> * xyz 0 1
| 10> O         -0.674343000795    0.972549381409   -0.604183850084
| 11> H          3.197541504828    0.883314126729   -0.693105159628
| 12> H         -2.083758504033    3.528676491862    1.942799009712
| 13> **                         ****END OF INPUT****
================================================================================

                       ****************************
                       * Single Point Calculation *
                       ****************************

---------------------------------
CARTESIAN COORDINATES (ANGSTROEM)
---------------------------------
  O     -0.674343    0.972549   -0.604184
  H      3.197542    0.883314   -0.693105
  H     -2.083759    3.528676    1.942799

----------------------------
CARTESIAN COORDINATES (A.U.)
----------------------------
  NO LB      ZA    FRAG     MASS         X           Y           Z
   0 O     8.0000    0    15.999   -1.274324    1.837852   -1.141742
   1 H     1.0000    0     1.008    6.042478    1.669222   -1.309779
   2 H     1.0000    0     1.008   -3.937733    6.668232    3.671358

--------------------------------
INTERNAL COORDINATES (ANGSTROEM)
--------------------------------
 O      0   0   0     0.000000000000     0.00000000     0.00000000
 H      1   0   0     3.873933344142     0.00000000     0.00000000
 H      1   2   0     3.873933343987   113.19852075     0.00000000

---------------------------
INTERNAL COORDINATES (A.U.)
---------------------------
 O      0   0   0     0.000000000000     0.00000000     0.00000000
 H      1   0   0     7.320673081493     0.00000000     0.00000000
 H      1   2   0     7.320673081201   113.19852075     0.00000000

---------------------
BASIS SET INFORMATION
---------------------
There are 2 groups of distinct atoms

 Group   1 Type O   : 10s4p1d contracted to 3s2p1d pattern {631/31/1}
 Group   2 Type H   : 4s contracted to 2s pattern {31}

Atom   0O    basis set group =>   1
Atom   1H    basis set group =>   2
Atom   2H    basis set group =>   2
------------------------------------------------------------------------------
                           ORCA GTO INTEGRAL CALCULATION
------------------------------------------------------------------------------

                         BASIS SET STATISTICS AND STARTUP INFO

 # of primitive gaussian shells          ...   23
 # of primitive gaussian functions       ...   35
 # of contracted shells                  ...   10
 # of contracted basis functions         ...   18
 Highest angular momentum                ...    2
 Maximum contraction depth               ...    6
 Integral package used                   ... LIBINT
 Integral threshhold            Thresh   ...  1.000e-10
 Primitive cut-off              TCut     ...  1.000e-11


------------------------------ INTEGRAL EVALUATION ----------------------------


 * One electron integrals 
 Pre-screening matrix                    ... done
 Shell pair data                         ... done (   0.000 sec)

-------------------------------------------------------------------------------
                                 ORCA SCF
-------------------------------------------------------------------------------

------------
SCF SETTINGS
------------
Hamiltonian:
 Density Functional     Method          .... DFT(GTOs)
 Exchange Functional    Exchange        .... WB97X-D3
 Correlation Functional Correlation     .... WB97X-D3
 Gradients option       PostSCFGGA      .... off
 Hybrid DFT is turned on
   Fraction HF Exchange ScalHFX         ....  0.195728
   Scaling of DF-GGA-X  ScalDFX         ....  0.000000
   Scaling of DF-GGA-C  ScalDFC         ....  1.000000
   Scaling of DF-LDA-C  ScalLDAC        ....  1.000000
   Perturbative correction              ....  0.000000
 Long-range corrected/Screened/Range-Separated Hybrid DFT is turned on
   Amount of maximum screened exact exchange              ....  0.804272
   Range separation parameter mu (erf(mu*r12)/r12)        ....  0.250000


General Settings:
 Integral files         IntName         .... Scan_34
 Hartree-Fock type      HFTyp           .... RHF
 Total Charge           Charge          ....    0
 Multiplicity           Mult            ....    1
 Number of Electrons    NEL             ....   10
 Basis Dimension        Dim             ....   18
 Nuclear Repulsion      ENuc            ....      2.2674030694 Eh

Convergence Acceleration:
 DIIS                   CNVDIIS         .... on
   Start iteration      DIISMaxIt       ....     0
   Startup error        DIISStart       ....  0.200000
   # of expansion vecs  DIISMaxEq       ....     5
   Bias factor          DIISBfac        ....   1.050
   Max. coefficient     DIISMaxC        ....  10.000
 Newton-Raphson         CNVNR           .... off
 SOSCF                  CNVSOSCF        .... off
 Level Shifting         CNVShift        .... off
 Zerner damping         CNVZerner       .... off
 Static damping         CNVDamp         .... off
 Fernandez-Rico         CNVRico         .... off

SCF Procedure:
 Maximum # iterations   MaxIter         ....   999
 SCF integral mode      SCFMode         .... Direct
   Integral package                     .... LIBINT
 Reset frequeny         DirectResetFreq ....    20
 Integral Threshold     Thresh          ....  1.000e-10 Eh
 Primitive CutOff       TCut            ....  1.000e-11 Eh

Convergence Tolerance:
 Convergence Check Mode ConvCheckMode   .... All-Criteria
 Convergence forced     ConvForced      .... 0
 Energy Change          TolE            ....  1.000e-06 Eh
 Max Density Change     TolMaxP         ....  1.000e-05
 RMS Density Change     TolRMSP         ....  1.000e-06
 DIIS Error             TolErr          ....  1.000e-06


Diagonalization of the overlap matrix:
Smallest eigenvalue                        ... 2.332e-01
Time for diagonalization                   ...    0.000 sec
Threshold for overlap eigenvalues          ... 1.000e-08
Number of eigenvalues below threshold      ... 0
Time for construction of square roots      ...    0.005 sec
Total time needed                          ...    0.005 sec

-------------------
DFT GRID GENERATION
-------------------

General Integration Accuracy     IntAcc      ...  4.340
Radial Grid Type                 RadialGrid  ... Gauss-Chebyshev
Angular Grid (max. acc.)         AngularGrid ... Lebedev-110
Angular grid pruning method      GridPruning ... 3 (G Style)
Weight generation scheme         WeightScheme... Becke
Basis function cutoff            BFCut       ...    1.0000e-10
Integration weight cutoff        WCut        ...    1.0000e-14
Grids for H and He will be reduced by one unit

# of grid points (after initial pruning)     ...   3304 (   0.0 sec)
# of grid points (after weights+screening)   ...   3295 (   0.0 sec)
nearest neighbour list constructed           ...    0.0 sec
Grid point re-assignment to atoms done       ...    0.0 sec
Grid point division into batches done        ...    0.0 sec
Reduced shell lists constructed in    0.0 sec

Total number of grid points                  ...     3295
Total number of batches                      ...       53
Average number of points per batch           ...       62
Average number of grid points per atom       ...     1098
Average number of shells per batch           ...     6.81 (68.15%)
Average number of basis functions per batch  ...    12.63 (70.16%)
Average number of large shells per batch     ...     5.31 (77.99%)
Average number of large basis fcns per batch ...    10.06 (79.62%)
Maximum spatial batch extension              ...  17.31, 20.95, 25.65 au
Average spatial batch extension              ...   6.17,  6.19,  6.28 au

Time for grid setup =    0.017 sec

------------------------------
INITIAL GUESS: MODEL POTENTIAL
------------------------------
Loading Hartree-Fock densities                     ... done
Calculating cut-offs                               ... done
Setting up the integral package                    ... done
Initializing the effective Hamiltonian             ... done
Starting the Coulomb interaction                   ... done (   0.0 sec)
Reading the grid                                   ... done
Mapping shells                                     ... done
Starting the XC term evaluation                    ... done (   0.1 sec)
  promolecular density results
     # of electrons  =     10.000427247
     EX              =     -8.523464894
     EC              =     -0.275897013
     EX+EC           =     -8.799361907
Transforming the Hamiltonian                       ... done (   0.0 sec)
Diagonalizing the Hamiltonian                      ... done (   0.0 sec)
Back transforming the eigenvectors                 ... done (   0.0 sec)
Now organizing SCF variables                       ... done
                      ------------------
                      INITIAL GUESS DONE (   0.3 sec)
                      ------------------
--------------
SCF ITERATIONS
--------------
ITER       Energy         Delta-E        Max-DP      RMS-DP      [F,P]   Gradient Norm
               ***  Starting incremental Fock matrix formation  ***
                             ****Resetting KDIIS****
                             ****Turning on KDIIS(Cayley)****
  0    -74.6249588881   0.000000000000 0.08479536  0.01106335  0.3712114   0.322784053
  1    -74.7674070765  -0.142448188444 0.15496852  0.02116240  0.3085359   0.261632211
  2    -74.9628141721  -0.195407095530 0.10674059  0.01457938  0.1777279   0.146336307
  3    -75.0641609101  -0.101346738053 0.18061413  0.02373223  0.1147797   0.104069032
  4    -75.2219153307  -0.157754420608 0.16993494  0.02776307  0.1522853   0.127105352
  5    -75.3416642850  -0.119748954255 0.21137326  0.04644893  0.1810572   0.159881542
  6    -75.2624639792   0.079200305822 0.14676126  0.02109343  0.1510221   0.120436518
  7    -75.4970662155  -0.234602236360 0.13226282  0.02130654  0.1445845   0.113353934
  8    -75.3390703549   0.157995860657 0.29105833  0.05052854  0.1424199   0.128526016
  9    -75.6774854240  -0.338415069172 0.19488966  0.02819302  0.1394849   0.118211328
 10    -75.6007794578   0.076705966232 0.06960340  0.01135509  0.1512344   0.109325274
 11    -75.6652731590  -0.064493701233 0.11077139  0.01863988  0.1031399   0.073002303
 12    -75.7400463731  -0.074773214070 0.06032650  0.01283100  0.0247821   0.024273260
 13    -75.7270269360   0.013019437130 0.05252846  0.00915525  0.0536757   0.031623815
 14    -75.7422172122  -0.015190276176 0.04030872  0.00643584  0.0174548   0.011290857
 15    -75.7453883457  -0.003171133561 0.03309937  0.00622300  0.0145977   0.014108768
 16    -75.7493996111  -0.004011265358 0.04236817  0.00647955  0.0117230   0.007803686
 17    -75.7534256377  -0.004026026624 0.02229726  0.00311548  0.0109225   0.008060852
 18    -75.7556287424  -0.002203104742 0.12145563  0.01755647  0.0108977   0.007213290
 19    -75.7637936387  -0.008164896258 0.08227608  0.01080313  0.0194112   0.010612678
               *** Restarting incremental Fock matrix formation ***
                             ****Resetting KDIIS****
 20    -75.7663788973  -0.002585258641 0.00315901  0.00034494  0.0058765   0.006930620
 21    -75.7665501141  -0.000171216717 0.00173178  0.00029508  0.0048112   0.005506601
 22    -75.7666601305  -0.000110016432 0.00302040  0.00055053  0.0040622   0.004297544
 23    -75.7667966725  -0.000136542039 0.00799550  0.00140622  0.0028600   0.002852769
 24    -75.7669240510  -0.000127378422 0.00159665  0.00020049  0.0003317   0.000313894
 25    -75.7669282049  -0.000004153924 0.00150990  0.00017848  0.0002798   0.000203425
 26    -75.7669316655  -0.000003460597 0.00306235  0.00035351  0.0002840   0.000193591
 27    -75.7669384173  -0.000006751861 0.00230640  0.00026152  0.0002669   0.000195083
 28    -75.7669433815  -0.000004964166 0.00114718  0.00013934  0.0002602   0.000195958
 29    -75.7669460225  -0.000002640967 0.00064795  0.00007664  0.0002760   0.000193354
 30    -75.7669445942   0.000001428295 0.00146224  0.00016428  0.0002692   0.000191059
 31    -75.7669477105  -0.000003116316 0.00105729  0.00012057  0.0002688   0.000189934
 32    -75.7669499958  -0.000002285353 0.01630010  0.00182973  0.0002710   0.000189625
 33    -75.7669842355  -0.000034239695 0.12346802  0.01278865  0.0002798   0.000186839
 34    -75.7671442140  -0.000159978424 0.00485570  0.00052412  0.0013046   0.000697233
 35    -75.7671488788  -0.000004664885 0.00583545  0.00057611  0.0004047   0.000228149
 36    -75.7671466628   0.000002216093 0.01830539  0.00181355  0.0003309   0.000194280
 37    -75.7671529289  -0.000006266185 0.02084935  0.00203597  0.0002079   0.000113704
 38    -75.7671544537  -0.000001524808 0.00515308  0.00049893  0.0002358   0.000143509
                          ***Energy convergence achieved***
 39    -75.7671546903  -0.000000236514 0.00128123  0.00012487  0.0000102   0.000007243
               *** Restarting incremental Fock matrix formation ***
                             ****Resetting KDIIS****
                           ***RMSP convergence achieved***
                           ***MAXP convergence achieved***
                    *** KDIIS BlockDiag ( 0.000 sec) ***

               *****************************************************
               *                     SUCCESS                       *
               *           SCF CONVERGED AFTER  40 CYCLES          *
               *****************************************************

Setting up the final grid:

General Integration Accuracy     IntAcc      ...  4.670
Radial Grid Type                 RadialGrid  ... Gauss-Chebyshev
Angular Grid (max. acc.)         AngularGrid ... Lebedev-302
Angular grid pruning method      GridPruning ... 3 (G Style)
Weight generation scheme         WeightScheme... Becke
Basis function cutoff            BFCut       ...    1.0000e-10
Integration weight cutoff        WCut        ...    1.0000e-14
Grids for H and He will be reduced by one unit

# of grid points (after initial pruning)     ...  13000 (   0.0 sec)
# of grid points (after weights+screening)   ...  12979 (   0.0 sec)
nearest neighbour list constructed           ...    0.0 sec
Grid point re-assignment to atoms done       ...    0.0 sec
Grid point division into batches done        ...    0.0 sec
Reduced shell lists constructed in    0.1 sec

Total number of grid points                  ...    12979
Total number of batches                      ...      204
Average number of points per batch           ...       63
Average number of grid points per atom       ...     4326
Average number of shells per batch           ...     5.78 (57.76%)
Average number of basis functions per batch  ...    10.56 (58.64%)
Average number of large shells per batch     ...     4.47 (77.45%)
Average number of large basis fcns per batch ...     8.33 (78.88%)
Maximum spatial batch extension              ...  15.70, 15.96, 15.34 au
Average spatial batch extension              ...   3.84,  3.94,  3.91 au

Final grid set up in    0.1 sec
Final integration                            ... done (   0.2 sec)
Change in XC energy                          ...     0.000146249
Integrated number of electrons               ...     9.999964398
Previous integrated no of electrons          ...    10.002001742

----------------
TOTAL SCF ENERGY
----------------

Total Energy       :          -75.76700845 Eh           -2061.72512 eV

Components:
Nuclear Repulsion  :            2.26740307 Eh              61.69917 eV
Electronic Energy  :          -78.03441152 Eh           -2123.42429 eV
One Electron Energy:         -108.96098134 Eh           -2964.97904 eV
Two Electron Energy:           30.92656982 Eh             841.55475 eV

Virial components:
Potential Energy   :         -151.14522381 Eh           -4112.87063 eV
Kinetic Energy     :           75.37821536 Eh            2051.14552 eV
Virial Ratio       :            2.00515790


DFT components:
N(Alpha)           :        4.999982198997 electrons
N(Beta)            :        4.999982198997 electrons
N(Total)           :        9.999964397993 electrons
E(XC)              :       -6.179090225846 Eh       

---------------
SCF CONVERGENCE
---------------

  Last Energy change         ...   -8.6681e-09  Tolerance :   1.0000e-06
  Last MAX-Density change    ...    9.3255e-07  Tolerance :   1.0000e-05
  Last RMS-Density change    ...    1.1668e-07  Tolerance :   1.0000e-06
  Last DIIS Error            ...    3.3389e-06  Tolerance :   1.0000e-06

             **** THE GBW FILE WAS UPDATED (Scan_34.gbw) ****
             **** DENSITY FILE WAS UPDATED (Scan_34.scfp.tmp) ****
             **** ENERGY FILE WAS UPDATED (Scan_34.en.tmp) ****
----------------
ORBITAL ENERGIES
----------------

  NO   OCC          E(Eh)            E(eV) 
   0   2.0000     -19.345537      -526.4188 
   1   2.0000      -1.008473       -27.4420 
   2   2.0000      -0.415053       -11.2942 
   3   2.0000      -0.414839       -11.2883 
   4   2.0000      -0.286386        -7.7929 
   5   0.0000      -0.200761        -5.4630 
   6   0.0000      -0.136343        -3.7101 
   7   0.0000       0.832411        22.6511 
   8   0.0000       0.834012        22.6946 
   9   0.0000       0.985114        26.8063 
  10   0.0000       0.986791        26.8519 
  11   0.0000       0.988101        26.8876 
  12   0.0000       1.085986        29.5512 
  13   0.0000       1.866394        50.7872 
  14   0.0000       1.870437        50.8972 
  15   0.0000       1.870847        50.9083 
  16   0.0000       1.913036        52.0563 
  17   0.0000       1.913143        52.0593 

                    ********************************
                    * MULLIKEN POPULATION ANALYSIS *
                    ********************************

-----------------------
MULLIKEN ATOMIC CHARGES
-----------------------
   0 O :   -0.107112
   1 H :    0.058878
   2 H :    0.048234
Sum of atomic charges:   -0.0000000

--------------------------------
MULLIKEN REDUCED ORBITAL CHARGES
--------------------------------
  0 O s       :     3.999688  s :     3.999688
      pz      :     1.434358  p :     4.107177
      px      :     1.241890
      py      :     1.430930
      dz2     :     0.000002  d :     0.000246
      dxz     :     0.000086
      dyz     :     0.000066
      dx2y2   :     0.000005
      dxy     :     0.000086
  1 H s       :     0.941122  s :     0.941122
  2 H s       :     0.951766  s :     0.951766


                     *******************************
                     * LOEWDIN POPULATION ANALYSIS *
                     *******************************

----------------------
LOEWDIN ATOMIC CHARGES
----------------------
   0 O :   -0.107403
   1 H :    0.059006
   2 H :    0.048397

-------------------------------
LOEWDIN REDUCED ORBITAL CHARGES
-------------------------------
  0 O s       :     3.999687  s :     3.999687
      pz      :     1.434425  p :     4.107470
      px      :     1.242048
      py      :     1.430997
      dz2     :     0.000002  d :     0.000246
      dxz     :     0.000086
      dyz     :     0.000067
      dx2y2   :     0.000006
      dxy     :     0.000086
  1 H s       :     0.940994  s :     0.940994
  2 H s       :     0.951603  s :     0.951603


                      *****************************
                      * MAYER POPULATION ANALYSIS *
                      *****************************

  NA   - Mulliken gross atomic population
  ZA   - Total nuclear charge
  QA   - Mulliken gross atomic charge
  VA   - Mayer's total valence
  BVA  - Mayer's bonded valence
  FA   - Mayer's free valence

  ATOM       NA         ZA         QA         VA         BVA        FA
  0 O      8.1071     8.0000    -0.1071     0.2097     0.2097    -0.0000
  1 H      0.9411     1.0000     0.0589     0.9966     0.9966     0.0000
  2 H      0.9518     1.0000     0.0482     0.9977     0.9977     0.0000

  Mayer bond orders larger than 0.1
B(  0-O ,  1-H ) :   0.1043 B(  0-O ,  2-H ) :   0.1054 B(  1-H ,  2-H ) :   0.8923 


-------
TIMINGS
-------

Total SCF time: 0 days 0 hours 0 min 16 sec 

Total time                  ....      16.443 sec
Sum of individual times     ....      15.338 sec  ( 93.3%)

Fock matrix formation       ....      14.783 sec  ( 89.9%)
  XC integration            ....       3.907 sec  ( 26.4% of F)
    Basis function eval.    ....       0.374 sec  (  9.6% of XC)
    Density eval.           ....       0.115 sec  (  2.9% of XC)
    XC-Functional eval.     ....       0.730 sec  ( 18.7% of XC)
    XC-Potential eval.      ....       0.024 sec  (  0.6% of XC)
Diagonalization             ....       0.133 sec  (  0.8%)
Density matrix formation    ....       0.000 sec  (  0.0%)
Population analysis         ....       0.044 sec  (  0.3%)
Initial guess               ....       0.277 sec  (  1.7%)
Orbital Transformation      ....       0.000 sec  (  0.0%)
Orbital Orthonormalization  ....       0.000 sec  (  0.0%)
DIIS solution               ....       0.000 sec  (  0.0%)
Grid generation             ....       0.100 sec  (  0.6%)


-------------------------------------------------------------------------------
                          DFT DISPERSION CORRECTION                            
                                                                               
                              DFTD3 V3.1  Rev 1                                
                              USING zero damping                               
-------------------------------------------------------------------------------
The omegaB97X-D3 functional is recognized. Fit by Chai et al.
Active option DFTDOPT                   ...         3   

molecular C6(AA) [au] = 85.411121 


            DFT-D V3
 parameters
 s6 scaling factor         :     1.0000 
 rs6 scaling factor        :     1.2810 
 s8 scaling factor         :     1.0000 
 rs8 scaling factor        :     1.0940 
 Damping factor alpha6     :    14.0000 
 Damping factor alpha8     :    16.0000 
 ad hoc parameters k1-k3   :    16.0000     1.3333    -4.0000 

 Edisp/kcal,au: -0.103073332185  -0.000164257793 
 E6   /kcal   :  -0.079032067 
 E8   /kcal   :  -0.024041265 
 % E8         :  23.324427981 

-------------------------   ----------------
Dispersion correction           -0.000164258
-------------------------   ----------------


-------------------------   --------------------
FINAL SINGLE POINT ENERGY       -75.767172708017
-------------------------   --------------------


                            ***************************************
                            *     ORCA property calculations      *
                            ***************************************

                                    ---------------------
                                    Active property flags
                                    ---------------------
   (+) Dipole Moment


------------------------------------------------------------------------------
                       ORCA ELECTRIC PROPERTIES CALCULATION
------------------------------------------------------------------------------

Dipole Moment Calculation                       ... on
Quadrupole Moment Calculation                   ... off
Polarizability Calculation                      ... off
GBWName                                         ... Scan_34.gbw
Electron density file                           ... Scan_34.scfp.tmp

-------------
DIPOLE MOMENT
-------------
                                X             Y             Z
Electronic contribution:     -1.74812      -1.82948      -1.82294
Nuclear contribution   :      2.04966       2.05334       2.04599
                        -----------------------------------------
Total Dipole Moment    :      0.30154       0.22386       0.22306
                        -----------------------------------------
Magnitude (a.u.)       :      0.43680
Magnitude (Debye)      :      1.11026


Timings for individual modules:

Sum of individual times         ...       17.035 sec (=   0.284 min)
GTO integral calculation        ...        0.523 sec (=   0.009 min)   3.1 %
SCF iterations                  ...       16.512 sec (=   0.275 min)  96.9 %
                             ****ORCA TERMINATED NORMALLY****
TOTAL RUN TIME: 0 days 0 hours 0 minutes 17 seconds 633 msec
