
                                 *****************
                                 * O   R   C   A *
                                 *****************

           --- An Ab Initio, DFT and Semiempirical electronic structure package ---

                  #######################################################
                  #                        -***-                        #
                  #  Department of molecular theory and spectroscopy    #
                  #              Directorship: Frank Neese              #
                  # Max Planck Institute for Chemical Energy Conversion #
                  #                  D-45470 Muelheim/Ruhr              #
                  #                       Germany                       #
                  #                                                     #
                  #                  All rights reserved                #
                  #                        -***-                        #
                  #######################################################


                         Program Version 4.0.0.2 - RELEASE -


 With contributions from (in alphabetic order):
   Daniel Aravena         : Magnetic Properties
   Michael Atanasov       : Ab Initio Ligand Field Theory
   Ute Becker             : Parallelization
   Martin Brehm           : Molecular dynamics
   Dmytro Bykov           : SCF Hessian
   Vijay G. Chilkuri      : MRCI spin determinant printing
   Dipayan Datta          : RHF DLPNO-CCSD density
   Achintya Kumar Dutta   : EOM-CC, STEOM-CC
   Dmitry Ganyushin       : Spin-Orbit,Spin-Spin,Magnetic field MRCI
   Yang Guo               : DLPNO-NEVPT2, CIM, IAO-localization
   Andreas Hansen         : Spin unrestricted coupled pair/coupled cluster methods
   Lee Huntington         : MR-EOM, pCC
   Robert Izsak           : Overlap fitted RIJCOSX, COSX-SCS-MP3, EOM
   Christian Kollmar      : KDIIS, OOCD, Brueckner-CCSD(T), CCSD density
   Simone Kossmann        : Meta GGA functionals, TD-DFT gradient, OOMP2, MP2 Hessian
   Martin Krupicka        : AUTO-CI
   Dagmar Lenk            : GEPOL surface
   Dimitrios Liakos       : Extrapolation schemes; parallel MDCI
   Dimitrios Manganas     : ROCIS; embedding schemes
   Dimitrios Pantazis     : SARC Basis sets
   Taras Petrenko         : DFT Hessian,TD-DFT gradient, ASA, ECA, R-Raman, ABS, FL, XAS/XES, NRVS
   Peter Pinski           : DLPNO-MP2
   Christoph Reimann      : Effective Core Potentials
   Marius Retegan         : Local ZFS, SOC
   Christoph Riplinger    : Optimizer, TS searches, QM/MM, DLPNO-CCSD(T), (RO)-DLPNO pert. Triples
   Tobias Risthaus        : Range-separated hybrids, TD-DFT gradient, RPA, STAB
   Michael Roemelt        : Restricted open shell CIS
   Masaaki Saitow         : Open-shell DLPNO
   Barbara Sandhoefer     : DKH picture change effects
   Kantharuban Sivalingam : CASSCF convergence, NEVPT2, FIC-MRCI
   Georgi Stoychev        : AutoAux
   Boris Wezisla          : Elementary symmetry handling
   Frank Wennmohs         : Technical directorship


 We gratefully acknowledge several colleagues who have allowed us to
 interface, adapt or use parts of their codes:
   Stefan Grimme, W. Hujo, H. Kruse,             : VdW corrections, initial TS optimization,
                  C. Bannwarth                     DFT functionals, gCP, sTDA/sTD-DF
   Ed Valeev                                     : LibInt (2-el integral package), F12 methods
   Garnet Chan, S. Sharma, J. Yang, R. Olivares  : DMRG
   Ulf Ekstrom                                   : XCFun DFT Library
   Mihaly Kallay                                 : mrcc  (arbitrary order and MRCC methods)
   Jiri Pittner, Ondrej Demel                    : Mk-CCSD
   Frank Weinhold                                : gennbo (NPA and NBO analysis)
   Christopher J. Cramer and Donald G. Truhlar   : smd solvation model


 Your calculation uses the libint2 library for the computation of 2-el integrals
 For citations please refer to: http://libint.valeyev.net

 This ORCA versions uses:
   CBLAS   interface :  Fast vector & matrix operations
   LAPACKE interface :  Fast linear algebra routines
   SCALAPACK package :  Parallel linear algebra routines


Your calculation utilizes the atom-pairwise dispersion correction
with the zero-damping scheme (D30)
Cite in your paper:
S.Grimme, J.Antony, S.Ehrlich and H.Krieg, J.Chem.Phys., 132, (2010), 154104 
   

XCFun DFT library Copyright 2009-2010 Ulf Ekstrom and contributors.
See http://admol.org/xcfun for more information. This is free soft-
ware; see the source code for copying conditions. There is ABSOLUTELY
NO WARRANTY; not even for MERCHANTABILITY or FITNESS FOR A PARTICULAR
PURPOSE. For details see the documentation. Scientific users of this 
library should cite U. Ekstrom, L. Visscher, R. Bast, A. J. Thorvald-
sen and K. Ruud; J.Chem.Theor.Comp. 2010, DOI: 10.1021/ct100117s
XCFun Version 0.99 
Your calculation utilizes the basis: 6-31G(d)
   H-He, Li-Ne : W. J. Hehre, R. Ditchfield and J.A. Pople, J. Chem. Phys. 56, 2257 (1972).
                 Note: He and Ne are unpublished basis sets taken from the Gaussian program.
                 Note: Li and B from J. D. Dill and J. A. Pople, J. Chem. Phys. 62, 2921 (1975).
   Na - Ar     : M. M. Francl, W. J. Pietro, W. J. Hehre, J. S. Binkley, M. S. Gordon, 
                 D. J. DeFrees and J. A. Pople, J. Chem. Phys. 77, 3654 (1982).
   K - Zn      : V. A. Rassolov, J. A. Pople, M. A. Ratner, and T. L. Windus, J. Chem. Phys. 109, 1223 (1998).

================================================================================
                                        WARNINGS
                       Please study these warnings very carefully!
================================================================================

Warning: TCutStore was < 0. Adjusted to Thresh (uncritical)

INFO   : the flag for use of LIBINT has been found!

================================================================================
                                       INPUT FILE
================================================================================
NAME = initial35.inp
|  1> ! WB97X-D3 6-31G(d) VerySlowConv
|  2> ! KDIIS NOSOSCF
|  3> %base "Scan_35"
|  4> 
|  5> %scf
|  6> maxiter 999
|  7> end
|  8> 
|  9> * xyz 0 1
| 10> O         -0.722829406038    0.923975890504   -0.652583470876
| 11> H          3.253228214700    0.891851062607   -0.684598847133
| 12> H         -2.090958808661    3.568713046889    1.982692318009
| 13> **                         ****END OF INPUT****
================================================================================

                       ****************************
                       * Single Point Calculation *
                       ****************************

---------------------------------
CARTESIAN COORDINATES (ANGSTROEM)
---------------------------------
  O     -0.722829    0.923976   -0.652583
  H      3.253228    0.891851   -0.684599
  H     -2.090959    3.568713    1.982692

----------------------------
CARTESIAN COORDINATES (A.U.)
----------------------------
  NO LB      ZA    FRAG     MASS         X           Y           Z
   0 O     8.0000    0    15.999   -1.365950    1.746061   -1.233204
   1 H     1.0000    0     1.008    6.147710    1.685354   -1.293704
   2 H     1.0000    0     1.008   -3.951340    6.743890    3.746745

--------------------------------
INTERNAL COORDINATES (ANGSTROEM)
--------------------------------
 O      0   0   0     0.000000000000     0.00000000     0.00000000
 H      1   0   0     3.976316284240     0.00000000     0.00000000
 H      1   2   0     3.976316281707   110.77854111     0.00000000

---------------------------
INTERNAL COORDINATES (A.U.)
---------------------------
 O      0   0   0     0.000000000000     0.00000000     0.00000000
 H      1   0   0     7.514148799065     0.00000000     0.00000000
 H      1   2   0     7.514148794278   110.77854111     0.00000000

---------------------
BASIS SET INFORMATION
---------------------
There are 2 groups of distinct atoms

 Group   1 Type O   : 10s4p1d contracted to 3s2p1d pattern {631/31/1}
 Group   2 Type H   : 4s contracted to 2s pattern {31}

Atom   0O    basis set group =>   1
Atom   1H    basis set group =>   2
Atom   2H    basis set group =>   2
------------------------------------------------------------------------------
                           ORCA GTO INTEGRAL CALCULATION
------------------------------------------------------------------------------

                         BASIS SET STATISTICS AND STARTUP INFO

 # of primitive gaussian shells          ...   23
 # of primitive gaussian functions       ...   35
 # of contracted shells                  ...   10
 # of contracted basis functions         ...   18
 Highest angular momentum                ...    2
 Maximum contraction depth               ...    6
 Integral package used                   ... LIBINT
 Integral threshhold            Thresh   ...  1.000e-10
 Primitive cut-off              TCut     ...  1.000e-11


------------------------------ INTEGRAL EVALUATION ----------------------------


 * One electron integrals 
 Pre-screening matrix                    ... done
 Shell pair data                         ... done (   0.000 sec)

-------------------------------------------------------------------------------
                                 ORCA SCF
-------------------------------------------------------------------------------

------------
SCF SETTINGS
------------
Hamiltonian:
 Density Functional     Method          .... DFT(GTOs)
 Exchange Functional    Exchange        .... WB97X-D3
 Correlation Functional Correlation     .... WB97X-D3
 Gradients option       PostSCFGGA      .... off
 Hybrid DFT is turned on
   Fraction HF Exchange ScalHFX         ....  0.195728
   Scaling of DF-GGA-X  ScalDFX         ....  0.000000
   Scaling of DF-GGA-C  ScalDFC         ....  1.000000
   Scaling of DF-LDA-C  ScalLDAC        ....  1.000000
   Perturbative correction              ....  0.000000
 Long-range corrected/Screened/Range-Separated Hybrid DFT is turned on
   Amount of maximum screened exact exchange              ....  0.804272
   Range separation parameter mu (erf(mu*r12)/r12)        ....  0.250000


General Settings:
 Integral files         IntName         .... Scan_35
 Hartree-Fock type      HFTyp           .... RHF
 Total Charge           Charge          ....    0
 Multiplicity           Mult            ....    1
 Number of Electrons    NEL             ....   10
 Basis Dimension        Dim             ....   18
 Nuclear Repulsion      ENuc            ....      2.2101653435 Eh

Convergence Acceleration:
 DIIS                   CNVDIIS         .... on
   Start iteration      DIISMaxIt       ....     0
   Startup error        DIISStart       ....  0.200000
   # of expansion vecs  DIISMaxEq       ....     5
   Bias factor          DIISBfac        ....   1.050
   Max. coefficient     DIISMaxC        ....  10.000
 Newton-Raphson         CNVNR           .... off
 SOSCF                  CNVSOSCF        .... off
 Level Shifting         CNVShift        .... off
 Zerner damping         CNVZerner       .... off
 Static damping         CNVDamp         .... off
 Fernandez-Rico         CNVRico         .... off

SCF Procedure:
 Maximum # iterations   MaxIter         ....   999
 SCF integral mode      SCFMode         .... Direct
   Integral package                     .... LIBINT
 Reset frequeny         DirectResetFreq ....    20
 Integral Threshold     Thresh          ....  1.000e-10 Eh
 Primitive CutOff       TCut            ....  1.000e-11 Eh

Convergence Tolerance:
 Convergence Check Mode ConvCheckMode   .... All-Criteria
 Convergence forced     ConvForced      .... 0
 Energy Change          TolE            ....  1.000e-06 Eh
 Max Density Change     TolMaxP         ....  1.000e-05
 RMS Density Change     TolRMSP         ....  1.000e-06
 DIIS Error             TolErr          ....  1.000e-06


Diagonalization of the overlap matrix:
Smallest eigenvalue                        ... 2.332e-01
Time for diagonalization                   ...    0.000 sec
Threshold for overlap eigenvalues          ... 1.000e-08
Number of eigenvalues below threshold      ... 0
Time for construction of square roots      ...    0.005 sec
Total time needed                          ...    0.005 sec

-------------------
DFT GRID GENERATION
-------------------

General Integration Accuracy     IntAcc      ...  4.340
Radial Grid Type                 RadialGrid  ... Gauss-Chebyshev
Angular Grid (max. acc.)         AngularGrid ... Lebedev-110
Angular grid pruning method      GridPruning ... 3 (G Style)
Weight generation scheme         WeightScheme... Becke
Basis function cutoff            BFCut       ...    1.0000e-10
Integration weight cutoff        WCut        ...    1.0000e-14
Grids for H and He will be reduced by one unit

# of grid points (after initial pruning)     ...   3304 (   0.0 sec)
# of grid points (after weights+screening)   ...   3295 (   0.0 sec)
nearest neighbour list constructed           ...    0.0 sec
Grid point re-assignment to atoms done       ...    0.0 sec
Grid point division into batches done        ...    0.0 sec
Reduced shell lists constructed in    0.0 sec

Total number of grid points                  ...     3295
Total number of batches                      ...       53
Average number of points per batch           ...       62
Average number of grid points per atom       ...     1098
Average number of shells per batch           ...     6.74 (67.41%)
Average number of basis functions per batch  ...    12.56 (69.75%)
Average number of large shells per batch     ...     5.22 (77.47%)
Average number of large basis fcns per batch ...    10.00 (79.65%)
Maximum spatial batch extension              ...  17.31, 20.95, 25.65 au
Average spatial batch extension              ...   6.46,  6.19,  6.25 au

Time for grid setup =    0.018 sec

------------------------------
INITIAL GUESS: MODEL POTENTIAL
------------------------------
Loading Hartree-Fock densities                     ... done
Calculating cut-offs                               ... done
Setting up the integral package                    ... done
Initializing the effective Hamiltonian             ... done
Starting the Coulomb interaction                   ... done (   0.0 sec)
Reading the grid                                   ... done
Mapping shells                                     ... done
Starting the XC term evaluation                    ... done (   0.0 sec)
  promolecular density results
     # of electrons  =     10.000530131
     EX              =     -8.523394974
     EC              =     -0.275889272
     EX+EC           =     -8.799284246
Transforming the Hamiltonian                       ... done (   0.0 sec)
Diagonalizing the Hamiltonian                      ... done (   0.0 sec)
Back transforming the eigenvectors                 ... done (   0.0 sec)
Now organizing SCF variables                       ... done
                      ------------------
                      INITIAL GUESS DONE (   0.3 sec)
                      ------------------
--------------
SCF ITERATIONS
--------------
ITER       Energy         Delta-E        Max-DP      RMS-DP      [F,P]   Gradient Norm
               ***  Starting incremental Fock matrix formation  ***
                             ****Resetting KDIIS****
                             ****Turning on KDIIS(Cayley)****
  0    -74.6104104124   0.000000000000 0.08749873  0.01123265  0.3715906   0.322803049
  1    -74.7531620050  -0.142751592633 0.15070364  0.02198193  0.3085901   0.260880809
  2    -74.9473643810  -0.194202375987 0.13751223  0.01497321  0.1716796   0.148594450
  3    -75.0619943826  -0.114630001665 0.22550172  0.02559604  0.1233712   0.106460526
  4    -75.2607003583  -0.198705975699 0.31124695  0.04649544  0.1538112   0.130722189
  5    -75.4052699845  -0.144569626193 0.33079065  0.05883293  0.1976338   0.173673996
  6    -75.2883646489   0.116905335678 0.10148002  0.01254999  0.1538570   0.123238877
  7    -75.3752418501  -0.086877201202 0.07645669  0.01663299  0.1589329   0.123956375
  8    -75.4394479198  -0.064206069716 0.19623690  0.03283522  0.1382284   0.128087207
  9    -75.6919421733  -0.252494253554 0.14775588  0.02096453  0.1046961   0.087158444
 10    -75.7321824688  -0.040240295507 0.16137850  0.02005968  0.0371368   0.024629032
 11    -75.7141732695   0.018009199292 0.07912890  0.00845888  0.0723248   0.054293252
 12    -75.7320956107  -0.017922341194 0.06872330  0.00960104  0.0466996   0.033481963
 13    -75.7446046898  -0.012509079102 0.10805218  0.01350919  0.0132652   0.010322163
 14    -75.7498998480  -0.005295158187 0.03799223  0.00536075  0.0128335   0.009101798
 15    -75.7466373664   0.003262481608 0.27526974  0.04761232  0.0146476   0.011086065
 16    -75.7031871095   0.043450256953 0.07550560  0.01173656  0.0578676   0.041615792
 17    -75.7179143544  -0.014727244923 0.05319820  0.00706494  0.0526094   0.036855808
 18    -75.7000751292   0.017839225189 0.45797430  0.06543166  0.0785350   0.052593446
 19    -75.7614543242  -0.061379194976 0.05495037  0.00744629  0.0202289   0.018545592
               *** Restarting incremental Fock matrix formation ***
                             ****Resetting KDIIS****
 20    -75.7641299751  -0.002675650924 0.00228028  0.00039046  0.0113122   0.012801139
 21    -75.7644268174  -0.000296842306 0.00389602  0.00053426  0.0096703   0.011052722
 22    -75.7647581475  -0.000331330069 0.00773115  0.00099938  0.0079392   0.008838670
 23    -75.7651887205  -0.000430573075 0.01587740  0.00213492  0.0052705   0.005726523
 24    -75.7655565125  -0.000367791951 0.00750474  0.00092180  0.0008089   0.000623368
 25    -75.7655787053  -0.000022192767 0.00107317  0.00014242  0.0002521   0.000196837
 26    -75.7655800833  -0.000001378081 0.00104174  0.00012710  0.0002411   0.000164471
 27    -75.7655819960  -0.000001912678 0.00135062  0.00016886  0.0002098   0.000144986
 28    -75.7655844726  -0.000002476561 0.00181866  0.00022093  0.0001979   0.000144192
 29    -75.7655876970  -0.000003224394 0.00032937  0.00004070  0.0001854   0.000144548
                          ***Energy convergence achieved***
 30    -75.7655882902  -0.000000593217 0.00045843  0.00005476  0.0001845   0.000144513
 31    -75.7655890868  -0.000000796618 0.02398759  0.00299235  0.0001865   0.000144518
 32    -75.7655458369   0.000043249918 0.05538781  0.00780429  0.0001945   0.000152275
 33    -75.7654424790   0.000103357939 0.03738945  0.00546305  0.0004970   0.000343895
 34    -75.7655131430  -0.000070664050 0.11366659  0.01585241  0.0003387   0.000280956
 35    -75.7653021493   0.000210993707 0.11829674  0.01647964  0.0018223   0.001340776
 36    -75.7655161529  -0.000214003627 0.02624426  0.00365274  0.0013618   0.001024174
 37    -75.7654681409   0.000048012013 0.01953940  0.00294446  0.0013096   0.000990145
 38    -75.7654304700   0.000037670886 0.01427731  0.00197416  0.0013998   0.001064635
 39    -75.7654073596   0.000023110474 0.01120731  0.00160289  0.0013705   0.001008971
               *** Restarting incremental Fock matrix formation ***
                             ****Resetting KDIIS****
 40    -75.7654262924  -0.000018932832 0.00014749  0.00002010  0.0014972   0.001080463
 41    -75.7654274960  -0.000001203579 0.00028175  0.00004071  0.0013623   0.000964904
 42    -75.7654293865  -0.000001890495 0.00079418  0.00010965  0.0010997   0.000794354
 43    -75.7654327282  -0.000003341749 0.00245878  0.00033424  0.0006568   0.000493016
 44    -75.7654381186  -0.000005390402 0.00051986  0.00007259  0.0001681   0.000127741
                          ***Energy convergence achieved***
 45    -75.7654390223  -0.000000903664 0.00009638  0.00001423  0.0001430   0.000122623
 46    -75.7654388628   0.000000159521 0.00143311  0.00020244  0.0001454   0.000120690
 47    -75.7654363493   0.000002513494 0.00611114  0.00085462  0.0001469   0.000119949
 48    -75.7654469389  -0.000010589672 0.01276548  0.00179585  0.0001535   0.000119519
 49    -75.7654690331  -0.000022094131 0.00472910  0.00066854  0.0001432   0.000124996
 50    -75.7654608318   0.000008201298 0.00161521  0.00023830  0.0001459   0.000119462
 51    -75.7654637767  -0.000002944943 0.00619884  0.00091576  0.0001536   0.000119134
 52    -75.7654524280   0.000011348672 0.00360771  0.00050934  0.0001393   0.000123117
 53    -75.7654461680   0.000006260019 0.00555804  0.00080959  0.0001487   0.000119005
 54    -75.7654361337   0.000010034300 0.00296328  0.00043195  0.0001456   0.000119126
 55    -75.7654414818  -0.000005348114 0.00264720  0.00038281  0.0001447   0.000119336
 56    -75.7654462188  -0.000004737011 0.00161841  0.00023793  0.0001375   0.000122824
 57    -75.7654491624  -0.000002943589 0.00082807  0.00012276  0.0001513   0.000119175
 58    -75.7654506681  -0.000001505709 0.00391063  0.00057140  0.0001510   0.000118643
 59    -75.7654435966   0.000007071524 0.01282481  0.00185267  0.0001475   0.000118952
               *** Restarting incremental Fock matrix formation ***
                             ****Resetting KDIIS****
 60    -75.7654209611   0.000022635558 0.00005762  0.00000756  0.0001467   0.000121078
                          ***Energy convergence achieved***
 61    -75.7654210546  -0.000000093496 0.00015914  0.00002152  0.0001456   0.000120082
 62    -75.7654213192  -0.000000264619 0.00080851  0.00011235  0.0001463   0.000119207
 63    -75.7654226961  -0.000001376942 0.00182125  0.00025274  0.0001459   0.000118478
 64    -75.7654257870  -0.000003090848 0.01277493  0.00177421  0.0001460   0.000117802
 65    -75.7654472875  -0.000021500558 0.00571611  0.00078647  0.0001470   0.000120095
 66    -75.7654567242  -0.000009436648 0.00364375  0.00050966  0.0001460   0.000117590
 67    -75.7654628346  -0.000006110441 0.00251715  0.00032602  0.0001468   0.000117282
 68    -75.7654590076   0.000003827046 0.00160699  0.00023541  0.0001503   0.000117424
 69    -75.7654618499  -0.000002842305 0.00307764  0.00043011  0.0001479   0.000117937
 70    -75.7654566888   0.000005161023 0.00136195  0.00018605  0.0001511   0.000116251
 71    -75.7654544619   0.000002226972 0.00514234  0.00072462  0.0001506   0.000116224
 72    -75.7654457188   0.000008743045 0.00172292  0.00024992  0.0001473   0.000116353
 73    -75.7654487637  -0.000003044868 0.00091877  0.00009039  0.0001456   0.000116447
                          ***Energy convergence achieved***
 74    -75.7654492889  -0.000000525160 0.00814152  0.00117158  0.0001409   0.000117260
 75    -75.7654350298   0.000014259051 0.00187631  0.00026870  0.0001510   0.000116801
 76    -75.7654382947  -0.000003264885 0.00511403  0.00073713  0.0001500   0.000116770
 77    -75.7654293613   0.000008933366 0.00447750  0.00053601  0.0001465   0.000117535
 78    -75.7654355720  -0.000006210662 0.00371327  0.00039710  0.0001571   0.000116483
 79    -75.7654396023  -0.000004030297 0.03860367  0.00498267  0.0001431   0.000120730
               *** Restarting incremental Fock matrix formation ***
                             ****Resetting KDIIS****
 80    -75.7653879512   0.000051651109 0.00004942  0.00000706  0.0001213   0.000144219
                          ***Energy convergence achieved***
 81    -75.7653880389  -0.000000087727 0.00014492  0.00002011  0.0001221   0.000135733
 82    -75.7653882759  -0.000000236949 0.00050912  0.00007013  0.0001174   0.000126046
 83    -75.7653890750  -0.000000799113 0.00070513  0.00009746  0.0001165   0.000113856
 84    -75.7653901589  -0.000001083909 0.00229501  0.00030521  0.0001250   0.000105184
 85    -75.7653935322  -0.000003373352 0.00106144  0.00014063  0.0001284   0.000106459
 86    -75.7653919836   0.000001548629 0.00520792  0.00068893  0.0001349   0.000104640
 87    -75.7653843686   0.000007614953 0.00005643  0.00000863  0.0001230   0.000108322
                          ***Energy convergence achieved***
 88    -75.7653844323  -0.000000063676 0.00248701  0.00032512  0.0001258   0.000107251
 89    -75.7653808496   0.000003582739 0.00355118  0.00046455  0.0001321   0.000103649
 90    -75.7653859778  -0.000005128179 0.00054171  0.00006891  0.0001250   0.000107900
                          ***Energy convergence achieved***
 91    -75.7653853150   0.000000662812 0.00278478  0.00036473  0.0001341   0.000102511
 92    -75.7653812805   0.000004034441 0.00550653  0.00071818  0.0001347   0.000102496
 93    -75.7653733291   0.000007951435 0.00859191  0.00111876  0.0001334   0.000102797
 94    -75.7653856069  -0.000012277873 0.00176132  0.00022848  0.0001378   0.000146331
 95    -75.7653876695  -0.000002062514 0.01074511  0.00147419  0.0001366   0.000124897
 96    -75.7654034163  -0.000015746808 0.01098821  0.00145277  0.0001919   0.000174867
 97    -75.7653874544   0.000015961908 0.00893823  0.00116408  0.0001368   0.000104153
 98    -75.7653746616   0.000012792788 0.00215604  0.00026553  0.0001258   0.000102246
 99    -75.7653719207   0.000002740896 0.04994647  0.00604067  0.0001275   0.000102079
               *** Restarting incremental Fock matrix formation ***
                             ****Resetting KDIIS****
100    -75.7653023899   0.000069530815 0.00006183  0.00000852  0.0003240   0.000241372
                          ***Energy convergence achieved***
101    -75.7653025331  -0.000000143240 0.00021780  0.00002831  0.0002956   0.000221076
102    -75.7653029533  -0.000000420194 0.00063601  0.00008245  0.0002404   0.000193614
103    -75.7653040967  -0.000001143386 0.00168767  0.00021819  0.0001466   0.000152555
104    -75.7653069555  -0.000002858787 0.00464859  0.00059966  0.0001526   0.000119250
105    -75.7653144723  -0.000007516796 0.01747673  0.00224270  0.0001613   0.000115111
106    -75.7653402167  -0.000025744432 0.02210166  0.00283559  0.0001781   0.000124783
107    -75.7653696579  -0.000029441190 0.02485514  0.00322603  0.0001416   0.000144398
108    -75.7654013064  -0.000031648532 0.00785539  0.00103030  0.0002370   0.000195958
109    -75.7654113876  -0.000010081157 0.03115334  0.00404756  0.0002582   0.000211361
110    -75.7653707590   0.000040628617 0.03409287  0.00437626  0.0006025   0.000449267
111    -75.7653250042   0.000045754711 0.01022319  0.00132217  0.0003821   0.000281585
112    -75.7653390605  -0.000014056266 0.00645652  0.00080775  0.0006713   0.000479334
113    -75.7653487218  -0.000009661247 0.05388775  0.00696788  0.0001742   0.000158739
114    -75.7654187324  -0.000070010601 0.00044329  0.00005787  0.0002075   0.000170696
                          ***Energy convergence achieved***
115    -75.7654181241   0.000000608267 0.00133074  0.00013610  0.0002072   0.000169906
116    -75.7654183095  -0.000000185441 0.02198906  0.00289528  0.0001650   0.000165069
117    -75.7653902917   0.000028017873 0.02371669  0.00312037  0.0001254   0.000102192
118    -75.7653597782   0.000030513482 0.00747210  0.00097092  0.0001163   0.000112328
119    -75.7653496831   0.000010095112 0.01606330  0.00207398  0.0001222   0.000123258
               *** Restarting incremental Fock matrix formation ***
                             ****Resetting KDIIS****
120    -75.7653263007   0.000023382372 0.00005542  0.00000837  0.0003457   0.000276470
                          ***Energy convergence achieved***
121    -75.7653264487  -0.000000147971 0.00015226  0.00002032  0.0003154   0.000250942
122    -75.7653267623  -0.000000313672 0.00052425  0.00006905  0.0002586   0.000211979
123    -75.7653276729  -0.000000910592 0.00106061  0.00013887  0.0001587   0.000155297
124    -75.7653293498  -0.000001676880 0.00170777  0.00021977  0.0001305   0.000109479
125    -75.7653318918  -0.000002541956 0.01095909  0.00139869  0.0001377   0.000107969
126    -75.7653474576  -0.000015565849 0.01220812  0.00155681  0.0001461   0.000110944
127    -75.7653640654  -0.000016607789 0.02550727  0.00329279  0.0001382   0.000109125
128    -75.7653979428  -0.000033877431 0.00220661  0.00028761  0.0001302   0.000147754
129    -75.7653949976   0.000002945245 0.04342300  0.00555505  0.0001238   0.000145663
130    -75.7653355733   0.000059424330 0.00298369  0.00036202  0.0005552   0.000413870
131    -75.7653399796  -0.000004406322 0.01231602  0.00156635  0.0004284   0.000313486
132    -75.7653220715   0.000017908128 0.00818126  0.00104303  0.0003272   0.000259607
133    -75.7653080707   0.000014000732 0.06912062  0.00882777  0.0006221   0.000487732
134    -75.7654061118  -0.000098041079 0.02638551  0.00352128  0.0001557   0.000149015
135    -75.7654424413  -0.000036329467 0.02587021  0.00344230  0.0003898   0.000315388
136    -75.7654058174   0.000036623856 0.00830554  0.00109210  0.0004631   0.000387679
137    -75.7653932546   0.000012562828 0.03014516  0.00383633  0.0007200   0.000532948
138    -75.7653524451   0.000040809470 0.00406664  0.00048077  0.0008033   0.000617640
139    -75.7653571431  -0.000004698001 0.08559378  0.01135701  0.0005241   0.000395103
               *** Restarting incremental Fock matrix formation ***
                             ****Resetting KDIIS****
140    -75.7654802464  -0.000123103319 0.00005978  0.00000891  0.0004058   0.000299866
                          ***Energy convergence achieved***
141    -75.7654804137  -0.000000167274 0.00018128  0.00002618  0.0003714   0.000274687
142    -75.7654808292  -0.000000415484 0.00055846  0.00007668  0.0003055   0.000234173
143    -75.7654819025  -0.000001073306 0.00092696  0.00012821  0.0001926   0.000171590
144    -75.7654835412  -0.000001638708 0.00092717  0.00013265  0.0001464   0.000119406
145    -75.7654851715  -0.000001630334 0.00357002  0.00051874  0.0001438   0.000120869
146    -75.7654788276   0.000006343989 0.01701971  0.00249602  0.0001478   0.000121215
147    -75.7654489225   0.000029905092 0.03203427  0.00445847  0.0001519   0.000118309
148    -75.7653970674   0.000051855018 0.01581217  0.00207915  0.0002258   0.000201619
149    -75.7653737351   0.000023332389 0.00616156  0.00080937  0.0002190   0.000195430
150    -75.7653830011  -0.000009266005 0.03410413  0.00428119  0.0001464   0.000144550
151    -75.7653345387   0.000048462329 0.06751828  0.00883175  0.0002407   0.000209387
152    -75.7654348139  -0.000100275215 0.02229420  0.00323484  0.0002648   0.000252198
153    -75.7654726386  -0.000037824628 0.07156458  0.00986584  0.0004865   0.000384682
154    -75.7653579059   0.000114732706 0.00528867  0.00076664  0.0007118   0.000502126
155    -75.7653408059   0.000017099939 0.02050782  0.00253953  0.0017216   0.001254117
156    -75.7653178115   0.000022994391 0.02575396  0.00305651  0.0013450   0.000943806
157    -75.7652811186   0.000036692977 0.17398766  0.02429551  0.0010599   0.000731331
158    -75.7655768789  -0.000295760335 0.04192612  0.00481403  0.0019708   0.001474860
159    -75.7656376062  -0.000060727281 0.21084765  0.03022220  0.0026265   0.001907938
               *** Restarting incremental Fock matrix formation ***
                             ****Resetting KDIIS****
160    -75.7652311870   0.000406419132 0.00024476  0.00004155  0.0032070   0.002289767
161    -75.7652365051  -0.000005318038 0.00043893  0.00007734  0.0029100   0.002042410
162    -75.7652444795  -0.000007974370 0.00115684  0.00020691  0.0023312   0.001677630
163    -75.7652579089  -0.000013429418 0.00251807  0.00049481  0.0013404   0.001020584
164    -75.7652720268  -0.000014117973 0.00098215  0.00015717  0.0002833   0.000182712
165    -75.7652744104  -0.000002383521 0.00056486  0.00007791  0.0001799   0.000145591
166    -75.7652755534  -0.000001143008 0.00259599  0.00033340  0.0001894   0.000138150
167    -75.7652804663  -0.000004912930 0.02179576  0.00279953  0.0001667   0.000156041
168    -75.7653172173  -0.000036751034 0.03863059  0.00492142  0.0001375   0.000125261
169    -75.7653687385  -0.000051521175 0.03728073  0.00482837  0.0001365   0.000165222
170    -75.7654146072  -0.000045868676 0.04672765  0.00602974  0.0002777   0.000235669
171    -75.7653552075   0.000059399638 0.01770930  0.00226303  0.0006246   0.000520446
172    -75.7653789927  -0.000023785155 0.00103820  0.00013062  0.0001983   0.000171924
173    -75.7653804285  -0.000001435780 0.01932529  0.00248903  0.0001552   0.000147203
174    -75.7653564708   0.000023957700 0.01659749  0.00217029  0.0001261   0.000121070
175    -75.7653344229   0.000022047889 0.02250210  0.00295691  0.0001310   0.000131461
176    -75.7653634826  -0.000029059751 0.01426715  0.00185084  0.0002051   0.000201286
177    -75.7653809315  -0.000017448889 0.00520839  0.00066905  0.0001716   0.000179282
178    -75.7653878683  -0.000006936799 0.00254500  0.00032808  0.0001376   0.000105738
179    -75.7653847082   0.000003160136 0.00060189  0.00007602  0.0001164   0.000108183
               *** Restarting incremental Fock matrix formation ***
                             ****Resetting KDIIS****
                          ***Energy convergence achieved***
180    -75.7653854798  -0.000000771619 0.00004837  0.00000624  0.0001165   0.000110034
181    -75.7653855494  -0.000000069628 0.00016034  0.00002078  0.0001133   0.000107211
182    -75.7653857766  -0.000000227200 0.00054074  0.00007025  0.0001138   0.000104526
183    -75.7653865369  -0.000000760274 0.00064635  0.00008425  0.0001171   0.000101320
184    -75.7653874406  -0.000000903641 0.00078743  0.00010198  0.0001275   0.000099755
185    -75.7653885333  -0.000001092782 0.02540941  0.00322517  0.0001284   0.000100169
186    -75.7653541060   0.000034427360 0.01314378  0.00162709  0.0001212   0.000119792
187    -75.7653363175   0.000017788526 0.01726313  0.00214107  0.0001323   0.000123777
188    -75.7653596137  -0.000023296271 0.01276315  0.00159693  0.0001453   0.000113799
189    -75.7653394564   0.000020157329 0.12201989  0.01676579  0.0010629   0.000763001
190    -75.7655283918  -0.000188935375 0.04138075  0.00506967  0.0018381   0.001291414
191    -75.7655894294  -0.000061037590 0.14983952  0.02150985  0.0025489   0.001833534
192    -75.7653443154   0.000245113923 0.07720705  0.00903609  0.0001698   0.000134496
193    -75.7652118175   0.000132497892 0.03778516  0.00431716  0.0005254   0.000368532
194    -75.7652757923  -0.000063974719 0.01789115  0.00210014  0.0020314   0.001369287
195    -75.7652991583  -0.000023366034 0.02891811  0.00354144  0.0022205   0.001580763
196    -75.7653455964  -0.000046438081 0.08906451  0.01199803  0.0016891   0.001199471
197    -75.7654828555  -0.000137259162 0.01628516  0.00225438  0.0015492   0.001051599
198    -75.7655090225  -0.000026166997 0.04224301  0.00612388  0.0018022   0.001222888
199    -75.7654401328   0.000068889788 0.04881865  0.00647470  0.0011928   0.000771962
               *** Restarting incremental Fock matrix formation ***
                             ****Resetting KDIIS****
200    -75.7653691758   0.000070956993 0.00007748  0.00001260  0.0010866   0.000717177
                          ***Energy convergence achieved***
201    -75.7653696882  -0.000000512415 0.00015741  0.00002852  0.0009889   0.000644577
202    -75.7653705738  -0.000000885605 0.00040719  0.00006780  0.0007980   0.000528382
203    -75.7653720537  -0.000001479900 0.00092701  0.00014476  0.0004810   0.000334335
204    -75.7653740576  -0.000002003904 0.00103230  0.00013988  0.0001478   0.000105538
205    -75.7653755604  -0.000001502797 0.00007806  0.00001164  0.0001237   0.000101873
                          ***Energy convergence achieved***
206    -75.7653754704   0.000000089976 0.00191062  0.00024305  0.0001291   0.000098632
207    -75.7653728842   0.000002586233 0.00022761  0.00002873  0.0001302   0.000098835
                          ***Energy convergence achieved***
208    -75.7653725846   0.000000299547 0.00149342  0.00019026  0.0001349   0.000098034
209    -75.7653705587   0.000002025901 0.02986082  0.00371114  0.0001270   0.000099130
210    -75.7653300997   0.000040459019 0.12909000  0.01742794  0.0001369   0.000120709
211    -75.7655244668  -0.000194367138 0.04911094  0.00710503  0.0014228   0.001051498
212    -75.7654447518   0.000079715021 0.03006485  0.00428514  0.0002155   0.000213132
213    -75.7654903210  -0.000045569206 0.00995867  0.00141273  0.0011263   0.000842501
214    -75.7654755236   0.000014797402 0.20131903  0.02467540  0.0007902   0.000594991
215    -75.7650923240   0.000383199577 0.30448247  0.04184204  0.0026759   0.001797764
216    -75.7656848593  -0.000592535264 0.07346423  0.00796761  0.0043708   0.002881946
217    -75.7656260747   0.000058784614 0.38024824  0.03681449  0.0013212   0.000944513
218    -75.7650680059   0.000558068846 0.21423586  0.02040177  0.0156051   0.009419351
219    -75.7657271409  -0.000659135072 0.05615228  0.00556577  0.0040785   0.002946645
               *** Restarting incremental Fock matrix formation ***
                             ****Resetting KDIIS****
220    -75.7657585233  -0.000031382419 0.00011725  0.00002000  0.0018722   0.001137439
221    -75.7657597913  -0.000001267924 0.00015461  0.00003159  0.0017021   0.001014700
222    -75.7657615725  -0.000001781230 0.00030347  0.00006768  0.0013754   0.000827894
223    -75.7657640527  -0.000002480171 0.00082149  0.00015540  0.0008299   0.000517503
224    -75.7657663993  -0.000002346629 0.00111540  0.00012329  0.0000986   0.000070509
                          ***Energy convergence achieved***
225    -75.7657671483  -0.000000748979 0.00067261  0.00006959  0.0000817   0.000062213
226    -75.7657675567  -0.000000408457 0.00532636  0.00054364  0.0000838   0.000060707
227    -75.7657705283  -0.000002971581 0.01029532  0.00105543  0.0000643   0.000053508
228    -75.7657751525  -0.000004624228 0.02030242  0.00205236  0.0000561   0.000053860
229    -75.7657798708  -0.000004718224 0.00427624  0.00042655  0.0000370   0.000029015
                          ***Energy convergence achieved***
230    -75.7657801316  -0.000000260819 0.00168454  0.00017018  0.0000219   0.000022244
231    -75.7657801711  -0.000000039564 0.00073924  0.00007394  0.0000099   0.000006451

            ***Energy convergence in two consecutive cycles with***
                    ***'reasonable' density convergence***
                       *** signaling convergence ***

                    *** KDIIS BlockDiag ( 0.000 sec) ***

               *****************************************************
               *                     SUCCESS                       *
               *           SCF CONVERGED AFTER 232 CYCLES          *
               *****************************************************

Setting up the final grid:

General Integration Accuracy     IntAcc      ...  4.670
Radial Grid Type                 RadialGrid  ... Gauss-Chebyshev
Angular Grid (max. acc.)         AngularGrid ... Lebedev-302
Angular grid pruning method      GridPruning ... 3 (G Style)
Weight generation scheme         WeightScheme... Becke
Basis function cutoff            BFCut       ...    1.0000e-10
Integration weight cutoff        WCut        ...    1.0000e-14
Grids for H and He will be reduced by one unit

# of grid points (after initial pruning)     ...  13000 (   0.0 sec)
# of grid points (after weights+screening)   ...  12980 (   0.0 sec)
nearest neighbour list constructed           ...    0.0 sec
Grid point re-assignment to atoms done       ...    0.0 sec
Grid point division into batches done        ...    0.0 sec
Reduced shell lists constructed in    0.1 sec

Total number of grid points                  ...    12980
Total number of batches                      ...      204
Average number of points per batch           ...       63
Average number of grid points per atom       ...     4327
Average number of shells per batch           ...     5.72 (57.22%)
Average number of basis functions per batch  ...    10.47 (58.18%)
Average number of large shells per batch     ...     4.38 (76.47%)
Average number of large basis fcns per batch ...     8.13 (77.64%)
Maximum spatial batch extension              ...  15.89, 16.13, 15.44 au
Average spatial batch extension              ...   3.85,  3.97,  3.85 au

Final grid set up in    0.1 sec
Final integration                            ... done (   0.3 sec)
Change in XC energy                          ...     0.000169717
Integrated number of electrons               ...     9.999965888
Previous integrated no of electrons          ...    10.002311641

----------------
TOTAL SCF ENERGY
----------------

Total Energy       :          -75.76561046 Eh           -2061.68707 eV

Components:
Nuclear Repulsion  :            2.21016534 Eh              60.14166 eV
Electronic Energy  :          -77.97577580 Eh           -2121.82873 eV
One Electron Energy:         -108.81181422 Eh           -2960.92000 eV
Two Electron Energy:           30.83603842 Eh             839.09126 eV

Virial components:
Potential Energy   :         -151.14714494 Eh           -4112.92291 eV
Kinetic Energy     :           75.38153448 Eh            2051.23584 eV
Virial Ratio       :            2.00509509


DFT components:
N(Alpha)           :        4.999982944190 electrons
N(Beta)            :        4.999982944190 electrons
N(Total)           :        9.999965888381 electrons
E(XC)              :       -6.179018088866 Eh       

---------------
SCF CONVERGENCE
---------------

  Last Energy change         ...   -4.1711e-09  Tolerance :   1.0000e-06
  Last MAX-Density change    ...    1.2139e-05  Tolerance :   1.0000e-05
  Last RMS-Density change    ...    1.4799e-06  Tolerance :   1.0000e-06
  Last DIIS Error            ...    1.6263e-06  Tolerance :   1.0000e-06

             **** THE GBW FILE WAS UPDATED (Scan_35.gbw) ****
             **** DENSITY FILE WAS UPDATED (Scan_35.scfp.tmp) ****
             **** ENERGY FILE WAS UPDATED (Scan_35.en.tmp) ****
----------------
ORBITAL ENERGIES
----------------

  NO   OCC          E(Eh)            E(eV) 
   0   2.0000     -19.350723      -526.5599 
   1   2.0000      -1.012803       -27.5598 
   2   2.0000      -0.419422       -11.4131 
   3   2.0000      -0.419191       -11.4068 
   4   2.0000      -0.284006        -7.7282 
   5   0.0000      -0.200045        -5.4435 
   6   0.0000      -0.139526        -3.7967 
   7   0.0000       0.835185        22.7265 
   8   0.0000       0.836529        22.7631 
   9   0.0000       0.981036        26.6954 
  10   0.0000       0.983335        26.7579 
  11   0.0000       0.984114        26.7791 
  12   0.0000       1.082270        29.4501 
  13   0.0000       1.862384        50.6780 
  14   0.0000       1.866182        50.7814 
  15   0.0000       1.866595        50.7926 
  16   0.0000       1.909001        51.9466 
  17   0.0000       1.909139        51.9503 

                    ********************************
                    * MULLIKEN POPULATION ANALYSIS *
                    ********************************

-----------------------
MULLIKEN ATOMIC CHARGES
-----------------------
   0 O :   -0.095164
   1 H :    0.052977
   2 H :    0.042187
Sum of atomic charges:   -0.0000000

--------------------------------
MULLIKEN REDUCED ORBITAL CHARGES
--------------------------------
  0 O s       :     3.999711  s :     3.999711
      pz      :     1.402706  p :     4.095209
      px      :     1.292320
      py      :     1.400183
      dz2     :     0.000001  d :     0.000244
      dxz     :     0.000083
      dyz     :     0.000072
      dx2y2   :     0.000003
      dxy     :     0.000084
  1 H s       :     0.947023  s :     0.947023
  2 H s       :     0.957813  s :     0.957813


                     *******************************
                     * LOEWDIN POPULATION ANALYSIS *
                     *******************************

----------------------
LOEWDIN ATOMIC CHARGES
----------------------
   0 O :   -0.095365
   1 H :    0.053063
   2 H :    0.042303

-------------------------------
LOEWDIN REDUCED ORBITAL CHARGES
-------------------------------
  0 O s       :     3.999711  s :     3.999711
      pz      :     1.402753  p :     4.095410
      px      :     1.292427
      py      :     1.400231
      dz2     :     0.000001  d :     0.000244
      dxz     :     0.000083
      dyz     :     0.000072
      dx2y2   :     0.000003
      dxy     :     0.000084
  1 H s       :     0.946937  s :     0.946937
  2 H s       :     0.957697  s :     0.957697


                      *****************************
                      * MAYER POPULATION ANALYSIS *
                      *****************************

  NA   - Mulliken gross atomic population
  ZA   - Total nuclear charge
  QA   - Mulliken gross atomic charge
  VA   - Mayer's total valence
  BVA  - Mayer's bonded valence
  FA   - Mayer's free valence

  ATOM       NA         ZA         QA         VA         BVA        FA
  0 O      8.0952     8.0000    -0.0952     0.1853     0.1853    -0.0000
  1 H      0.9470     1.0000     0.0530     0.9972     0.9972    -0.0000
  2 H      0.9578     1.0000     0.0422     0.9982     0.9982    -0.0000

  Mayer bond orders larger than 0.1
B(  1-H ,  2-H ) :   0.9051 

-------
TIMINGS
-------

Total SCF time: 0 days 0 hours 1 min 22 sec 

Total time                  ....      82.620 sec
Sum of individual times     ....      78.390 sec  ( 94.9%)

Fock matrix formation       ....      77.783 sec  ( 94.1%)
  XC integration            ....      20.515 sec  ( 26.4% of F)
    Basis function eval.    ....       2.035 sec  (  9.9% of XC)
    Density eval.           ....       0.804 sec  (  3.9% of XC)
    XC-Functional eval.     ....       4.228 sec  ( 20.6% of XC)
    XC-Potential eval.      ....       0.154 sec  (  0.8% of XC)
Diagonalization             ....       0.134 sec  (  0.2%)
Density matrix formation    ....       0.001 sec  (  0.0%)
Population analysis         ....       0.042 sec  (  0.1%)
Initial guess               ....       0.332 sec  (  0.4%)
Orbital Transformation      ....       0.000 sec  (  0.0%)
Orbital Orthonormalization  ....       0.000 sec  (  0.0%)
DIIS solution               ....       0.000 sec  (  0.0%)
Grid generation             ....       0.097 sec  (  0.1%)


-------------------------------------------------------------------------------
                          DFT DISPERSION CORRECTION                            
                                                                               
                              DFTD3 V3.1  Rev 1                                
                              USING zero damping                               
-------------------------------------------------------------------------------
The omegaB97X-D3 functional is recognized. Fit by Chai et al.
Active option DFTDOPT                   ...         3   

molecular C6(AA) [au] = 85.411150 


            DFT-D V3
 parameters
 s6 scaling factor         :     1.0000 
 rs6 scaling factor        :     1.2810 
 s8 scaling factor         :     1.0000 
 rs8 scaling factor        :     1.0940 
 Damping factor alpha6     :    14.0000 
 Damping factor alpha8     :    16.0000 
 ad hoc parameters k1-k3   :    16.0000     1.3333    -4.0000 

 Edisp/kcal,au: -0.088401472228  -0.000140876698 
 E6   /kcal   :  -0.068860789 
 E8   /kcal   :  -0.019540683 
 % E8         :  22.104477272 

-------------------------   ----------------
Dispersion correction           -0.000140877
-------------------------   ----------------


-------------------------   --------------------
FINAL SINGLE POINT ENERGY       -75.765751334528
-------------------------   --------------------


                            ***************************************
                            *     ORCA property calculations      *
                            ***************************************

                                    ---------------------
                                    Active property flags
                                    ---------------------
   (+) Dipole Moment


------------------------------------------------------------------------------
                       ORCA ELECTRIC PROPERTIES CALCULATION
------------------------------------------------------------------------------

Dipole Moment Calculation                       ... on
Quadrupole Moment Calculation                   ... off
Polarizability Calculation                      ... off
GBWName                                         ... Scan_35.gbw
Electron density file                           ... Scan_35.scfp.tmp

-------------
DIPOLE MOMENT
-------------
                                X             Y             Z
Electronic contribution:     -1.88278      -1.96652      -1.95948
Nuclear contribution   :      2.17074       2.17464       2.16685
                        -----------------------------------------
Total Dipole Moment    :      0.28796       0.20812       0.20737
                        -----------------------------------------
Magnitude (a.u.)       :      0.41138
Magnitude (Debye)      :      1.04566


Timings for individual modules:

Sum of individual times         ...       83.200 sec (=   1.387 min)
GTO integral calculation        ...        0.516 sec (=   0.009 min)   0.6 %
SCF iterations                  ...       82.684 sec (=   1.378 min)  99.4 %
                             ****ORCA TERMINATED NORMALLY****
TOTAL RUN TIME: 0 days 0 hours 1 minutes 23 seconds 805 msec
