
                                 *****************
                                 * O   R   C   A *
                                 *****************

           --- An Ab Initio, DFT and Semiempirical electronic structure package ---

                  #######################################################
                  #                        -***-                        #
                  #  Department of molecular theory and spectroscopy    #
                  #              Directorship: Frank Neese              #
                  # Max Planck Institute for Chemical Energy Conversion #
                  #                  D-45470 Muelheim/Ruhr              #
                  #                       Germany                       #
                  #                                                     #
                  #                  All rights reserved                #
                  #                        -***-                        #
                  #######################################################


                         Program Version 4.0.0.2 - RELEASE -


 With contributions from (in alphabetic order):
   Daniel Aravena         : Magnetic Properties
   Michael Atanasov       : Ab Initio Ligand Field Theory
   Ute Becker             : Parallelization
   Martin Brehm           : Molecular dynamics
   Dmytro Bykov           : SCF Hessian
   Vijay G. Chilkuri      : MRCI spin determinant printing
   Dipayan Datta          : RHF DLPNO-CCSD density
   Achintya Kumar Dutta   : EOM-CC, STEOM-CC
   Dmitry Ganyushin       : Spin-Orbit,Spin-Spin,Magnetic field MRCI
   Yang Guo               : DLPNO-NEVPT2, CIM, IAO-localization
   Andreas Hansen         : Spin unrestricted coupled pair/coupled cluster methods
   Lee Huntington         : MR-EOM, pCC
   Robert Izsak           : Overlap fitted RIJCOSX, COSX-SCS-MP3, EOM
   Christian Kollmar      : KDIIS, OOCD, Brueckner-CCSD(T), CCSD density
   Simone Kossmann        : Meta GGA functionals, TD-DFT gradient, OOMP2, MP2 Hessian
   Martin Krupicka        : AUTO-CI
   Dagmar Lenk            : GEPOL surface
   Dimitrios Liakos       : Extrapolation schemes; parallel MDCI
   Dimitrios Manganas     : ROCIS; embedding schemes
   Dimitrios Pantazis     : SARC Basis sets
   Taras Petrenko         : DFT Hessian,TD-DFT gradient, ASA, ECA, R-Raman, ABS, FL, XAS/XES, NRVS
   Peter Pinski           : DLPNO-MP2
   Christoph Reimann      : Effective Core Potentials
   Marius Retegan         : Local ZFS, SOC
   Christoph Riplinger    : Optimizer, TS searches, QM/MM, DLPNO-CCSD(T), (RO)-DLPNO pert. Triples
   Tobias Risthaus        : Range-separated hybrids, TD-DFT gradient, RPA, STAB
   Michael Roemelt        : Restricted open shell CIS
   Masaaki Saitow         : Open-shell DLPNO
   Barbara Sandhoefer     : DKH picture change effects
   Kantharuban Sivalingam : CASSCF convergence, NEVPT2, FIC-MRCI
   Georgi Stoychev        : AutoAux
   Boris Wezisla          : Elementary symmetry handling
   Frank Wennmohs         : Technical directorship


 We gratefully acknowledge several colleagues who have allowed us to
 interface, adapt or use parts of their codes:
   Stefan Grimme, W. Hujo, H. Kruse,             : VdW corrections, initial TS optimization,
                  C. Bannwarth                     DFT functionals, gCP, sTDA/sTD-DF
   Ed Valeev                                     : LibInt (2-el integral package), F12 methods
   Garnet Chan, S. Sharma, J. Yang, R. Olivares  : DMRG
   Ulf Ekstrom                                   : XCFun DFT Library
   Mihaly Kallay                                 : mrcc  (arbitrary order and MRCC methods)
   Jiri Pittner, Ondrej Demel                    : Mk-CCSD
   Frank Weinhold                                : gennbo (NPA and NBO analysis)
   Christopher J. Cramer and Donald G. Truhlar   : smd solvation model


 Your calculation uses the libint2 library for the computation of 2-el integrals
 For citations please refer to: http://libint.valeyev.net

 This ORCA versions uses:
   CBLAS   interface :  Fast vector & matrix operations
   LAPACKE interface :  Fast linear algebra routines
   SCALAPACK package :  Parallel linear algebra routines


Your calculation utilizes the atom-pairwise dispersion correction
with the zero-damping scheme (D30)
Cite in your paper:
S.Grimme, J.Antony, S.Ehrlich and H.Krieg, J.Chem.Phys., 132, (2010), 154104 
   

XCFun DFT library Copyright 2009-2010 Ulf Ekstrom and contributors.
See http://admol.org/xcfun for more information. This is free soft-
ware; see the source code for copying conditions. There is ABSOLUTELY
NO WARRANTY; not even for MERCHANTABILITY or FITNESS FOR A PARTICULAR
PURPOSE. For details see the documentation. Scientific users of this 
library should cite U. Ekstrom, L. Visscher, R. Bast, A. J. Thorvald-
sen and K. Ruud; J.Chem.Theor.Comp. 2010, DOI: 10.1021/ct100117s
XCFun Version 0.99 
Your calculation utilizes the basis: 6-31G(d)
   H-He, Li-Ne : W. J. Hehre, R. Ditchfield and J.A. Pople, J. Chem. Phys. 56, 2257 (1972).
                 Note: He and Ne are unpublished basis sets taken from the Gaussian program.
                 Note: Li and B from J. D. Dill and J. A. Pople, J. Chem. Phys. 62, 2921 (1975).
   Na - Ar     : M. M. Francl, W. J. Pietro, W. J. Hehre, J. S. Binkley, M. S. Gordon, 
                 D. J. DeFrees and J. A. Pople, J. Chem. Phys. 77, 3654 (1982).
   K - Zn      : V. A. Rassolov, J. A. Pople, M. A. Ratner, and T. L. Windus, J. Chem. Phys. 109, 1223 (1998).

================================================================================
                                        WARNINGS
                       Please study these warnings very carefully!
================================================================================

Warning: TCutStore was < 0. Adjusted to Thresh (uncritical)

INFO   : the flag for use of LIBINT has been found!

================================================================================
                                       INPUT FILE
================================================================================
NAME = initial36.inp
|  1> ! WB97X-D3 6-31G(d) VerySlowConv
|  2> ! KDIIS NOSOSCF
|  3> %base "Scan_36"
|  4> 
|  5> %scf
|  6> maxiter 999
|  7> end
|  8> 
|  9> * xyz 0 1
| 10> O         -0.770741656834    0.875977582698   -0.700409967454
| 11> H          3.307792762581    0.900518693810   -0.675962305408
| 12> H         -2.097611105747    3.608043723493    2.021882272862
| 13> **                         ****END OF INPUT****
================================================================================

                       ****************************
                       * Single Point Calculation *
                       ****************************

---------------------------------
CARTESIAN COORDINATES (ANGSTROEM)
---------------------------------
  O     -0.770742    0.875978   -0.700410
  H      3.307793    0.900519   -0.675962
  H     -2.097611    3.608044    2.021882

----------------------------
CARTESIAN COORDINATES (A.U.)
----------------------------
  NO LB      ZA    FRAG     MASS         X           Y           Z
   0 O     8.0000    0    15.999   -1.456491    1.655358   -1.323583
   1 H     1.0000    0     1.008    6.250822    1.701734   -1.277384
   2 H     1.0000    0     1.008   -3.963911    6.818215    3.820804

--------------------------------
INTERNAL COORDINATES (ANGSTROEM)
--------------------------------
 O      0   0   0     0.000000000000     0.00000000     0.00000000
 H      1   0   0     4.078681522829     0.00000000     0.00000000
 H      1   2   0     4.078681523951   108.49823538     0.00000000

---------------------------
INTERNAL COORDINATES (A.U.)
---------------------------
 O      0   0   0     0.000000000000     0.00000000     0.00000000
 H      1   0   0     7.707591065632     0.00000000     0.00000000
 H      1   2   0     7.707591067753   108.49823538     0.00000000

---------------------
BASIS SET INFORMATION
---------------------
There are 2 groups of distinct atoms

 Group   1 Type O   : 10s4p1d contracted to 3s2p1d pattern {631/31/1}
 Group   2 Type H   : 4s contracted to 2s pattern {31}

Atom   0O    basis set group =>   1
Atom   1H    basis set group =>   2
Atom   2H    basis set group =>   2
------------------------------------------------------------------------------
                           ORCA GTO INTEGRAL CALCULATION
------------------------------------------------------------------------------

                         BASIS SET STATISTICS AND STARTUP INFO

 # of primitive gaussian shells          ...   23
 # of primitive gaussian functions       ...   35
 # of contracted shells                  ...   10
 # of contracted basis functions         ...   18
 Highest angular momentum                ...    2
 Maximum contraction depth               ...    6
 Integral package used                   ... LIBINT
 Integral threshhold            Thresh   ...  1.000e-10
 Primitive cut-off              TCut     ...  1.000e-11


------------------------------ INTEGRAL EVALUATION ----------------------------


 * One electron integrals 
 Pre-screening matrix                    ... done
 Shell pair data                         ... done (   0.000 sec)

-------------------------------------------------------------------------------
                                 ORCA SCF
-------------------------------------------------------------------------------

------------
SCF SETTINGS
------------
Hamiltonian:
 Density Functional     Method          .... DFT(GTOs)
 Exchange Functional    Exchange        .... WB97X-D3
 Correlation Functional Correlation     .... WB97X-D3
 Gradients option       PostSCFGGA      .... off
 Hybrid DFT is turned on
   Fraction HF Exchange ScalHFX         ....  0.195728
   Scaling of DF-GGA-X  ScalDFX         ....  0.000000
   Scaling of DF-GGA-C  ScalDFC         ....  1.000000
   Scaling of DF-LDA-C  ScalLDAC        ....  1.000000
   Perturbative correction              ....  0.000000
 Long-range corrected/Screened/Range-Separated Hybrid DFT is turned on
   Amount of maximum screened exact exchange              ....  0.804272
   Range separation parameter mu (erf(mu*r12)/r12)        ....  0.250000


General Settings:
 Integral files         IntName         .... Scan_36
 Hartree-Fock type      HFTyp           .... RHF
 Total Charge           Charge          ....    0
 Multiplicity           Mult            ....    1
 Number of Electrons    NEL             ....   10
 Basis Dimension        Dim             ....   18
 Nuclear Repulsion      ENuc            ....      2.1558089246 Eh

Convergence Acceleration:
 DIIS                   CNVDIIS         .... on
   Start iteration      DIISMaxIt       ....     0
   Startup error        DIISStart       ....  0.200000
   # of expansion vecs  DIISMaxEq       ....     5
   Bias factor          DIISBfac        ....   1.050
   Max. coefficient     DIISMaxC        ....  10.000
 Newton-Raphson         CNVNR           .... off
 SOSCF                  CNVSOSCF        .... off
 Level Shifting         CNVShift        .... off
 Zerner damping         CNVZerner       .... off
 Static damping         CNVDamp         .... off
 Fernandez-Rico         CNVRico         .... off

SCF Procedure:
 Maximum # iterations   MaxIter         ....   999
 SCF integral mode      SCFMode         .... Direct
   Integral package                     .... LIBINT
 Reset frequeny         DirectResetFreq ....    20
 Integral Threshold     Thresh          ....  1.000e-10 Eh
 Primitive CutOff       TCut            ....  1.000e-11 Eh

Convergence Tolerance:
 Convergence Check Mode ConvCheckMode   .... All-Criteria
 Convergence forced     ConvForced      .... 0
 Energy Change          TolE            ....  1.000e-06 Eh
 Max Density Change     TolMaxP         ....  1.000e-05
 RMS Density Change     TolRMSP         ....  1.000e-06
 DIIS Error             TolErr          ....  1.000e-06


Diagonalization of the overlap matrix:
Smallest eigenvalue                        ... 2.332e-01
Time for diagonalization                   ...    0.000 sec
Threshold for overlap eigenvalues          ... 1.000e-08
Number of eigenvalues below threshold      ... 0
Time for construction of square roots      ...    0.009 sec
Total time needed                          ...    0.010 sec

-------------------
DFT GRID GENERATION
-------------------

General Integration Accuracy     IntAcc      ...  4.340
Radial Grid Type                 RadialGrid  ... Gauss-Chebyshev
Angular Grid (max. acc.)         AngularGrid ... Lebedev-110
Angular grid pruning method      GridPruning ... 3 (G Style)
Weight generation scheme         WeightScheme... Becke
Basis function cutoff            BFCut       ...    1.0000e-10
Integration weight cutoff        WCut        ...    1.0000e-14
Grids for H and He will be reduced by one unit

# of grid points (after initial pruning)     ...   3304 (   0.0 sec)
# of grid points (after weights+screening)   ...   3296 (   0.0 sec)
nearest neighbour list constructed           ...    0.0 sec
Grid point re-assignment to atoms done       ...    0.0 sec
Grid point division into batches done        ...    0.0 sec
Reduced shell lists constructed in    0.0 sec

Total number of grid points                  ...     3296
Total number of batches                      ...       53
Average number of points per batch           ...       62
Average number of grid points per atom       ...     1099
Average number of shells per batch           ...     6.65 (66.48%)
Average number of basis functions per batch  ...    12.31 (68.42%)
Average number of large shells per batch     ...     5.15 (77.44%)
Average number of large basis fcns per batch ...     9.74 (79.10%)
Maximum spatial batch extension              ...  17.31, 20.95, 25.65 au
Average spatial batch extension              ...   6.45,  6.09,  6.15 au

Time for grid setup =    0.017 sec

------------------------------
INITIAL GUESS: MODEL POTENTIAL
------------------------------
Loading Hartree-Fock densities                     ... done
Calculating cut-offs                               ... done
Setting up the integral package                    ... done
Initializing the effective Hamiltonian             ... done
Starting the Coulomb interaction                   ... done (   0.0 sec)
Reading the grid                                   ... done
Mapping shells                                     ... done
Starting the XC term evaluation                    ... done (   0.0 sec)
  promolecular density results
     # of electrons  =     10.000565941
     EX              =     -8.523329380
     EC              =     -0.275873789
     EX+EC           =     -8.799203169
Transforming the Hamiltonian                       ... done (   0.0 sec)
Diagonalizing the Hamiltonian                      ... done (   0.0 sec)
Back transforming the eigenvectors                 ... done (   0.0 sec)
Now organizing SCF variables                       ... done
                      ------------------
                      INITIAL GUESS DONE (   0.1 sec)
                      ------------------
--------------
SCF ITERATIONS
--------------
ITER       Energy         Delta-E        Max-DP      RMS-DP      [F,P]   Gradient Norm
               ***  Starting incremental Fock matrix formation  ***
                             ****Resetting KDIIS****
                             ****Turning on KDIIS(Cayley)****
  0    -74.5969452871   0.000000000000 0.08241354  0.01080951  0.3718768   0.322809901
  1    -74.7330198625  -0.136074575381 0.15320701  0.02121215  0.3111280   0.263646060
  2    -74.9211806288  -0.188160766307 0.10782508  0.01889490  0.1781300   0.150659723
  3    -75.0563212639  -0.135140635030 0.16155456  0.02822676  0.1163852   0.084948105
  4    -75.2785649223  -0.222243658431 0.18722834  0.02711764  0.1392464   0.139175757
  5    -75.4964855751  -0.217920652811 0.34900132  0.04498555  0.1269501   0.127122533
  6    -75.1552920034   0.341193571655 0.10618219  0.01960142  0.1242039   0.122613006
  7    -75.1624132429  -0.007121239467 0.33874537  0.04768359  0.1421792   0.138415807
  8    -75.6476311537  -0.485217910750 0.32119256  0.04751889  0.0954840   0.079728766
  9    -75.4581270249   0.189504128714 0.10093574  0.01424109  0.2642335   0.199398613
 10    -75.4942876077  -0.036160582730 0.09578237  0.01398071  0.2343399   0.153346942
 11    -75.6462934294  -0.152005821674 0.02375642  0.00280385  0.1443719   0.092508223
 12    -75.6668494996  -0.020556070256 0.07692631  0.01093641  0.1252042   0.079708919
 13    -75.7183823997  -0.051532900125 0.08605650  0.01443025  0.0411496   0.025690671
 14    -75.7273781161  -0.008995716407 0.06256489  0.01026366  0.0193642   0.019493800
 15    -75.7190348776   0.008343238587 0.25440514  0.03716075  0.0640413   0.035685142
 16    -75.7211269368  -0.002092059282 0.12296280  0.01830302  0.0245509   0.018580881
 17    -75.7274650424  -0.006338105596 0.10057168  0.01509252  0.0073220   0.005538569
 18    -75.7244742550   0.002990787420 0.03677077  0.00509485  0.0146049   0.007552131
 19    -75.7258514777  -0.001377222711 0.03834798  0.00456795  0.0031763   0.002011562
               *** Restarting incremental Fock matrix formation ***
                             ****Resetting KDIIS****
 20    -75.7252529823   0.000598495417 0.00125226  0.00018243  0.0043657   0.002912381
 21    -75.7253037056  -0.000050723332 0.00200774  0.00031954  0.0037450   0.002551588
 22    -75.7253743118  -0.000070606143 0.00400416  0.00054864  0.0037929   0.002200815
 23    -75.7254786968  -0.000104385004 0.00420787  0.00068570  0.0025503   0.001612170
 24    -75.7254571389   0.000021557871 0.01883978  0.00214284  0.0018508   0.001085490
 25    -75.7253073658   0.000149773098 0.00540939  0.00068484  0.0011971   0.000826566
 26    -75.7253542945  -0.000046928731 0.00365752  0.00041587  0.0010529   0.000708394
 27    -75.7253849072  -0.000030612649 0.04490896  0.00490130  0.0010720   0.000671134
 28    -75.7257092594  -0.000324352204 0.11464758  0.01251762  0.0009184   0.000576422
 29    -75.7260584900  -0.000349230607 0.03893467  0.00451891  0.0029422   0.001764544
 30    -75.7260356569   0.000022833085 0.03226422  0.00353708  0.0009866   0.000600041
 31    -75.7260855652  -0.000049908308 0.00694683  0.00105057  0.0009614   0.000608374
 32    -75.7260615054   0.000024059786 0.01526854  0.00167036  0.0026551   0.001914624
 33    -75.7260677269  -0.000006221489 0.01690311  0.00187947  0.0011760   0.000845705
 34    -75.7260837314  -0.000016004426 0.00697299  0.00076755  0.0001354   0.000137081
 35    -75.7260810596   0.000002671724 0.00399365  0.00045231  0.0000750   0.000063901
 36    -75.7260831762  -0.000002116546 0.00585915  0.00067641  0.0000742   0.000054713
 37    -75.7260848406  -0.000001664405 0.00086366  0.00011412  0.0000655   0.000036824
                          ***Energy convergence achieved***
 38    -75.7260850320  -0.000000191446 0.00045457  0.00006178  0.0000633   0.000034760
 39    -75.7260852375  -0.000000205505 0.00068235  0.00008885  0.0000610   0.000034503
               *** Restarting incremental Fock matrix formation ***
                             ****Resetting KDIIS****

            ***Energy convergence in two consecutive cycles with***
                    ***'reasonable' density convergence***
                       *** signaling convergence ***

                    *** KDIIS BlockDiag ( 0.000 sec) ***

               *****************************************************
               *                     SUCCESS                       *
               *           SCF CONVERGED AFTER  40 CYCLES          *
               *****************************************************

Setting up the final grid:

General Integration Accuracy     IntAcc      ...  4.670
Radial Grid Type                 RadialGrid  ... Gauss-Chebyshev
Angular Grid (max. acc.)         AngularGrid ... Lebedev-302
Angular grid pruning method      GridPruning ... 3 (G Style)
Weight generation scheme         WeightScheme... Becke
Basis function cutoff            BFCut       ...    1.0000e-10
Integration weight cutoff        WCut        ...    1.0000e-14
Grids for H and He will be reduced by one unit

# of grid points (after initial pruning)     ...  13000 (   0.0 sec)
# of grid points (after weights+screening)   ...  12980 (   0.0 sec)
nearest neighbour list constructed           ...    0.0 sec
Grid point re-assignment to atoms done       ...    0.0 sec
Grid point division into batches done        ...    0.0 sec
Reduced shell lists constructed in    0.1 sec

Total number of grid points                  ...    12980
Total number of batches                      ...      205
Average number of points per batch           ...       63
Average number of grid points per atom       ...     4327
Average number of shells per batch           ...     5.70 (56.99%)
Average number of basis functions per batch  ...    10.50 (58.36%)
Average number of large shells per batch     ...     4.33 (75.98%)
Average number of large basis fcns per batch ...     8.05 (76.62%)
Maximum spatial batch extension              ...  16.09, 16.30, 15.56 au
Average spatial batch extension              ...   3.96,  3.96,  3.97 au

Final grid set up in    0.1 sec
Final integration                            ... done (   0.1 sec)
Change in XC energy                          ...    -0.000150696
Integrated number of electrons               ...     9.999974366
Previous integrated no of electrons          ...    10.002100944

----------------
TOTAL SCF ENERGY
----------------

Total Energy       :          -75.72623620 Eh           -2060.61565 eV

Components:
Nuclear Repulsion  :            2.15580892 Eh              58.66254 eV
Electronic Energy  :          -77.88204513 Eh           -2119.27819 eV
One Electron Energy:         -108.99838311 Eh           -2965.99679 eV
Two Electron Energy:           31.11633798 Eh             846.71860 eV

Virial components:
Potential Energy   :         -151.05132561 Eh           -4110.31553 eV
Kinetic Energy     :           75.32508941 Eh            2049.69989 eV
Virial Ratio       :            2.00532554


DFT components:
N(Alpha)           :        4.999987182951 electrons
N(Beta)            :        4.999987182951 electrons
N(Total)           :        9.999974365903 electrons
E(XC)              :       -6.147168810504 Eh       

---------------
SCF CONVERGENCE
---------------

  Last Energy change         ...   -2.6947e-07  Tolerance :   1.0000e-06
  Last MAX-Density change    ...    1.7484e-05  Tolerance :   1.0000e-05
  Last RMS-Density change    ...    2.1246e-06  Tolerance :   1.0000e-06
  Last DIIS Error            ...    5.8744e-05  Tolerance :   1.0000e-06

             **** THE GBW FILE WAS UPDATED (Scan_36.gbw) ****
             **** DENSITY FILE WAS UPDATED (Scan_36.scfp.tmp) ****
             **** ENERGY FILE WAS UPDATED (Scan_36.en.tmp) ****
----------------
ORBITAL ENERGIES
----------------

  NO   OCC          E(Eh)            E(eV) 
   0   2.0000     -19.311354      -525.4886 
   1   2.0000      -0.979447       -26.6521 
   2   2.0000      -0.381994       -10.3946 
   3   2.0000      -0.320973        -8.7341 
   4   2.0000      -0.319707        -8.6997 
   5   0.0000      -0.187249        -5.0953 
   6   0.0000      -0.186534        -5.0759 
   7   0.0000       0.821046        22.3418 
   8   0.0000       0.821303        22.3488 
   9   0.0000       1.003596        27.3092 
  10   0.0000       1.004057        27.3218 
  11   0.0000       1.013523        27.5794 
  12   0.0000       1.108383        30.1606 
  13   0.0000       1.902576        51.7717 
  14   0.0000       1.902902        51.7806 
  15   0.0000       1.923596        52.3437 
  16   0.0000       1.923617        52.3443 
  17   0.0000       1.931575        52.5608 

                    ********************************
                    * MULLIKEN POPULATION ANALYSIS *
                    ********************************

-----------------------
MULLIKEN ATOMIC CHARGES
-----------------------
   0 O :   -0.199249
   1 H :    0.100009
   2 H :    0.099240
Sum of atomic charges:    0.0000000

--------------------------------
MULLIKEN REDUCED ORBITAL CHARGES
--------------------------------
  0 O s       :     3.999839  s :     3.999839
      pz      :     1.521039  p :     4.199294
      px      :     1.100568
      py      :     1.577687
      dz2     :     0.000008  d :     0.000116
      dxz     :     0.000001
      dyz     :     0.000074
      dx2y2   :     0.000031
      dxy     :     0.000001
  1 H s       :     0.899991  s :     0.899991
  2 H s       :     0.900760  s :     0.900760


                     *******************************
                     * LOEWDIN POPULATION ANALYSIS *
                     *******************************

----------------------
LOEWDIN ATOMIC CHARGES
----------------------
   0 O :   -0.199784
   1 H :    0.100276
   2 H :    0.099508

-------------------------------
LOEWDIN REDUCED ORBITAL CHARGES
-------------------------------
  0 O s       :     3.999834  s :     3.999834
      pz      :     1.521170  p :     4.199834
      px      :     1.100853
      py      :     1.577811
      dz2     :     0.000008  d :     0.000116
      dxz     :     0.000001
      dyz     :     0.000074
      dx2y2   :     0.000031
      dxy     :     0.000001
  1 H s       :     0.899724  s :     0.899724
  2 H s       :     0.900492  s :     0.900492


                      *****************************
                      * MAYER POPULATION ANALYSIS *
                      *****************************

  NA   - Mulliken gross atomic population
  ZA   - Total nuclear charge
  QA   - Mulliken gross atomic charge
  VA   - Mayer's total valence
  BVA  - Mayer's bonded valence
  FA   - Mayer's free valence

  ATOM       NA         ZA         QA         VA         BVA        FA
  0 O      8.1992     8.0000    -0.1992     1.9801     1.9801     0.0000
  1 H      0.9000     1.0000     0.1000     0.9900     0.9900    -0.0000
  2 H      0.9008     1.0000     0.0992     0.9902     0.9902     0.0000

  Mayer bond orders larger than 0.1
B(  0-O ,  1-H ) :   0.9900 B(  0-O ,  2-H ) :   0.9902 

-------
TIMINGS
-------

Total SCF time: 0 days 0 hours 0 min 7 sec 

Total time                  ....       7.517 sec
Sum of individual times     ....       7.131 sec  ( 94.9%)

Fock matrix formation       ....       6.916 sec  ( 92.0%)
  XC integration            ....       1.568 sec  ( 22.7% of F)
    Basis function eval.    ....       0.224 sec  ( 14.3% of XC)
    Density eval.           ....       0.059 sec  (  3.8% of XC)
    XC-Functional eval.     ....       0.455 sec  ( 29.0% of XC)
    XC-Potential eval.      ....       0.020 sec  (  1.3% of XC)
Diagonalization             ....       0.012 sec  (  0.2%)
Density matrix formation    ....       0.000 sec  (  0.0%)
Population analysis         ....       0.010 sec  (  0.1%)
Initial guess               ....       0.100 sec  (  1.3%)
Orbital Transformation      ....       0.000 sec  (  0.0%)
Orbital Orthonormalization  ....       0.000 sec  (  0.0%)
DIIS solution               ....       0.000 sec  (  0.0%)
Grid generation             ....       0.093 sec  (  1.2%)


-------------------------------------------------------------------------------
                          DFT DISPERSION CORRECTION                            
                                                                               
                              DFTD3 V3.1  Rev 1                                
                              USING zero damping                               
-------------------------------------------------------------------------------
The omegaB97X-D3 functional is recognized. Fit by Chai et al.
Active option DFTDOPT                   ...         3   

molecular C6(AA) [au] = 85.411175 


            DFT-D V3
 parameters
 s6 scaling factor         :     1.0000 
 rs6 scaling factor        :     1.2810 
 s8 scaling factor         :     1.0000 
 rs8 scaling factor        :     1.0940 
 Damping factor alpha6     :    14.0000 
 Damping factor alpha8     :    16.0000 
 ad hoc parameters k1-k3   :    16.0000     1.3333    -4.0000 

 Edisp/kcal,au: -0.075886501505  -0.000120932825 
 E6   /kcal   :  -0.059922715 
 E8   /kcal   :  -0.015963786 
 % E8         :  21.036397430 

-------------------------   ----------------
Dispersion correction           -0.000120933
-------------------------   ----------------


-------------------------   --------------------
FINAL SINGLE POINT ENERGY       -75.726357136166
-------------------------   --------------------


                            ***************************************
                            *     ORCA property calculations      *
                            ***************************************

                                    ---------------------
                                    Active property flags
                                    ---------------------
   (+) Dipole Moment


------------------------------------------------------------------------------
                       ORCA ELECTRIC PROPERTIES CALCULATION
------------------------------------------------------------------------------

Dipole Moment Calculation                       ... on
Quadrupole Moment Calculation                   ... off
Polarizability Calculation                      ... off
GBWName                                         ... Scan_36.gbw
Electron density file                           ... Scan_36.scfp.tmp

-------------
DIPOLE MOMENT
-------------
                                X             Y             Z
Electronic contribution:     -1.76599      -1.77472      -1.76818
Nuclear contribution   :      2.29038       2.29449       2.28628
                        -----------------------------------------
Total Dipole Moment    :      0.52439       0.51977       0.51810
                        -----------------------------------------
Magnitude (a.u.)       :      0.90198
Magnitude (Debye)      :      2.29265


Timings for individual modules:

Sum of individual times         ...        8.071 sec (=   0.135 min)
GTO integral calculation        ...        0.297 sec (=   0.005 min)   3.7 %
SCF iterations                  ...        7.773 sec (=   0.130 min)  96.3 %
                             ****ORCA TERMINATED NORMALLY****
TOTAL RUN TIME: 0 days 0 hours 0 minutes 8 seconds 398 msec
