
                                 *****************
                                 * O   R   C   A *
                                 *****************

           --- An Ab Initio, DFT and Semiempirical electronic structure package ---

                  #######################################################
                  #                        -***-                        #
                  #  Department of molecular theory and spectroscopy    #
                  #              Directorship: Frank Neese              #
                  # Max Planck Institute for Chemical Energy Conversion #
                  #                  D-45470 Muelheim/Ruhr              #
                  #                       Germany                       #
                  #                                                     #
                  #                  All rights reserved                #
                  #                        -***-                        #
                  #######################################################


                         Program Version 4.0.0.2 - RELEASE -


 With contributions from (in alphabetic order):
   Daniel Aravena         : Magnetic Properties
   Michael Atanasov       : Ab Initio Ligand Field Theory
   Ute Becker             : Parallelization
   Martin Brehm           : Molecular dynamics
   Dmytro Bykov           : SCF Hessian
   Vijay G. Chilkuri      : MRCI spin determinant printing
   Dipayan Datta          : RHF DLPNO-CCSD density
   Achintya Kumar Dutta   : EOM-CC, STEOM-CC
   Dmitry Ganyushin       : Spin-Orbit,Spin-Spin,Magnetic field MRCI
   Yang Guo               : DLPNO-NEVPT2, CIM, IAO-localization
   Andreas Hansen         : Spin unrestricted coupled pair/coupled cluster methods
   Lee Huntington         : MR-EOM, pCC
   Robert Izsak           : Overlap fitted RIJCOSX, COSX-SCS-MP3, EOM
   Christian Kollmar      : KDIIS, OOCD, Brueckner-CCSD(T), CCSD density
   Simone Kossmann        : Meta GGA functionals, TD-DFT gradient, OOMP2, MP2 Hessian
   Martin Krupicka        : AUTO-CI
   Dagmar Lenk            : GEPOL surface
   Dimitrios Liakos       : Extrapolation schemes; parallel MDCI
   Dimitrios Manganas     : ROCIS; embedding schemes
   Dimitrios Pantazis     : SARC Basis sets
   Taras Petrenko         : DFT Hessian,TD-DFT gradient, ASA, ECA, R-Raman, ABS, FL, XAS/XES, NRVS
   Peter Pinski           : DLPNO-MP2
   Christoph Reimann      : Effective Core Potentials
   Marius Retegan         : Local ZFS, SOC
   Christoph Riplinger    : Optimizer, TS searches, QM/MM, DLPNO-CCSD(T), (RO)-DLPNO pert. Triples
   Tobias Risthaus        : Range-separated hybrids, TD-DFT gradient, RPA, STAB
   Michael Roemelt        : Restricted open shell CIS
   Masaaki Saitow         : Open-shell DLPNO
   Barbara Sandhoefer     : DKH picture change effects
   Kantharuban Sivalingam : CASSCF convergence, NEVPT2, FIC-MRCI
   Georgi Stoychev        : AutoAux
   Boris Wezisla          : Elementary symmetry handling
   Frank Wennmohs         : Technical directorship


 We gratefully acknowledge several colleagues who have allowed us to
 interface, adapt or use parts of their codes:
   Stefan Grimme, W. Hujo, H. Kruse,             : VdW corrections, initial TS optimization,
                  C. Bannwarth                     DFT functionals, gCP, sTDA/sTD-DF
   Ed Valeev                                     : LibInt (2-el integral package), F12 methods
   Garnet Chan, S. Sharma, J. Yang, R. Olivares  : DMRG
   Ulf Ekstrom                                   : XCFun DFT Library
   Mihaly Kallay                                 : mrcc  (arbitrary order and MRCC methods)
   Jiri Pittner, Ondrej Demel                    : Mk-CCSD
   Frank Weinhold                                : gennbo (NPA and NBO analysis)
   Christopher J. Cramer and Donald G. Truhlar   : smd solvation model


 Your calculation uses the libint2 library for the computation of 2-el integrals
 For citations please refer to: http://libint.valeyev.net

 This ORCA versions uses:
   CBLAS   interface :  Fast vector & matrix operations
   LAPACKE interface :  Fast linear algebra routines
   SCALAPACK package :  Parallel linear algebra routines


Your calculation utilizes the atom-pairwise dispersion correction
with the zero-damping scheme (D30)
Cite in your paper:
S.Grimme, J.Antony, S.Ehrlich and H.Krieg, J.Chem.Phys., 132, (2010), 154104 
   

XCFun DFT library Copyright 2009-2010 Ulf Ekstrom and contributors.
See http://admol.org/xcfun for more information. This is free soft-
ware; see the source code for copying conditions. There is ABSOLUTELY
NO WARRANTY; not even for MERCHANTABILITY or FITNESS FOR A PARTICULAR
PURPOSE. For details see the documentation. Scientific users of this 
library should cite U. Ekstrom, L. Visscher, R. Bast, A. J. Thorvald-
sen and K. Ruud; J.Chem.Theor.Comp. 2010, DOI: 10.1021/ct100117s
XCFun Version 0.99 
Your calculation utilizes the basis: 6-31G(d)
   H-He, Li-Ne : W. J. Hehre, R. Ditchfield and J.A. Pople, J. Chem. Phys. 56, 2257 (1972).
                 Note: He and Ne are unpublished basis sets taken from the Gaussian program.
                 Note: Li and B from J. D. Dill and J. A. Pople, J. Chem. Phys. 62, 2921 (1975).
   Na - Ar     : M. M. Francl, W. J. Pietro, W. J. Hehre, J. S. Binkley, M. S. Gordon, 
                 D. J. DeFrees and J. A. Pople, J. Chem. Phys. 77, 3654 (1982).
   K - Zn      : V. A. Rassolov, J. A. Pople, M. A. Ratner, and T. L. Windus, J. Chem. Phys. 109, 1223 (1998).

================================================================================
                                        WARNINGS
                       Please study these warnings very carefully!
================================================================================

Warning: TCutStore was < 0. Adjusted to Thresh (uncritical)

INFO   : the flag for use of LIBINT has been found!

================================================================================
                                       INPUT FILE
================================================================================
NAME = initial38.inp
|  1> ! WB97X-D3 6-31G(d) VerySlowConv
|  2> ! KDIIS NOSOSCF
|  3> %base "Scan_38"
|  4> 
|  5> %scf
|  6> maxiter 999
|  7> end
|  8> 
|  9> * xyz 0 1
| 10> O         -0.865034378049    0.781515503898   -0.794533916710
| 11> H          3.413993714312    0.918169745388   -0.658374558680
| 12> H         -2.109519336263    3.684854750714    2.098418475390
| 13> **                         ****END OF INPUT****
================================================================================

                       ****************************
                       * Single Point Calculation *
                       ****************************

---------------------------------
CARTESIAN COORDINATES (ANGSTROEM)
---------------------------------
  O     -0.865034    0.781516   -0.794534
  H      3.413994    0.918170   -0.658375
  H     -2.109519    3.684855    2.098418

----------------------------
CARTESIAN COORDINATES (A.U.)
----------------------------
  NO LB      ZA    FRAG     MASS         X           Y           Z
   0 O     8.0000    0    15.999   -1.634678    1.476850   -1.501452
   1 H     1.0000    0     1.008    6.451513    1.735089   -1.244148
   2 H     1.0000    0     1.008   -3.986414    6.963366    3.965436

--------------------------------
INTERNAL COORDINATES (ANGSTROEM)
--------------------------------
 O      0   0   0     0.000000000000     0.00000000     0.00000000
 H      1   0   0     4.283374273597     0.00000000     0.00000000
 H      1   2   0     4.283374269928   104.30891463     0.00000000

---------------------------
INTERNAL COORDINATES (A.U.)
---------------------------
 O      0   0   0     0.000000000000     0.00000000     0.00000000
 H      1   0   0     8.094404306182     0.00000000     0.00000000
 H      1   2   0     8.094404299249   104.30891463     0.00000000

---------------------
BASIS SET INFORMATION
---------------------
There are 2 groups of distinct atoms

 Group   1 Type O   : 10s4p1d contracted to 3s2p1d pattern {631/31/1}
 Group   2 Type H   : 4s contracted to 2s pattern {31}

Atom   0O    basis set group =>   1
Atom   1H    basis set group =>   2
Atom   2H    basis set group =>   2
------------------------------------------------------------------------------
                           ORCA GTO INTEGRAL CALCULATION
------------------------------------------------------------------------------

                         BASIS SET STATISTICS AND STARTUP INFO

 # of primitive gaussian shells          ...   23
 # of primitive gaussian functions       ...   35
 # of contracted shells                  ...   10
 # of contracted basis functions         ...   18
 Highest angular momentum                ...    2
 Maximum contraction depth               ...    6
 Integral package used                   ... LIBINT
 Integral threshhold            Thresh   ...  1.000e-10
 Primitive cut-off              TCut     ...  1.000e-11


------------------------------ INTEGRAL EVALUATION ----------------------------


 * One electron integrals 
 Pre-screening matrix                    ... done
 Shell pair data                         ... done (   0.000 sec)

-------------------------------------------------------------------------------
                                 ORCA SCF
-------------------------------------------------------------------------------

------------
SCF SETTINGS
------------
Hamiltonian:
 Density Functional     Method          .... DFT(GTOs)
 Exchange Functional    Exchange        .... WB97X-D3
 Correlation Functional Correlation     .... WB97X-D3
 Gradients option       PostSCFGGA      .... off
 Hybrid DFT is turned on
   Fraction HF Exchange ScalHFX         ....  0.195728
   Scaling of DF-GGA-X  ScalDFX         ....  0.000000
   Scaling of DF-GGA-C  ScalDFC         ....  1.000000
   Scaling of DF-LDA-C  ScalLDAC        ....  1.000000
   Perturbative correction              ....  0.000000
 Long-range corrected/Screened/Range-Separated Hybrid DFT is turned on
   Amount of maximum screened exact exchange              ....  0.804272
   Range separation parameter mu (erf(mu*r12)/r12)        ....  0.250000


General Settings:
 Integral files         IntName         .... Scan_38
 Hartree-Fock type      HFTyp           .... RHF
 Total Charge           Charge          ....    0
 Multiplicity           Mult            ....    1
 Number of Electrons    NEL             ....   10
 Basis Dimension        Dim             ....   18
 Nuclear Repulsion      ENuc            ....      2.0548983224 Eh

Convergence Acceleration:
 DIIS                   CNVDIIS         .... on
   Start iteration      DIISMaxIt       ....     0
   Startup error        DIISStart       ....  0.200000
   # of expansion vecs  DIISMaxEq       ....     5
   Bias factor          DIISBfac        ....   1.050
   Max. coefficient     DIISMaxC        ....  10.000
 Newton-Raphson         CNVNR           .... off
 SOSCF                  CNVSOSCF        .... off
 Level Shifting         CNVShift        .... off
 Zerner damping         CNVZerner       .... off
 Static damping         CNVDamp         .... off
 Fernandez-Rico         CNVRico         .... off

SCF Procedure:
 Maximum # iterations   MaxIter         ....   999
 SCF integral mode      SCFMode         .... Direct
   Integral package                     .... LIBINT
 Reset frequeny         DirectResetFreq ....    20
 Integral Threshold     Thresh          ....  1.000e-10 Eh
 Primitive CutOff       TCut            ....  1.000e-11 Eh

Convergence Tolerance:
 Convergence Check Mode ConvCheckMode   .... All-Criteria
 Convergence forced     ConvForced      .... 0
 Energy Change          TolE            ....  1.000e-06 Eh
 Max Density Change     TolMaxP         ....  1.000e-05
 RMS Density Change     TolRMSP         ....  1.000e-06
 DIIS Error             TolErr          ....  1.000e-06


Diagonalization of the overlap matrix:
Smallest eigenvalue                        ... 2.333e-01
Time for diagonalization                   ...    0.000 sec
Threshold for overlap eigenvalues          ... 1.000e-08
Number of eigenvalues below threshold      ... 0
Time for construction of square roots      ...    0.005 sec
Total time needed                          ...    0.006 sec

-------------------
DFT GRID GENERATION
-------------------

General Integration Accuracy     IntAcc      ...  4.340
Radial Grid Type                 RadialGrid  ... Gauss-Chebyshev
Angular Grid (max. acc.)         AngularGrid ... Lebedev-110
Angular grid pruning method      GridPruning ... 3 (G Style)
Weight generation scheme         WeightScheme... Becke
Basis function cutoff            BFCut       ...    1.0000e-10
Integration weight cutoff        WCut        ...    1.0000e-14
Grids for H and He will be reduced by one unit

# of grid points (after initial pruning)     ...   3304 (   0.0 sec)
# of grid points (after weights+screening)   ...   3297 (   0.0 sec)
nearest neighbour list constructed           ...    0.0 sec
Grid point re-assignment to atoms done       ...    0.0 sec
Grid point division into batches done        ...    0.0 sec
Reduced shell lists constructed in    0.0 sec

Total number of grid points                  ...     3297
Total number of batches                      ...       53
Average number of points per batch           ...       62
Average number of grid points per atom       ...     1099
Average number of shells per batch           ...     6.44 (64.44%)
Average number of basis functions per batch  ...    12.00 (66.67%)
Average number of large shells per batch     ...     4.87 (75.57%)
Average number of large basis fcns per batch ...     9.17 (76.39%)
Maximum spatial batch extension              ...  17.31, 20.95, 25.65 au
Average spatial batch extension              ...   6.54,  6.11,  6.25 au

Time for grid setup =    0.016 sec

------------------------------
INITIAL GUESS: MODEL POTENTIAL
------------------------------
Loading Hartree-Fock densities                     ... done
Calculating cut-offs                               ... done
Setting up the integral package                    ... done
Initializing the effective Hamiltonian             ... done
Starting the Coulomb interaction                   ... done (   0.0 sec)
Reading the grid                                   ... done
Mapping shells                                     ... done
Starting the XC term evaluation                    ... done (   0.0 sec)
  promolecular density results
     # of electrons  =     10.000467395
     EX              =     -8.523190955
     EC              =     -0.275860811
     EX+EC           =     -8.799051766
Transforming the Hamiltonian                       ... done (   0.0 sec)
Diagonalizing the Hamiltonian                      ... done (   0.0 sec)
Back transforming the eigenvectors                 ... done (   0.0 sec)
Now organizing SCF variables                       ... done
                      ------------------
                      INITIAL GUESS DONE (   0.1 sec)
                      ------------------
--------------
SCF ITERATIONS
--------------
ITER       Energy         Delta-E        Max-DP      RMS-DP      [F,P]   Gradient Norm
               ***  Starting incremental Fock matrix formation  ***
                             ****Resetting KDIIS****
                             ****Turning on KDIIS(Cayley)****
  0    -74.5725930619   0.000000000000 0.06039273  0.00895190  0.3722573   0.322824722
  1    -74.6867573021  -0.114164240208 0.14372275  0.01903735  0.3191575   0.273462001
  2    -74.8780828069  -0.191325504786 0.13181385  0.02083649  0.1864231   0.162338286
  3    -75.0074489235  -0.129366116644 0.15425360  0.01859921  0.0965618   0.071272436
  4    -75.0920791804  -0.084630256910 0.09766171  0.01687101  0.1394585   0.113843249
  5    -75.0238772391   0.068201941352 0.07818823  0.01168078  0.1019696   0.074001659
  6    -74.9898259281   0.034051310951 0.19576854  0.02974888  0.1105253   0.101660654
  7    -75.1760786596  -0.186252731453 0.08545949  0.01203023  0.1552424   0.140500464
  8    -75.3049864224  -0.128907762785 0.24119852  0.03540329  0.1768640   0.130340712
  9    -75.6523232959  -0.347336873567 0.14534163  0.02394503  0.1328055   0.103433913
 10    -75.6029634746   0.049359821322 0.55272539  0.07930817  0.1559592   0.108335811
 11    -74.9996743153   0.603289159293 0.32391317  0.04773448  0.3320560   0.206328843
 12    -75.6840076812  -0.684333365844 0.19167217  0.01997637  0.0868516   0.052061788
 13    -75.7153380012  -0.031330320054 0.02303133  0.00311159  0.0263966   0.014695932
 14    -75.7171591177  -0.001821116511 0.05609109  0.00523496  0.0075563   0.005936531
 15    -75.7158015741   0.001357543631 0.02433831  0.00242536  0.0198223   0.012011139
 16    -75.7173123974  -0.001510823323 0.02566826  0.00266494  0.0081530   0.005371151
 17    -75.7175686931  -0.000256295704 0.01206742  0.00107276  0.0078562   0.004129744
 18    -75.7176898300  -0.000121136907 0.00900875  0.00110355  0.0022285   0.001883372
 19    -75.7177047979  -0.000014967915 0.00505053  0.00069992  0.0032392   0.002818180
               *** Restarting incremental Fock matrix formation ***
                             ****Resetting KDIIS****
 20    -75.7178262835  -0.000121485586 0.00094254  0.00011818  0.0025100   0.002015963
 21    -75.7178501437  -0.000023860178 0.00205499  0.00021637  0.0025608   0.001779399
 22    -75.7178946381  -0.000044494386 0.01986398  0.00205521  0.0026587   0.001781610
 23    -75.7175502771   0.000344361032 0.03160350  0.00325191  0.0017364   0.001112757
 24    -75.7173430300   0.000207247036 0.00098835  0.00013550  0.0003896   0.000388300
 25    -75.7173453818  -0.000002351769 0.00094896  0.00010591  0.0001983   0.000155244
 26    -75.7173470311  -0.000001649353 0.00433821  0.00047536  0.0002022   0.000146023
 27    -75.7173541151  -0.000007083996 0.01235431  0.00134970  0.0001818   0.000123122
 28    -75.7173702882  -0.000016173082 0.02672456  0.00293253  0.0001274   0.000105937
 29    -75.7173851185  -0.000014830316 0.00008405  0.00001412  0.0000982   0.000071232
                          ***Energy convergence achieved***
 30    -75.7173851537  -0.000000035137 0.00031450  0.00003741  0.0000266   0.000026814

            ***Energy convergence in two consecutive cycles with***
                    ***'reasonable' density convergence***
                       *** signaling convergence ***

                    *** KDIIS BlockDiag ( 0.000 sec) ***

               *****************************************************
               *                     SUCCESS                       *
               *           SCF CONVERGED AFTER  31 CYCLES          *
               *****************************************************

Setting up the final grid:

General Integration Accuracy     IntAcc      ...  4.670
Radial Grid Type                 RadialGrid  ... Gauss-Chebyshev
Angular Grid (max. acc.)         AngularGrid ... Lebedev-302
Angular grid pruning method      GridPruning ... 3 (G Style)
Weight generation scheme         WeightScheme... Becke
Basis function cutoff            BFCut       ...    1.0000e-10
Integration weight cutoff        WCut        ...    1.0000e-14
Grids for H and He will be reduced by one unit

# of grid points (after initial pruning)     ...  13000 (   0.0 sec)
# of grid points (after weights+screening)   ...  12983 (   0.0 sec)
nearest neighbour list constructed           ...    0.0 sec
Grid point re-assignment to atoms done       ...    0.0 sec
Grid point division into batches done        ...    0.0 sec
Reduced shell lists constructed in    0.1 sec

Total number of grid points                  ...    12983
Total number of batches                      ...      205
Average number of points per batch           ...       63
Average number of grid points per atom       ...     4328
Average number of shells per batch           ...     5.49 (54.85%)
Average number of basis functions per batch  ...    10.17 (56.47%)
Average number of large shells per batch     ...     4.17 (76.11%)
Average number of large basis fcns per batch ...     7.73 (76.03%)
Maximum spatial batch extension              ...  17.51, 15.98, 15.98 au
Average spatial batch extension              ...   4.12,  4.06,  3.99 au

Final grid set up in    0.1 sec
Final integration                            ... done (   0.1 sec)
Change in XC energy                          ...    -0.000216884
Integrated number of electrons               ...     9.999984561
Previous integrated no of electrons          ...    10.001670460

----------------
TOTAL SCF ENERGY
----------------

Total Energy       :          -75.71760205 Eh           -2060.38070 eV

Components:
Nuclear Repulsion  :            2.05489832 Eh              55.91663 eV
Electronic Energy  :          -77.77250037 Eh           -2116.29733 eV
One Electron Energy:         -108.79682624 Eh           -2960.51215 eV
Two Electron Energy:           31.02432586 Eh             844.21483 eV

Virial components:
Potential Energy   :         -151.05379288 Eh           -4110.38267 eV
Kinetic Energy     :           75.33619083 Eh            2050.00197 eV
Virial Ratio       :            2.00506279


DFT components:
N(Alpha)           :        4.999992280415 electrons
N(Beta)            :        4.999992280415 electrons
N(Total)           :        9.999984560831 electrons
E(XC)              :       -6.148346725901 Eh       

---------------
SCF CONVERGENCE
---------------

  Last Energy change         ...   -1.5178e-08  Tolerance :   1.0000e-06
  Last MAX-Density change    ...    3.2484e-05  Tolerance :   1.0000e-05
  Last RMS-Density change    ...    4.4432e-06  Tolerance :   1.0000e-06
  Last DIIS Error            ...    1.6093e-05  Tolerance :   1.0000e-06

             **** THE GBW FILE WAS UPDATED (Scan_38.gbw) ****
             **** DENSITY FILE WAS UPDATED (Scan_38.scfp.tmp) ****
             **** ENERGY FILE WAS UPDATED (Scan_38.en.tmp) ****
----------------
ORBITAL ENERGIES
----------------

  NO   OCC          E(Eh)            E(eV) 
   0   2.0000     -19.310450      -525.4641 
   1   2.0000      -0.979038       -26.6410 
   2   2.0000      -0.381621       -10.3844 
   3   2.0000      -0.316961        -8.6249 
   4   2.0000      -0.316199        -8.6042 
   5   0.0000      -0.190521        -5.1843 
   6   0.0000      -0.190112        -5.1732 
   7   0.0000       0.821687        22.3592 
   8   0.0000       0.821762        22.3613 
   9   0.0000       1.003553        27.3081 
  10   0.0000       1.003943        27.3187 
  11   0.0000       1.013942        27.5908 
  12   0.0000       1.108566        30.1656 
  13   0.0000       1.902922        51.7811 
  14   0.0000       1.903101        51.7860 
  15   0.0000       1.923827        52.3500 
  16   0.0000       1.923849        52.3506 
  17   0.0000       1.931861        52.5686 

                    ********************************
                    * MULLIKEN POPULATION ANALYSIS *
                    ********************************

-----------------------
MULLIKEN ATOMIC CHARGES
-----------------------
   0 O :   -0.195952
   1 H :    0.098262
   2 H :    0.097690
Sum of atomic charges:   -0.0000000

--------------------------------
MULLIKEN REDUCED ORBITAL CHARGES
--------------------------------
  0 O s       :     3.999848  s :     3.999848
      pz      :     1.538808  p :     4.195995
      px      :     1.098639
      py      :     1.558548
      dz2     :     0.000008  d :     0.000109
      dxz     :     0.000001
      dyz     :     0.000072
      dx2y2   :     0.000026
      dxy     :     0.000001
  1 H s       :     0.901738  s :     0.901738
  2 H s       :     0.902310  s :     0.902310


                     *******************************
                     * LOEWDIN POPULATION ANALYSIS *
                     *******************************

----------------------
LOEWDIN ATOMIC CHARGES
----------------------
   0 O :   -0.196255
   1 H :    0.098414
   2 H :    0.097842

-------------------------------
LOEWDIN REDUCED ORBITAL CHARGES
-------------------------------
  0 O s       :     3.999846  s :     3.999846
      pz      :     1.538882  p :     4.196301
      px      :     1.098798
      py      :     1.558621
      dz2     :     0.000008  d :     0.000109
      dxz     :     0.000001
      dyz     :     0.000072
      dx2y2   :     0.000026
      dxy     :     0.000001
  1 H s       :     0.901586  s :     0.901586
  2 H s       :     0.902158  s :     0.902158


                      *****************************
                      * MAYER POPULATION ANALYSIS *
                      *****************************

  NA   - Mulliken gross atomic population
  ZA   - Total nuclear charge
  QA   - Mulliken gross atomic charge
  VA   - Mayer's total valence
  BVA  - Mayer's bonded valence
  FA   - Mayer's free valence

  ATOM       NA         ZA         QA         VA         BVA        FA
  0 O      8.1960     8.0000    -0.1960     1.9808     1.9808    -0.0000
  1 H      0.9017     1.0000     0.0983     0.9903     0.9903    -0.0000
  2 H      0.9023     1.0000     0.0977     0.9905     0.9905     0.0000

  Mayer bond orders larger than 0.1
B(  0-O ,  1-H ) :   0.9903 B(  0-O ,  2-H ) :   0.9905 

-------
TIMINGS
-------

Total SCF time: 0 days 0 hours 0 min 6 sec 

Total time                  ....       6.083 sec
Sum of individual times     ....       5.743 sec  ( 94.4%)

Fock matrix formation       ....       5.530 sec  ( 90.9%)
  XC integration            ....       1.214 sec  ( 22.0% of F)
    Basis function eval.    ....       0.173 sec  ( 14.2% of XC)
    Density eval.           ....       0.046 sec  (  3.8% of XC)
    XC-Functional eval.     ....       0.363 sec  ( 29.9% of XC)
    XC-Potential eval.      ....       0.015 sec  (  1.3% of XC)
Diagonalization             ....       0.009 sec  (  0.2%)
Density matrix formation    ....       0.000 sec  (  0.0%)
Population analysis         ....       0.010 sec  (  0.2%)
Initial guess               ....       0.099 sec  (  1.6%)
Orbital Transformation      ....       0.000 sec  (  0.0%)
Orbital Orthonormalization  ....       0.000 sec  (  0.0%)
DIIS solution               ....       0.000 sec  (  0.0%)
Grid generation             ....       0.094 sec  (  1.5%)


-------------------------------------------------------------------------------
                          DFT DISPERSION CORRECTION                            
                                                                               
                              DFTD3 V3.1  Rev 1                                
                              USING zero damping                               
-------------------------------------------------------------------------------
The omegaB97X-D3 functional is recognized. Fit by Chai et al.
Active option DFTDOPT                   ...         3   

molecular C6(AA) [au] = 85.411213 


            DFT-D V3
 parameters
 s6 scaling factor         :     1.0000 
 rs6 scaling factor        :     1.2810 
 s8 scaling factor         :     1.0000 
 rs8 scaling factor        :     1.0940 
 Damping factor alpha6     :    14.0000 
 Damping factor alpha8     :    16.0000 
 ad hoc parameters k1-k3   :    16.0000     1.3333    -4.0000 

 Edisp/kcal,au: -0.056265952513  -0.000089665493 
 E6   /kcal   :  -0.045454501 
 E8   /kcal   :  -0.010811452 
 % E8         :  19.214908954 

-------------------------   ----------------
Dispersion correction           -0.000089665
-------------------------   ----------------


-------------------------   --------------------
FINAL SINGLE POINT ENERGY       -75.717691718044
-------------------------   --------------------


                            ***************************************
                            *     ORCA property calculations      *
                            ***************************************

                                    ---------------------
                                    Active property flags
                                    ---------------------
   (+) Dipole Moment


------------------------------------------------------------------------------
                       ORCA ELECTRIC PROPERTIES CALCULATION
------------------------------------------------------------------------------

Dipole Moment Calculation                       ... on
Quadrupole Moment Calculation                   ... off
Polarizability Calculation                      ... off
GBWName                                         ... Scan_38.gbw
Electron density file                           ... Scan_38.scfp.tmp

-------------
DIPOLE MOMENT
-------------
                                X             Y             Z
Electronic contribution:     -1.95946      -1.96725      -1.96013
Nuclear contribution   :      2.52583       2.53037       2.52131
                        -----------------------------------------
Total Dipole Moment    :      0.56638       0.56312       0.56119
                        -----------------------------------------
Magnitude (a.u.)       :      0.97613
Magnitude (Debye)      :      2.48111


Timings for individual modules:

Sum of individual times         ...        6.412 sec (=   0.107 min)
GTO integral calculation        ...        0.293 sec (=   0.005 min)   4.6 %
SCF iterations                  ...        6.119 sec (=   0.102 min)  95.4 %
                             ****ORCA TERMINATED NORMALLY****
TOTAL RUN TIME: 0 days 0 hours 0 minutes 6 seconds 739 msec
