
                                 *****************
                                 * O   R   C   A *
                                 *****************

           --- An Ab Initio, DFT and Semiempirical electronic structure package ---

                  #######################################################
                  #                        -***-                        #
                  #  Department of molecular theory and spectroscopy    #
                  #              Directorship: Frank Neese              #
                  # Max Planck Institute for Chemical Energy Conversion #
                  #                  D-45470 Muelheim/Ruhr              #
                  #                       Germany                       #
                  #                                                     #
                  #                  All rights reserved                #
                  #                        -***-                        #
                  #######################################################


                         Program Version 4.0.0.2 - RELEASE -


 With contributions from (in alphabetic order):
   Daniel Aravena         : Magnetic Properties
   Michael Atanasov       : Ab Initio Ligand Field Theory
   Ute Becker             : Parallelization
   Martin Brehm           : Molecular dynamics
   Dmytro Bykov           : SCF Hessian
   Vijay G. Chilkuri      : MRCI spin determinant printing
   Dipayan Datta          : RHF DLPNO-CCSD density
   Achintya Kumar Dutta   : EOM-CC, STEOM-CC
   Dmitry Ganyushin       : Spin-Orbit,Spin-Spin,Magnetic field MRCI
   Yang Guo               : DLPNO-NEVPT2, CIM, IAO-localization
   Andreas Hansen         : Spin unrestricted coupled pair/coupled cluster methods
   Lee Huntington         : MR-EOM, pCC
   Robert Izsak           : Overlap fitted RIJCOSX, COSX-SCS-MP3, EOM
   Christian Kollmar      : KDIIS, OOCD, Brueckner-CCSD(T), CCSD density
   Simone Kossmann        : Meta GGA functionals, TD-DFT gradient, OOMP2, MP2 Hessian
   Martin Krupicka        : AUTO-CI
   Dagmar Lenk            : GEPOL surface
   Dimitrios Liakos       : Extrapolation schemes; parallel MDCI
   Dimitrios Manganas     : ROCIS; embedding schemes
   Dimitrios Pantazis     : SARC Basis sets
   Taras Petrenko         : DFT Hessian,TD-DFT gradient, ASA, ECA, R-Raman, ABS, FL, XAS/XES, NRVS
   Peter Pinski           : DLPNO-MP2
   Christoph Reimann      : Effective Core Potentials
   Marius Retegan         : Local ZFS, SOC
   Christoph Riplinger    : Optimizer, TS searches, QM/MM, DLPNO-CCSD(T), (RO)-DLPNO pert. Triples
   Tobias Risthaus        : Range-separated hybrids, TD-DFT gradient, RPA, STAB
   Michael Roemelt        : Restricted open shell CIS
   Masaaki Saitow         : Open-shell DLPNO
   Barbara Sandhoefer     : DKH picture change effects
   Kantharuban Sivalingam : CASSCF convergence, NEVPT2, FIC-MRCI
   Georgi Stoychev        : AutoAux
   Boris Wezisla          : Elementary symmetry handling
   Frank Wennmohs         : Technical directorship


 We gratefully acknowledge several colleagues who have allowed us to
 interface, adapt or use parts of their codes:
   Stefan Grimme, W. Hujo, H. Kruse,             : VdW corrections, initial TS optimization,
                  C. Bannwarth                     DFT functionals, gCP, sTDA/sTD-DF
   Ed Valeev                                     : LibInt (2-el integral package), F12 methods
   Garnet Chan, S. Sharma, J. Yang, R. Olivares  : DMRG
   Ulf Ekstrom                                   : XCFun DFT Library
   Mihaly Kallay                                 : mrcc  (arbitrary order and MRCC methods)
   Jiri Pittner, Ondrej Demel                    : Mk-CCSD
   Frank Weinhold                                : gennbo (NPA and NBO analysis)
   Christopher J. Cramer and Donald G. Truhlar   : smd solvation model


 Your calculation uses the libint2 library for the computation of 2-el integrals
 For citations please refer to: http://libint.valeyev.net

 This ORCA versions uses:
   CBLAS   interface :  Fast vector & matrix operations
   LAPACKE interface :  Fast linear algebra routines
   SCALAPACK package :  Parallel linear algebra routines


Your calculation utilizes the atom-pairwise dispersion correction
with the zero-damping scheme (D30)
Cite in your paper:
S.Grimme, J.Antony, S.Ehrlich and H.Krieg, J.Chem.Phys., 132, (2010), 154104 
   

XCFun DFT library Copyright 2009-2010 Ulf Ekstrom and contributors.
See http://admol.org/xcfun for more information. This is free soft-
ware; see the source code for copying conditions. There is ABSOLUTELY
NO WARRANTY; not even for MERCHANTABILITY or FITNESS FOR A PARTICULAR
PURPOSE. For details see the documentation. Scientific users of this 
library should cite U. Ekstrom, L. Visscher, R. Bast, A. J. Thorvald-
sen and K. Ruud; J.Chem.Theor.Comp. 2010, DOI: 10.1021/ct100117s
XCFun Version 0.99 
Your calculation utilizes the basis: 6-31G(d)
   H-He, Li-Ne : W. J. Hehre, R. Ditchfield and J.A. Pople, J. Chem. Phys. 56, 2257 (1972).
                 Note: He and Ne are unpublished basis sets taken from the Gaussian program.
                 Note: Li and B from J. D. Dill and J. A. Pople, J. Chem. Phys. 62, 2921 (1975).
   Na - Ar     : M. M. Francl, W. J. Pietro, W. J. Hehre, J. S. Binkley, M. S. Gordon, 
                 D. J. DeFrees and J. A. Pople, J. Chem. Phys. 77, 3654 (1982).
   K - Zn      : V. A. Rassolov, J. A. Pople, M. A. Ratner, and T. L. Windus, J. Chem. Phys. 109, 1223 (1998).

================================================================================
                                        WARNINGS
                       Please study these warnings very carefully!
================================================================================

Warning: TCutStore was < 0. Adjusted to Thresh (uncritical)

INFO   : the flag for use of LIBINT has been found!

================================================================================
                                       INPUT FILE
================================================================================
NAME = initial4.inp
|  1> ! WB97X-D3 6-31G(d) VerySlowConv
|  2> ! KDIIS NOSOSCF
|  3> %base "Scan_4"
|  4> 
|  5> %scf
|  6> maxiter 999
|  7> end
|  8> 
|  9> * xyz 0 1
| 10> O         -0.049758995972    1.598255281146    0.019282318613
| 11> H          0.841720186082    1.594049104865    0.015089960445
| 12> H         -0.352521190111    2.192235613989    0.611137720942
| 13> **                         ****END OF INPUT****
================================================================================

                       ****************************
                       * Single Point Calculation *
                       ****************************

---------------------------------
CARTESIAN COORDINATES (ANGSTROEM)
---------------------------------
  O     -0.049759    1.598255    0.019282
  H      0.841720    1.594049    0.015090
  H     -0.352521    2.192236    0.611138

----------------------------
CARTESIAN COORDINATES (A.U.)
----------------------------
  NO LB      ZA    FRAG     MASS         X           Y           Z
   0 O     8.0000    0    15.999   -0.094031    3.020265    0.036438
   1 H     1.0000    0     1.008    1.590621    3.012316    0.028516
   2 H     1.0000    0     1.008   -0.666169    4.142725    1.154883

--------------------------------
INTERNAL COORDINATES (ANGSTROEM)
--------------------------------
 O      0   0   0     0.000000000000     0.00000000     0.00000000
 H      1   0   0     0.891498962322     0.00000000     0.00000000
 H      1   2   0     0.891498962013   110.23480612     0.00000000

---------------------------
INTERNAL COORDINATES (A.U.)
---------------------------
 O      0   0   0     0.000000000000     0.00000000     0.00000000
 H      1   0   0     1.684688887464     0.00000000     0.00000000
 H      1   2   0     1.684688886880   110.23480612     0.00000000

---------------------
BASIS SET INFORMATION
---------------------
There are 2 groups of distinct atoms

 Group   1 Type O   : 10s4p1d contracted to 3s2p1d pattern {631/31/1}
 Group   2 Type H   : 4s contracted to 2s pattern {31}

Atom   0O    basis set group =>   1
Atom   1H    basis set group =>   2
Atom   2H    basis set group =>   2
------------------------------------------------------------------------------
                           ORCA GTO INTEGRAL CALCULATION
------------------------------------------------------------------------------

                         BASIS SET STATISTICS AND STARTUP INFO

 # of primitive gaussian shells          ...   23
 # of primitive gaussian functions       ...   35
 # of contracted shells                  ...   10
 # of contracted basis functions         ...   18
 Highest angular momentum                ...    2
 Maximum contraction depth               ...    6
 Integral package used                   ... LIBINT
 Integral threshhold            Thresh   ...  1.000e-10
 Primitive cut-off              TCut     ...  1.000e-11


------------------------------ INTEGRAL EVALUATION ----------------------------


 * One electron integrals 
 Pre-screening matrix                    ... done
 Shell pair data                         ... done (   0.000 sec)

-------------------------------------------------------------------------------
                                 ORCA SCF
-------------------------------------------------------------------------------

------------
SCF SETTINGS
------------
Hamiltonian:
 Density Functional     Method          .... DFT(GTOs)
 Exchange Functional    Exchange        .... WB97X-D3
 Correlation Functional Correlation     .... WB97X-D3
 Gradients option       PostSCFGGA      .... off
 Hybrid DFT is turned on
   Fraction HF Exchange ScalHFX         ....  0.195728
   Scaling of DF-GGA-X  ScalDFX         ....  0.000000
   Scaling of DF-GGA-C  ScalDFC         ....  1.000000
   Scaling of DF-LDA-C  ScalLDAC        ....  1.000000
   Perturbative correction              ....  0.000000
 Long-range corrected/Screened/Range-Separated Hybrid DFT is turned on
   Amount of maximum screened exact exchange              ....  0.804272
   Range separation parameter mu (erf(mu*r12)/r12)        ....  0.250000


General Settings:
 Integral files         IntName         .... Scan_4
 Hartree-Fock type      HFTyp           .... RHF
 Total Charge           Charge          ....    0
 Multiplicity           Mult            ....    1
 Number of Electrons    NEL             ....   10
 Basis Dimension        Dim             ....   18
 Nuclear Repulsion      ENuc            ....      9.8590987250 Eh

Convergence Acceleration:
 DIIS                   CNVDIIS         .... on
   Start iteration      DIISMaxIt       ....     0
   Startup error        DIISStart       ....  0.200000
   # of expansion vecs  DIISMaxEq       ....     5
   Bias factor          DIISBfac        ....   1.050
   Max. coefficient     DIISMaxC        ....  10.000
 Newton-Raphson         CNVNR           .... off
 SOSCF                  CNVSOSCF        .... off
 Level Shifting         CNVShift        .... off
 Zerner damping         CNVZerner       .... off
 Static damping         CNVDamp         .... off
 Fernandez-Rico         CNVRico         .... off

SCF Procedure:
 Maximum # iterations   MaxIter         ....   999
 SCF integral mode      SCFMode         .... Direct
   Integral package                     .... LIBINT
 Reset frequeny         DirectResetFreq ....    20
 Integral Threshold     Thresh          ....  1.000e-10 Eh
 Primitive CutOff       TCut            ....  1.000e-11 Eh

Convergence Tolerance:
 Convergence Check Mode ConvCheckMode   .... All-Criteria
 Convergence forced     ConvForced      .... 0
 Energy Change          TolE            ....  1.000e-06 Eh
 Max Density Change     TolMaxP         ....  1.000e-05
 RMS Density Change     TolRMSP         ....  1.000e-06
 DIIS Error             TolErr          ....  1.000e-06


Diagonalization of the overlap matrix:
Smallest eigenvalue                        ... 5.395e-02
Time for diagonalization                   ...    0.001 sec
Threshold for overlap eigenvalues          ... 1.000e-08
Number of eigenvalues below threshold      ... 0
Time for construction of square roots      ...    0.021 sec
Total time needed                          ...    0.021 sec

-------------------
DFT GRID GENERATION
-------------------

General Integration Accuracy     IntAcc      ...  4.340
Radial Grid Type                 RadialGrid  ... Gauss-Chebyshev
Angular Grid (max. acc.)         AngularGrid ... Lebedev-110
Angular grid pruning method      GridPruning ... 3 (G Style)
Weight generation scheme         WeightScheme... Becke
Basis function cutoff            BFCut       ...    1.0000e-10
Integration weight cutoff        WCut        ...    1.0000e-14
Grids for H and He will be reduced by one unit

# of grid points (after initial pruning)     ...   3304 (   0.0 sec)
# of grid points (after weights+screening)   ...   3270 (   0.0 sec)
nearest neighbour list constructed           ...    0.0 sec
Grid point re-assignment to atoms done       ...    0.0 sec
Grid point division into batches done        ...    0.0 sec
Reduced shell lists constructed in    0.0 sec

Total number of grid points                  ...     3270
Total number of batches                      ...       52
Average number of points per batch           ...       62
Average number of grid points per atom       ...     1090
Average number of shells per batch           ...     9.32 (93.21%)
Average number of basis functions per batch  ...    16.87 (93.71%)
Average number of large shells per batch     ...     8.79 (94.33%)
Average number of large basis fcns per batch ...    16.08 (95.30%)
Maximum spatial batch extension              ...  18.71, 21.65, 25.65 au
Average spatial batch extension              ...   4.87,  5.86,  5.42 au

Time for grid setup =    0.031 sec

------------------------------
INITIAL GUESS: MODEL POTENTIAL
------------------------------
Loading Hartree-Fock densities                     ... done
Calculating cut-offs                               ... done
Setting up the integral package                    ... done
Initializing the effective Hamiltonian             ... done
Starting the Coulomb interaction                   ... done (   0.0 sec)
Reading the grid                                   ... done
Mapping shells                                     ... done
Starting the XC term evaluation                    ... done (   0.0 sec)
  promolecular density results
     # of electrons  =     10.002765400
     EX              =     -8.762294839
     EC              =     -0.318710501
     EX+EC           =     -9.081005340
Transforming the Hamiltonian                       ... done (   0.0 sec)
Diagonalizing the Hamiltonian                      ... done (   0.0 sec)
Back transforming the eigenvectors                 ... done (   0.0 sec)
Now organizing SCF variables                       ... done
                      ------------------
                      INITIAL GUESS DONE (   0.2 sec)
                      ------------------
--------------
SCF ITERATIONS
--------------
ITER       Energy         Delta-E        Max-DP      RMS-DP      [F,P]   Gradient Norm
               ***  Starting incremental Fock matrix formation  ***
                             ****Resetting KDIIS****
                             ****Turning on KDIIS(Cayley)****
  0    -76.2779201018   0.000000000000 0.03491816  0.00438298  0.1777019   0.163293485
  1    -76.3133594177  -0.035439315941 0.02593583  0.00313676  0.1419876   0.129719022
  2    -76.3340178189  -0.020658401180 0.04126473  0.00499703  0.1148516   0.105062392
  3    -76.3582564048  -0.024238585918 0.06135930  0.00758870  0.0706636   0.065144075
Warning: badly conditioned DIIS matrix, 1 vectors out of 5 destroyed
  4    -76.3734939700  -0.015237565186 0.00820686  0.00143803  0.0065063   0.004789182
  5    -76.3731196085   0.000374361526 0.02416625  0.00399124  0.0106284   0.008062807
  6    -76.3736741785  -0.000554570050 0.00229495  0.00035305  0.0017620   0.001427493
  7    -76.3736885810  -0.000014402494 0.00162144  0.00027957  0.0008273   0.000648837
  8    -76.3736923417  -0.000003760618 0.00002186  0.00000225  0.0000070   0.000006680
Warning: badly conditioned DIIS matrix, 1 vectors out of 5 destroyed
                          ***Energy convergence achieved***
                           ***RMSP convergence achieved***
                           ***MAXP convergence achieved***
                    *** KDIIS BlockDiag ( 0.000 sec) ***

               *****************************************************
               *                     SUCCESS                       *
               *           SCF CONVERGED AFTER   9 CYCLES          *
               *****************************************************

Setting up the final grid:

General Integration Accuracy     IntAcc      ...  4.670
Radial Grid Type                 RadialGrid  ... Gauss-Chebyshev
Angular Grid (max. acc.)         AngularGrid ... Lebedev-302
Angular grid pruning method      GridPruning ... 3 (G Style)
Weight generation scheme         WeightScheme... Becke
Basis function cutoff            BFCut       ...    1.0000e-10
Integration weight cutoff        WCut        ...    1.0000e-14
Grids for H and He will be reduced by one unit

# of grid points (after initial pruning)     ...  13000 (   0.0 sec)
# of grid points (after weights+screening)   ...  12881 (   0.0 sec)
nearest neighbour list constructed           ...    0.0 sec
Grid point re-assignment to atoms done       ...    0.0 sec
Grid point division into batches done        ...    0.0 sec
Reduced shell lists constructed in    0.1 sec

Total number of grid points                  ...    12881
Total number of batches                      ...      203
Average number of points per batch           ...       63
Average number of grid points per atom       ...     4294
Average number of shells per batch           ...     8.44 (84.36%)
Average number of basis functions per batch  ...    15.30 (84.99%)
Average number of large shells per batch     ...     7.95 (94.19%)
Average number of large basis fcns per batch ...    14.55 (95.13%)
Maximum spatial batch extension              ...  16.36, 16.88, 16.88 au
Average spatial batch extension              ...   3.18,  3.44,  3.44 au

Final grid set up in    0.2 sec
Final integration                            ... done (   0.4 sec)
Change in XC energy                          ...    -0.000608388
Integrated number of electrons               ...    10.000001782
Previous integrated no of electrons          ...     9.998724074

----------------
TOTAL SCF ENERGY
----------------

Total Energy       :          -76.37430073 Eh           -2078.25038 eV

Components:
Nuclear Repulsion  :            9.85909872 Eh             268.27972 eV
Electronic Energy  :          -86.23339946 Eh           -2346.53009 eV
One Electron Energy:         -124.30017896 Eh           -3382.37983 eV
Two Electron Energy:           38.06677951 Eh            1035.84973 eV

Virial components:
Potential Energy   :         -152.65451417 Eh           -4153.94051 eV
Kinetic Energy     :           76.28021344 Eh            2075.69013 eV
Virial Ratio       :            2.00123344


DFT components:
N(Alpha)           :        5.000000891019 electrons
N(Beta)            :        5.000000891019 electrons
N(Total)           :       10.000001782037 electrons
E(XC)              :       -6.553671180100 Eh       

---------------
SCF CONVERGENCE
---------------

  Last Energy change         ...   -2.1679e-10  Tolerance :   1.0000e-06
  Last MAX-Density change    ...    2.5608e-06  Tolerance :   1.0000e-05
  Last RMS-Density change    ...    3.0697e-07  Tolerance :   1.0000e-06
  Last DIIS Error            ...    1.7102e-06  Tolerance :   1.0000e-06

             **** THE GBW FILE WAS UPDATED (Scan_4.gbw) ****
             **** DENSITY FILE WAS UPDATED (Scan_4.scfp.tmp) ****
             **** ENERGY FILE WAS UPDATED (Scan_4.en.tmp) ****
----------------
ORBITAL ENERGIES
----------------

  NO   OCC          E(Eh)            E(eV) 
   0   2.0000     -19.218729      -522.9682 
   1   2.0000      -1.140980       -31.0477 
   2   2.0000      -0.660891       -17.9838 
   3   2.0000      -0.465879       -12.6772 
   4   2.0000      -0.396120       -10.7790 
   5   0.0000       0.191993         5.2244 
   6   0.0000       0.280919         7.6442 
   7   0.0000       0.945296        25.7228 
   8   0.0000       1.000553        27.2264 
   9   0.0000       1.014746        27.6126 
  10   0.0000       1.037288        28.2260 
  11   0.0000       1.205473        32.8026 
  12   0.0000       1.494857        40.6771 
  13   0.0000       1.822312        49.5876 
  14   0.0000       1.833296        49.8865 
  15   0.0000       1.876402        51.0595 
  16   0.0000       2.495689        67.9111 
  17   0.0000       2.820520        76.7502 

                    ********************************
                    * MULLIKEN POPULATION ANALYSIS *
                    ********************************

-----------------------
MULLIKEN ATOMIC CHARGES
-----------------------
   0 O :   -0.832170
   1 H :    0.415956
   2 H :    0.416213
Sum of atomic charges:    0.0000000

--------------------------------
MULLIKEN REDUCED ORBITAL CHARGES
--------------------------------
  0 O s       :     3.830805  s :     3.830805
      pz      :     1.776083  p :     4.974702
      px      :     1.424126
      py      :     1.774493
      dz2     :     0.004638  d :     0.026662
      dxz     :     0.001625
      dyz     :     0.008645
      dx2y2   :     0.010125
      dxy     :     0.001630
  1 H s       :     0.584044  s :     0.584044
  2 H s       :     0.583787  s :     0.583787


                     *******************************
                     * LOEWDIN POPULATION ANALYSIS *
                     *******************************

----------------------
LOEWDIN ATOMIC CHARGES
----------------------
   0 O :   -0.613913
   1 H :    0.306859
   2 H :    0.307053

-------------------------------
LOEWDIN REDUCED ORBITAL CHARGES
-------------------------------
  0 O s       :     3.554394  s :     3.554394
      pz      :     1.787633  p :     5.022080
      px      :     1.448320
      py      :     1.786127
      dz2     :     0.006266  d :     0.037439
      dxz     :     0.002418
      dyz     :     0.011284
      dx2y2   :     0.015043
      dxy     :     0.002428
  1 H s       :     0.693141  s :     0.693141
  2 H s       :     0.692947  s :     0.692947


                      *****************************
                      * MAYER POPULATION ANALYSIS *
                      *****************************

  NA   - Mulliken gross atomic population
  ZA   - Total nuclear charge
  QA   - Mulliken gross atomic charge
  VA   - Mayer's total valence
  BVA  - Mayer's bonded valence
  FA   - Mayer's free valence

  ATOM       NA         ZA         QA         VA         BVA        FA
  0 O      8.8322     8.0000    -0.8322     1.5938     1.5938     0.0000
  1 H      0.5840     1.0000     0.4160     0.7913     0.7913    -0.0000
  2 H      0.5838     1.0000     0.4162     0.7910     0.7910     0.0000

  Mayer bond orders larger than 0.1
B(  0-O ,  1-H ) :   0.7970 B(  0-O ,  2-H ) :   0.7968 

-------
TIMINGS
-------

Total SCF time: 0 days 0 hours 0 min 8 sec 

Total time                  ....       8.992 sec
Sum of individual times     ....       8.570 sec  ( 95.3%)

Fock matrix formation       ....       7.996 sec  ( 88.9%)
  XC integration            ....       1.822 sec  ( 22.8% of F)
    Basis function eval.    ....       0.230 sec  ( 12.6% of XC)
    Density eval.           ....       0.211 sec  ( 11.6% of XC)
    XC-Functional eval.     ....       0.436 sec  ( 23.9% of XC)
    XC-Potential eval.      ....       0.012 sec  (  0.7% of XC)
Diagonalization             ....       0.108 sec  (  1.2%)
Density matrix formation    ....       0.000 sec  (  0.0%)
Population analysis         ....       0.055 sec  (  0.6%)
Initial guess               ....       0.223 sec  (  2.5%)
Orbital Transformation      ....       0.000 sec  (  0.0%)
Orbital Orthonormalization  ....       0.000 sec  (  0.0%)
DIIS solution               ....       0.000 sec  (  0.0%)
Grid generation             ....       0.187 sec  (  2.1%)


-------------------------------------------------------------------------------
                          DFT DISPERSION CORRECTION                            
                                                                               
                              DFTD3 V3.1  Rev 1                                
                              USING zero damping                               
-------------------------------------------------------------------------------
The omegaB97X-D3 functional is recognized. Fit by Chai et al.
Active option DFTDOPT                   ...         3   

molecular C6(AA) [au] = 44.507850 


            DFT-D V3
 parameters
 s6 scaling factor         :     1.0000 
 rs6 scaling factor        :     1.2810 
 s8 scaling factor         :     1.0000 
 rs8 scaling factor        :     1.0940 
 Damping factor alpha6     :    14.0000 
 Damping factor alpha8     :    16.0000 
 ad hoc parameters k1-k3   :    16.0000     1.3333    -4.0000 

 Edisp/kcal,au: -0.000581692456  -0.000000926986 
 E6   /kcal   :  -0.000089299 
 E8   /kcal   :  -0.000492394 
 % E8         :  84.648469454 

-------------------------   ----------------
Dispersion correction           -0.000000927
-------------------------   ----------------


-------------------------   --------------------
FINAL SINGLE POINT ENERGY       -76.374301657301
-------------------------   --------------------


                            ***************************************
                            *     ORCA property calculations      *
                            ***************************************

                                    ---------------------
                                    Active property flags
                                    ---------------------
   (+) Dipole Moment


------------------------------------------------------------------------------
                       ORCA ELECTRIC PROPERTIES CALCULATION
------------------------------------------------------------------------------

Dipole Moment Calculation                       ... on
Quadrupole Moment Calculation                   ... off
Polarizability Calculation                      ... off
GBWName                                         ... Scan_4.gbw
Electron density file                           ... Scan_4.scfp.tmp

-------------
DIPOLE MOMENT
-------------
                                X             Y             Z
Electronic contribution:     -0.03867      -0.03880      -0.03866
Nuclear contribution   :      0.49002       0.49090       0.48915
                        -----------------------------------------
Total Dipole Moment    :      0.45135       0.45211       0.45049
                        -----------------------------------------
Magnitude (a.u.)       :      0.78171
Magnitude (Debye)      :      1.98694


Timings for individual modules:

Sum of individual times         ...       10.218 sec (=   0.170 min)
GTO integral calculation        ...        0.948 sec (=   0.016 min)   9.3 %
SCF iterations                  ...        9.270 sec (=   0.154 min)  90.7 %
                             ****ORCA TERMINATED NORMALLY****
TOTAL RUN TIME: 0 days 0 hours 0 minutes 11 seconds 801 msec
