
                                 *****************
                                 * O   R   C   A *
                                 *****************

           --- An Ab Initio, DFT and Semiempirical electronic structure package ---

                  #######################################################
                  #                        -***-                        #
                  #  Department of molecular theory and spectroscopy    #
                  #              Directorship: Frank Neese              #
                  # Max Planck Institute for Chemical Energy Conversion #
                  #                  D-45470 Muelheim/Ruhr              #
                  #                       Germany                       #
                  #                                                     #
                  #                  All rights reserved                #
                  #                        -***-                        #
                  #######################################################


                         Program Version 4.0.0.2 - RELEASE -


 With contributions from (in alphabetic order):
   Daniel Aravena         : Magnetic Properties
   Michael Atanasov       : Ab Initio Ligand Field Theory
   Ute Becker             : Parallelization
   Martin Brehm           : Molecular dynamics
   Dmytro Bykov           : SCF Hessian
   Vijay G. Chilkuri      : MRCI spin determinant printing
   Dipayan Datta          : RHF DLPNO-CCSD density
   Achintya Kumar Dutta   : EOM-CC, STEOM-CC
   Dmitry Ganyushin       : Spin-Orbit,Spin-Spin,Magnetic field MRCI
   Yang Guo               : DLPNO-NEVPT2, CIM, IAO-localization
   Andreas Hansen         : Spin unrestricted coupled pair/coupled cluster methods
   Lee Huntington         : MR-EOM, pCC
   Robert Izsak           : Overlap fitted RIJCOSX, COSX-SCS-MP3, EOM
   Christian Kollmar      : KDIIS, OOCD, Brueckner-CCSD(T), CCSD density
   Simone Kossmann        : Meta GGA functionals, TD-DFT gradient, OOMP2, MP2 Hessian
   Martin Krupicka        : AUTO-CI
   Dagmar Lenk            : GEPOL surface
   Dimitrios Liakos       : Extrapolation schemes; parallel MDCI
   Dimitrios Manganas     : ROCIS; embedding schemes
   Dimitrios Pantazis     : SARC Basis sets
   Taras Petrenko         : DFT Hessian,TD-DFT gradient, ASA, ECA, R-Raman, ABS, FL, XAS/XES, NRVS
   Peter Pinski           : DLPNO-MP2
   Christoph Reimann      : Effective Core Potentials
   Marius Retegan         : Local ZFS, SOC
   Christoph Riplinger    : Optimizer, TS searches, QM/MM, DLPNO-CCSD(T), (RO)-DLPNO pert. Triples
   Tobias Risthaus        : Range-separated hybrids, TD-DFT gradient, RPA, STAB
   Michael Roemelt        : Restricted open shell CIS
   Masaaki Saitow         : Open-shell DLPNO
   Barbara Sandhoefer     : DKH picture change effects
   Kantharuban Sivalingam : CASSCF convergence, NEVPT2, FIC-MRCI
   Georgi Stoychev        : AutoAux
   Boris Wezisla          : Elementary symmetry handling
   Frank Wennmohs         : Technical directorship


 We gratefully acknowledge several colleagues who have allowed us to
 interface, adapt or use parts of their codes:
   Stefan Grimme, W. Hujo, H. Kruse,             : VdW corrections, initial TS optimization,
                  C. Bannwarth                     DFT functionals, gCP, sTDA/sTD-DF
   Ed Valeev                                     : LibInt (2-el integral package), F12 methods
   Garnet Chan, S. Sharma, J. Yang, R. Olivares  : DMRG
   Ulf Ekstrom                                   : XCFun DFT Library
   Mihaly Kallay                                 : mrcc  (arbitrary order and MRCC methods)
   Jiri Pittner, Ondrej Demel                    : Mk-CCSD
   Frank Weinhold                                : gennbo (NPA and NBO analysis)
   Christopher J. Cramer and Donald G. Truhlar   : smd solvation model


 Your calculation uses the libint2 library for the computation of 2-el integrals
 For citations please refer to: http://libint.valeyev.net

 This ORCA versions uses:
   CBLAS   interface :  Fast vector & matrix operations
   LAPACKE interface :  Fast linear algebra routines
   SCALAPACK package :  Parallel linear algebra routines


Your calculation utilizes the atom-pairwise dispersion correction
with the zero-damping scheme (D30)
Cite in your paper:
S.Grimme, J.Antony, S.Ehrlich and H.Krieg, J.Chem.Phys., 132, (2010), 154104 
   

XCFun DFT library Copyright 2009-2010 Ulf Ekstrom and contributors.
See http://admol.org/xcfun for more information. This is free soft-
ware; see the source code for copying conditions. There is ABSOLUTELY
NO WARRANTY; not even for MERCHANTABILITY or FITNESS FOR A PARTICULAR
PURPOSE. For details see the documentation. Scientific users of this 
library should cite U. Ekstrom, L. Visscher, R. Bast, A. J. Thorvald-
sen and K. Ruud; J.Chem.Theor.Comp. 2010, DOI: 10.1021/ct100117s
XCFun Version 0.99 
Your calculation utilizes the basis: 6-31G(d)
   H-He, Li-Ne : W. J. Hehre, R. Ditchfield and J.A. Pople, J. Chem. Phys. 56, 2257 (1972).
                 Note: He and Ne are unpublished basis sets taken from the Gaussian program.
                 Note: Li and B from J. D. Dill and J. A. Pople, J. Chem. Phys. 62, 2921 (1975).
   Na - Ar     : M. M. Francl, W. J. Pietro, W. J. Hehre, J. S. Binkley, M. S. Gordon, 
                 D. J. DeFrees and J. A. Pople, J. Chem. Phys. 77, 3654 (1982).
   K - Zn      : V. A. Rassolov, J. A. Pople, M. A. Ratner, and T. L. Windus, J. Chem. Phys. 109, 1223 (1998).

================================================================================
                                        WARNINGS
                       Please study these warnings very carefully!
================================================================================

Warning: TCutStore was < 0. Adjusted to Thresh (uncritical)

INFO   : the flag for use of LIBINT has been found!

================================================================================
                                       INPUT FILE
================================================================================
NAME = initial40.inp
|  1> ! WB97X-D3 6-31G(d) VerySlowConv
|  2> ! KDIIS NOSOSCF
|  3> %base "Scan_40"
|  4> 
|  5> %scf
|  6> maxiter 999
|  7> end
|  8> 
|  9> * xyz 0 1
| 10> O         -0.957567180219    0.688816502994   -0.886901099056
| 11> H          3.516860833346    0.936168383568   -0.640440464458
| 12> H         -2.119853653127    3.759555113438    2.172851563514
| 13> **                         ****END OF INPUT****
================================================================================

                       ****************************
                       * Single Point Calculation *
                       ****************************

---------------------------------
CARTESIAN COORDINATES (ANGSTROEM)
---------------------------------
  O     -0.957567    0.688817   -0.886901
  H      3.516861    0.936168   -0.640440
  H     -2.119854    3.759555    2.172852

----------------------------
CARTESIAN COORDINATES (A.U.)
----------------------------
  NO LB      ZA    FRAG     MASS         X           Y           Z
   0 O     8.0000    0    15.999   -1.809540    1.301675   -1.676000
   1 H     1.0000    0     1.008    6.645904    1.769102   -1.210257
   2 H     1.0000    0     1.008   -4.005943    7.104530    4.106094

--------------------------------
INTERNAL COORDINATES (ANGSTROEM)
--------------------------------
 O      0   0   0     0.000000000000     0.00000000     0.00000000
 H      1   0   0     4.488032068268     0.00000000     0.00000000
 H      1   2   0     4.488032064823   100.54698245     0.00000000

---------------------------
INTERNAL COORDINATES (A.U.)
---------------------------
 O      0   0   0     0.000000000000     0.00000000     0.00000000
 H      1   0   0     8.481151489283     0.00000000     0.00000000
 H      1   2   0     8.481151482773   100.54698245     0.00000000

---------------------
BASIS SET INFORMATION
---------------------
There are 2 groups of distinct atoms

 Group   1 Type O   : 10s4p1d contracted to 3s2p1d pattern {631/31/1}
 Group   2 Type H   : 4s contracted to 2s pattern {31}

Atom   0O    basis set group =>   1
Atom   1H    basis set group =>   2
Atom   2H    basis set group =>   2
------------------------------------------------------------------------------
                           ORCA GTO INTEGRAL CALCULATION
------------------------------------------------------------------------------

                         BASIS SET STATISTICS AND STARTUP INFO

 # of primitive gaussian shells          ...   23
 # of primitive gaussian functions       ...   35
 # of contracted shells                  ...   10
 # of contracted basis functions         ...   18
 Highest angular momentum                ...    2
 Maximum contraction depth               ...    6
 Integral package used                   ... LIBINT
 Integral threshhold            Thresh   ...  1.000e-10
 Primitive cut-off              TCut     ...  1.000e-11


------------------------------ INTEGRAL EVALUATION ----------------------------


 * One electron integrals 
 Pre-screening matrix                    ... done
 Shell pair data                         ... done (   0.000 sec)

-------------------------------------------------------------------------------
                                 ORCA SCF
-------------------------------------------------------------------------------

------------
SCF SETTINGS
------------
Hamiltonian:
 Density Functional     Method          .... DFT(GTOs)
 Exchange Functional    Exchange        .... WB97X-D3
 Correlation Functional Correlation     .... WB97X-D3
 Gradients option       PostSCFGGA      .... off
 Hybrid DFT is turned on
   Fraction HF Exchange ScalHFX         ....  0.195728
   Scaling of DF-GGA-X  ScalDFX         ....  0.000000
   Scaling of DF-GGA-C  ScalDFC         ....  1.000000
   Scaling of DF-LDA-C  ScalLDAC        ....  1.000000
   Perturbative correction              ....  0.000000
 Long-range corrected/Screened/Range-Separated Hybrid DFT is turned on
   Amount of maximum screened exact exchange              ....  0.804272
   Range separation parameter mu (erf(mu*r12)/r12)        ....  0.250000


General Settings:
 Integral files         IntName         .... Scan_40
 Hartree-Fock type      HFTyp           .... RHF
 Total Charge           Charge          ....    0
 Multiplicity           Mult            ....    1
 Number of Electrons    NEL             ....   10
 Basis Dimension        Dim             ....   18
 Nuclear Repulsion      ENuc            ....      1.9631894582 Eh

Convergence Acceleration:
 DIIS                   CNVDIIS         .... on
   Start iteration      DIISMaxIt       ....     0
   Startup error        DIISStart       ....  0.200000
   # of expansion vecs  DIISMaxEq       ....     5
   Bias factor          DIISBfac        ....   1.050
   Max. coefficient     DIISMaxC        ....  10.000
 Newton-Raphson         CNVNR           .... off
 SOSCF                  CNVSOSCF        .... off
 Level Shifting         CNVShift        .... off
 Zerner damping         CNVZerner       .... off
 Static damping         CNVDamp         .... off
 Fernandez-Rico         CNVRico         .... off

SCF Procedure:
 Maximum # iterations   MaxIter         ....   999
 SCF integral mode      SCFMode         .... Direct
   Integral package                     .... LIBINT
 Reset frequeny         DirectResetFreq ....    20
 Integral Threshold     Thresh          ....  1.000e-10 Eh
 Primitive CutOff       TCut            ....  1.000e-11 Eh

Convergence Tolerance:
 Convergence Check Mode ConvCheckMode   .... All-Criteria
 Convergence forced     ConvForced      .... 0
 Energy Change          TolE            ....  1.000e-06 Eh
 Max Density Change     TolMaxP         ....  1.000e-05
 RMS Density Change     TolRMSP         ....  1.000e-06
 DIIS Error             TolErr          ....  1.000e-06


Diagonalization of the overlap matrix:
Smallest eigenvalue                        ... 2.333e-01
Time for diagonalization                   ...    0.000 sec
Threshold for overlap eigenvalues          ... 1.000e-08
Number of eigenvalues below threshold      ... 0
Time for construction of square roots      ...    0.005 sec
Total time needed                          ...    0.005 sec

-------------------
DFT GRID GENERATION
-------------------

General Integration Accuracy     IntAcc      ...  4.340
Radial Grid Type                 RadialGrid  ... Gauss-Chebyshev
Angular Grid (max. acc.)         AngularGrid ... Lebedev-110
Angular grid pruning method      GridPruning ... 3 (G Style)
Weight generation scheme         WeightScheme... Becke
Basis function cutoff            BFCut       ...    1.0000e-10
Integration weight cutoff        WCut        ...    1.0000e-14
Grids for H and He will be reduced by one unit

# of grid points (after initial pruning)     ...   3304 (   0.0 sec)
# of grid points (after weights+screening)   ...   3300 (   0.0 sec)
nearest neighbour list constructed           ...    0.0 sec
Grid point re-assignment to atoms done       ...    0.0 sec
Grid point division into batches done        ...    0.0 sec
Reduced shell lists constructed in    0.0 sec

Total number of grid points                  ...     3300
Total number of batches                      ...       53
Average number of points per batch           ...       62
Average number of grid points per atom       ...     1100
Average number of shells per batch           ...     6.35 (63.52%)
Average number of basis functions per batch  ...    11.83 (65.74%)
Average number of large shells per batch     ...     4.67 (73.47%)
Average number of large basis fcns per batch ...     8.89 (75.12%)
Maximum spatial batch extension              ...  19.69, 20.95, 25.65 au
Average spatial batch extension              ...   6.52,  6.02,  6.34 au

Time for grid setup =    0.017 sec

------------------------------
INITIAL GUESS: MODEL POTENTIAL
------------------------------
Loading Hartree-Fock densities                     ... done
Calculating cut-offs                               ... done
Setting up the integral package                    ... done
Initializing the effective Hamiltonian             ... done
Starting the Coulomb interaction                   ... done (   0.0 sec)
Reading the grid                                   ... done
Mapping shells                                     ... done
Starting the XC term evaluation                    ... done (   0.0 sec)
  promolecular density results
     # of electrons  =     10.000201111
     EX              =     -8.523089094
     EC              =     -0.275855548
     EX+EC           =     -8.798944643
Transforming the Hamiltonian                       ... done (   0.0 sec)
Diagonalizing the Hamiltonian                      ... done (   0.0 sec)
Back transforming the eigenvectors                 ... done (   0.0 sec)
Now organizing SCF variables                       ... done
                      ------------------
                      INITIAL GUESS DONE (   0.1 sec)
                      ------------------
--------------
SCF ITERATIONS
--------------
ITER       Energy         Delta-E        Max-DP      RMS-DP      [F,P]   Gradient Norm
               ***  Starting incremental Fock matrix formation  ***
                             ****Resetting KDIIS****
                             ****Turning on KDIIS(Cayley)****
  0    -74.5509572544   0.000000000000 0.05568066  0.00800552  0.3732909   0.322852431
  1    -74.6578377815  -0.106880527109 0.13795933  0.01799930  0.3220575   0.276594648
  2    -74.8459580374  -0.188120255970 0.11949380  0.01744052  0.1911286   0.166938287
  3    -74.9610076729  -0.115049635447 0.49678166  0.06452560  0.0844815   0.079481551
  4    -74.9683646844  -0.007357011526 0.20287653  0.03261597  0.3137337   0.304866512
  5    -74.9171848117   0.051179872712 0.53445092  0.07706081  0.2197775   0.205749425
  6    -74.6643281297   0.252856682044 0.80268174  0.11854653  0.4594713   0.428703694
  7    -74.9433627625  -0.279034632822 0.10258633  0.01532697  0.0248847   0.021153423
  8    -74.9330592667   0.010303495802 0.06748151  0.01036403  0.0924315   0.078666814
  9    -74.9528682580  -0.019808991309 0.10482499  0.01513056  0.0534589   0.036596567
 10    -74.9754509464  -0.022582688469 0.05022399  0.00980779  0.0918103   0.073338625
 11    -74.9468503307   0.028600615780 0.07001099  0.01046411  0.0821121   0.076354297
 12    -74.9490615804  -0.002211249722 0.07767842  0.01355236  0.0365434   0.030705460
 13    -75.0315910567  -0.082529476317 0.10857227  0.01536561  0.1577404   0.079103114
 14    -74.9586815798   0.072909476930 0.17747029  0.02726216  0.0571431   0.042792200
 15    -75.0334875849  -0.074806005151 0.03111978  0.00456849  0.1520572   0.115629868
 16    -75.0359220375  -0.002434452599 0.01922471  0.00355923  0.1580892   0.124991662
 17    -75.0247053986   0.011216638911 0.21216790  0.03168572  0.1464619   0.118428380
 18    -75.0850594414  -0.060354042758 0.13331396  0.02796554  0.1736074   0.097005243
 19    -75.0950703463  -0.010010904944 0.14179204  0.02339939  0.1636059   0.097042989
               *** Restarting incremental Fock matrix formation ***
                             ****Resetting KDIIS****
 20    -75.2814033898  -0.186333043467 0.01999262  0.00350473  0.1955523   0.120919946
 21    -75.3240289538  -0.042625564031 0.02176126  0.00420423  0.1881363   0.121478994
 22    -75.3014527351   0.022576218708 0.03715967  0.00582410  0.1898572   0.122802911
 23    -75.2917042502   0.009748484907 0.47878384  0.06040608  0.1872590   0.125682411
 24    -75.6442401195  -0.352535869324 0.33270370  0.03887812  0.1445253   0.127481650
 25    -75.5100765918   0.134163527775 0.18223680  0.02495208  0.1803320   0.129375560
 26    -75.6985925867  -0.188515994931 0.00576088  0.00072548  0.0415853   0.030230640
 27    -75.7004494594  -0.001856872755 0.00197275  0.00034307  0.0378265   0.027626869
 28    -75.7004245528   0.000024906652 0.03773721  0.00451394  0.0379618   0.027848615
 29    -75.6943203821   0.006104170679 0.04359132  0.00608375  0.0525248   0.040786483
 30    -75.7048608116  -0.010540429529 0.08513957  0.01199361  0.0309370   0.024197308
 31    -75.7082606517  -0.003399840078 0.02576049  0.00417286  0.0116980   0.008265372
 32    -75.7101073272  -0.001846675512 0.12047699  0.01670755  0.0094985   0.006657510
 33    -75.7049111973   0.005196129971 0.00844105  0.00148817  0.0062495   0.004835119
 34    -75.7049259216  -0.000014724325 0.01619211  0.00245128  0.0083883   0.004730884
 35    -75.7049649143  -0.000038992753 0.03747529  0.00483190  0.0064761   0.003818296
 36    -75.7047890411   0.000175873258 0.09240231  0.01069170  0.0077123   0.004531315
 37    -75.7051480585  -0.000359017463 0.04292290  0.00669403  0.0049521   0.003032893
 38    -75.7050886681   0.000059390423 0.01214286  0.00154686  0.0017723   0.001741703
 39    -75.7050988845  -0.000010216412 0.00937674  0.00129877  0.0020319   0.001606531
               *** Restarting incremental Fock matrix formation ***
                             ****Resetting KDIIS****
 40    -75.7051005831  -0.000001698530 0.00017595  0.00002419  0.0004451   0.000358451
                          ***Energy convergence achieved***
 41    -75.7051011836  -0.000000600573 0.00011023  0.00001519  0.0002308   0.000190982
 42    -75.7051014274  -0.000000243748 0.00016061  0.00002233  0.0001969   0.000172636
Warning: badly conditioned DIIS matrix, 1 vectors out of 4 destroyed
 43    -75.7051017696  -0.000000342176 0.00098459  0.00013118  0.0001531   0.000147394
Warning: badly conditioned DIIS matrix, 1 vectors out of 4 destroyed
 44    -75.7051035827  -0.000001813173 0.00003605  0.00000481  0.0001875   0.000122811
                          ***Energy convergence achieved***
 45    -75.7051035161   0.000000066655 0.00251140  0.00034238  0.0001876   0.000123319
 46    -75.7050991290   0.000004387077 0.00161799  0.00020461  0.0001710   0.000111404
 47    -75.7050965048   0.000002624233 0.01627883  0.00207254  0.0001682   0.000112694
 48    -75.7050709791   0.000025525677 0.02345325  0.00303362  0.0003188   0.000289442
 49    -75.7050359291   0.000035050013 0.00171180  0.00023440  0.0009340   0.000766723
 50    -75.7050321076   0.000003821431 0.01259290  0.00161431  0.0016159   0.001232144
 51    -75.7050265262   0.000005581438 0.00832238  0.00106607  0.0030148   0.002335082
 52    -75.7050389021  -0.000012375896 0.01053448  0.00139268  0.0015084   0.001142513
 53    -75.7050614869  -0.000022584768 0.01068424  0.00136016  0.0001524   0.000161270
 54    -75.7050769104  -0.000015423514 0.05222492  0.00683436  0.0001799   0.000153983
 55    -75.7049892007   0.000087709634 0.01908895  0.00252811  0.0024188   0.001925272
 56    -75.7050188602  -0.000029659417 0.02094335  0.00273655  0.0018789   0.001516271
 57    -75.7050542986  -0.000035438443 0.00756555  0.00097877  0.0012198   0.000955864
 58    -75.7050456872   0.000008611369 0.01749511  0.00238489  0.0009595   0.000729579
 59    -75.7050004650   0.000045222227 0.03727568  0.00484614  0.0026789   0.002095992
               *** Restarting incremental Fock matrix formation ***
                             ****Resetting KDIIS****
 60    -75.7050692403  -0.000068775325 0.00058349  0.00007177  0.0014153   0.001084814
 61    -75.7050741947  -0.000004954372 0.00020461  0.00002445  0.0007470   0.000500869
                          ***Energy convergence achieved***
 62    -75.7050749647  -0.000000770018 0.00038335  0.00005367  0.0006138   0.000419257
 63    -75.7050762472  -0.000001282469 0.00083072  0.00012945  0.0003829   0.000265699
 64    -75.7050781633  -0.000001916091 0.00203881  0.00029786  0.0001437   0.000106260
 65    -75.7050746606   0.000003502683 0.00053256  0.00007324  0.0001588   0.000104559
                          ***Energy convergence achieved***
 66    -75.7050755229  -0.000000862321 0.00116618  0.00015883  0.0001589   0.000102689
 67    -75.7050736413   0.000001881633 0.01816499  0.00249893  0.0001579   0.000104768
 68    -75.7050454114   0.000028229922 0.00061941  0.00008568  0.0002466   0.000205763
                          ***Energy convergence achieved***
 69    -75.7050445260   0.000000885338 0.03147201  0.00444304  0.0002321   0.000196675
 70    -75.7049986018   0.000045924257 0.00856834  0.00119994  0.0010284   0.000836803
Warning: badly conditioned DIIS matrix, 1 vectors out of 5 destroyed
Warning: badly conditioned DIIS matrix, 1 vectors out of 4 destroyed
                          ***Energy convergence achieved***
 71    -75.7049992605  -0.000000658710 0.01690430  0.00246438  0.0019521   0.001563547
 72    -75.7050363108  -0.000037050294 0.00432508  0.00060943  0.0001574   0.000153892
 73    -75.7050293833   0.000006927513 0.00544432  0.00091080  0.0005307   0.000419149
 74    -75.7050202078   0.000009175491 0.00157765  0.00024939  0.0005148   0.000407995
 75    -75.7050183639   0.000001843897 0.00543892  0.00068508  0.0003288   0.000263103
 76    -75.7050248230  -0.000006459124 0.01624718  0.00187911  0.0001218   0.000097852
 77    -75.7050182830   0.000006539987 0.00394887  0.00052150  0.0004470   0.000330322
 78    -75.7050229722  -0.000004689177 0.01438359  0.00206257  0.0001210   0.000103352
 79    -75.7050280631  -0.000005090902 0.01736433  0.00226645  0.0001853   0.000180524
               *** Restarting incremental Fock matrix formation ***
                             ****Resetting KDIIS****
 80    -75.7050152158   0.000012847253 0.00014516  0.00001962  0.0003565   0.000300656
                          ***Energy convergence achieved***
 81    -75.7050156064  -0.000000390517 0.00008442  0.00001180  0.0001862   0.000159265
 82    -75.7050157501  -0.000000143708 0.00027032  0.00003520  0.0001612   0.000141110
 83    -75.7050161365  -0.000000386391 0.00078186  0.00009754  0.0001138   0.000109481
 84    -75.7050152307   0.000000905777 0.00020433  0.00002223  0.0001133   0.000089443
 85    -75.7050151983   0.000000032419 0.00066462  0.00008027  0.0001148   0.000087748
 86    -75.7050159614  -0.000000763165 0.00165647  0.00020048  0.0001117   0.000086576
 87    -75.7050178664  -0.000001904980 0.00348033  0.00041954  0.0001053   0.000084918
 88    -75.7050218525  -0.000003986087 0.00122289  0.00014741  0.0001094   0.000087042
 89    -75.7050204520   0.000001400498 0.00353569  0.00042648  0.0001075   0.000085829
 90    -75.7050164058   0.000004046185 0.00030579  0.00003737  0.0001023   0.000084628
                          ***Energy convergence achieved***
 91    -75.7050160525   0.000000353346 0.00493772  0.00059665  0.0001043   0.000084818
 92    -75.7050103869   0.000005665523 0.00853062  0.00102929  0.0001222   0.000091964
 93    -75.7050201660  -0.000009779056 0.00121833  0.00014697  0.0001037   0.000084635
 94    -75.7050187687   0.000001397287 0.00119509  0.00014418  0.0001050   0.000084802
 95    -75.7050173930   0.000001375669 0.00598300  0.00072110  0.0001176   0.000089791
 96    -75.7050241984  -0.000006805361 0.00052509  0.00006394  0.0001464   0.000124188
                          ***Energy convergence achieved***
 97    -75.7050248434  -0.000000644975 0.00507610  0.00061205  0.0001068   0.000085000
 98    -75.7050306294  -0.000005785995 0.00447498  0.00053674  0.0001319   0.000115364
 99    -75.7050356839  -0.000005054571 0.01855265  0.00220360  0.0001674   0.000163657
               *** Restarting incremental Fock matrix formation ***
                             ****Resetting KDIIS****
100    -75.7050566971  -0.000021013204 0.00011615  0.00001513  0.0002434   0.000227829
                          ***Energy convergence achieved***
101    -75.7050569437  -0.000000246538 0.00009983  0.00001193  0.0001625   0.000129375
102    -75.7050570830  -0.000000139344 0.00028651  0.00003285  0.0001550   0.000118975
103    -75.7050574460  -0.000000363016 0.00137619  0.00016006  0.0001421   0.000102606
104    -75.7050558941   0.000001551915 0.00034160  0.00003923  0.0001122   0.000087470
                          ***Energy convergence achieved***
105    -75.7050562682  -0.000000374068 0.00009514  0.00001062  0.0001119   0.000086808
106    -75.7050563721  -0.000000103893 0.00372225  0.00041471  0.0001121   0.000086796
107    -75.7050523266   0.000004045501 0.03037506  0.00340333  0.0001114   0.000092681
Warning: badly conditioned DIIS matrix, 1 vectors out of 5 destroyed
Warning: badly conditioned DIIS matrix, 1 vectors out of 4 destroyed
108    -75.7050184911   0.000033835511 0.02849639  0.00319465  0.0008178   0.000646946
109    -75.7050502787  -0.000031787651 0.02912566  0.00327134  0.0001178   0.000109302
110    -75.7050069744   0.000043304335 0.01544978  0.00175956  0.0019555   0.001556865
111    -75.7049837930   0.000023181418 0.03640566  0.00411659  0.0024813   0.001965718
112    -75.7050376731  -0.000053880116 0.00211939  0.00023744  0.0010637   0.000848273
113    -75.7050396008  -0.000001927656 0.00259966  0.00031301  0.0011049   0.000881868
114    -75.7050355913   0.000004009416 0.00416905  0.00046501  0.0018092   0.001415218
115    -75.7050411163  -0.000005524956 0.02805571  0.00311271  0.0017194   0.001347844
116    -75.7050757726  -0.000034656295 0.00487979  0.00057054  0.0013921   0.001093564
                          ***Energy convergence achieved***
117    -75.7050765097  -0.000000737093 0.01804895  0.00199471  0.0002356   0.000234569
118    -75.7050555289   0.000020980751 0.02876136  0.00319199  0.0005293   0.000443507
119    -75.7050788102  -0.000023281249 0.02307684  0.00254617  0.0017174   0.001337459
               *** Restarting incremental Fock matrix formation ***
                             ****Resetting KDIIS****
120    -75.7051101422  -0.000031332032 0.00060882  0.00007428  0.0014370   0.001124307
121    -75.7051154599  -0.000005317660 0.00022358  0.00002639  0.0007302   0.000522271
                          ***Energy convergence achieved***
122    -75.7051163185  -0.000000858635 0.00042461  0.00005782  0.0005880   0.000437908
123    -75.7051177451  -0.000001426634 0.00066507  0.00009255  0.0003396   0.000276033
Warning: badly conditioned DIIS matrix, 1 vectors out of 5 destroyed
124    -75.7051191944  -0.000001449282 0.00312657  0.00035929  0.0001700   0.000111518
Warning: badly conditioned DIIS matrix, 1 vectors out of 5 destroyed
125    -75.7051149900   0.000004204413 0.00137417  0.00016162  0.0001378   0.000111155
126    -75.7051167030  -0.000001712969 0.00200215  0.00022233  0.0001825   0.000141740
127    -75.7051139907   0.000002712270 0.00351723  0.00039100  0.0001832   0.000140056
128    -75.7051187415  -0.000004750798 0.00998804  0.00108710  0.0001268   0.000105646
129    -75.7051059472   0.000012794322 0.06051098  0.00665795  0.0001311   0.000112216
130    -75.7050229842   0.000082962986 0.01639281  0.00183075  0.0026460   0.002000514
131    -75.7050452946  -0.000022310401 0.01855118  0.00206056  0.0020536   0.001527643
132    -75.7050695444  -0.000024249812 0.01942899  0.00212462  0.0014939   0.001139200
133    -75.7050963726  -0.000026828181 0.02987904  0.00327668  0.0007832   0.000633676
134    -75.7051271677  -0.000030795135 0.00619581  0.00068665  0.0017815   0.001342489
135    -75.7051236502   0.000003517536 0.04147882  0.00454684  0.0012515   0.000966563
136    -75.7050760863   0.000047563926 0.00480205  0.00052291  0.0008872   0.000650450
137    -75.7050690999   0.000006986318 0.02736002  0.00299426  0.0011887   0.000896901
138    -75.7051037962  -0.000034696230 0.00596910  0.00064570  0.0004096   0.000370571
139    -75.7051116521  -0.000007855900 0.00543860  0.00059096  0.0002235   0.000229633
               *** Restarting incremental Fock matrix formation ***
                             ****Resetting KDIIS****
140    -75.7051186655  -0.000007013401 0.00009905  0.00001358  0.0002073   0.000211332
                          ***Energy convergence achieved***
141    -75.7051188826  -0.000000217099 0.00012233  0.00001442  0.0001569   0.000135643
142    -75.7051190762  -0.000000193628 0.00024256  0.00002850  0.0001505   0.000127960
143    -75.7051194511  -0.000000374875 0.00178270  0.00022283  0.0001425   0.000118331
144    -75.7051168995   0.000002551613 0.00048279  0.00005280  0.0001266   0.000104825
                          ***Energy convergence achieved***
145    -75.7051175332  -0.000000633748 0.00192291  0.00020892  0.0001301   0.000104991
146    -75.7051150204   0.000002512804 0.04408122  0.00482363  0.0001289   0.000104371
147    -75.7050606339   0.000054386511 0.00442143  0.00049042  0.0012621   0.000937624
148    -75.7050634720  -0.000002838089 0.00141547  0.00014418  0.0014036   0.001042706
149    -75.7050699927  -0.000006520739 0.00595346  0.00066489  0.0004711   0.000380398
150    -75.7050640039   0.000005988835 0.00415386  0.00048396  0.0006534   0.000502028
151    -75.7050676286  -0.000003624685 0.02393082  0.00263525  0.0006058   0.000469581
152    -75.7050936378  -0.000026009260 0.04261386  0.00471471  0.0003188   0.000285578
153    -75.7050510978   0.000042540045 0.01227786  0.00143452  0.0007499   0.000579302
154    -75.7050422103   0.000008887485 0.00334595  0.00034220  0.0024547   0.001863200
155    -75.7050630988  -0.000020888517 0.00969262  0.00108259  0.0001405   0.000152277
156    -75.7050512100   0.000011888791 0.00822201  0.00092085  0.0010833   0.000825364
157    -75.7050619828  -0.000010772806 0.01985866  0.00220220  0.0001112   0.000079499
158    -75.7050803932  -0.000018410384 0.02649831  0.00293832  0.0003393   0.000295382
159    -75.7050563839   0.000024009364 0.00099473  0.00010883  0.0001405   0.000141307
               *** Restarting incremental Fock matrix formation ***
                             ****Resetting KDIIS****
                          ***Energy convergence achieved***
160    -75.7050573199  -0.000000935994 0.00003766  0.00000541  0.0001137   0.000088190

            ***Energy convergence in two consecutive cycles with***
                    ***'reasonable' density convergence***
                       *** signaling convergence ***

                    *** KDIIS BlockDiag ( 0.000 sec) ***

               *****************************************************
               *                     SUCCESS                       *
               *           SCF CONVERGED AFTER 161 CYCLES          *
               *****************************************************

Setting up the final grid:

General Integration Accuracy     IntAcc      ...  4.670
Radial Grid Type                 RadialGrid  ... Gauss-Chebyshev
Angular Grid (max. acc.)         AngularGrid ... Lebedev-302
Angular grid pruning method      GridPruning ... 3 (G Style)
Weight generation scheme         WeightScheme... Becke
Basis function cutoff            BFCut       ...    1.0000e-10
Integration weight cutoff        WCut        ...    1.0000e-14
Grids for H and He will be reduced by one unit

# of grid points (after initial pruning)     ...  13000 (   0.0 sec)
# of grid points (after weights+screening)   ...  12984 (   0.0 sec)
nearest neighbour list constructed           ...    0.0 sec
Grid point re-assignment to atoms done       ...    0.0 sec
Grid point division into batches done        ...    0.0 sec
Reduced shell lists constructed in    0.1 sec

Total number of grid points                  ...    12984
Total number of batches                      ...      204
Average number of points per batch           ...       63
Average number of grid points per atom       ...     4328
Average number of shells per batch           ...     5.33 (53.32%)
Average number of basis functions per batch  ...     9.80 (54.44%)
Average number of large shells per batch     ...     3.95 (74.11%)
Average number of large basis fcns per batch ...     7.49 (76.46%)
Maximum spatial batch extension              ...  15.93, 16.88, 15.98 au
Average spatial batch extension              ...   3.94,  4.01,  3.95 au

Final grid set up in    0.1 sec
Final integration                            ... done (   0.1 sec)
Change in XC energy                          ...    -0.000238281
Integrated number of electrons               ...     9.999981104
Previous integrated no of electrons          ...    10.001139897

----------------
TOTAL SCF ENERGY
----------------

Total Energy       :          -75.70529565 Eh           -2060.04583 eV

Components:
Nuclear Repulsion  :            1.96318946 Eh              53.42110 eV
Electronic Energy  :          -77.66848511 Eh           -2113.46693 eV
One Electron Energy:         -108.62052204 Eh           -2955.71467 eV
Two Electron Energy:           30.95203693 Eh             842.24774 eV

Virial components:
Potential Energy   :         -151.06599180 Eh           -4110.71462 eV
Kinetic Energy     :           75.36069615 Eh            2050.66880 eV
Virial Ratio       :            2.00457267


DFT components:
N(Alpha)           :        4.999990551933 electrons
N(Beta)            :        4.999990551933 electrons
N(Total)           :        9.999981103867 electrons
E(XC)              :       -6.151196374538 Eh       

---------------
SCF CONVERGENCE
---------------

  Last Energy change         ...   -4.7605e-08  Tolerance :   1.0000e-06
  Last MAX-Density change    ...    8.2215e-05  Tolerance :   1.0000e-05
  Last RMS-Density change    ...    9.9304e-06  Tolerance :   1.0000e-06
  Last DIIS Error            ...    1.1251e-04  Tolerance :   1.0000e-06

             **** THE GBW FILE WAS UPDATED (Scan_40.gbw) ****
             **** DENSITY FILE WAS UPDATED (Scan_40.scfp.tmp) ****
             **** ENERGY FILE WAS UPDATED (Scan_40.en.tmp) ****
----------------
ORBITAL ENERGIES
----------------

  NO   OCC          E(Eh)            E(eV) 
   0   2.0000     -19.307478      -525.3832 
   1   2.0000      -0.977754       -26.6060 
   2   2.0000      -0.380482       -10.3534 
   3   2.0000      -0.311574        -8.4783 
   4   2.0000      -0.310174        -8.4403 
   5   0.0000      -0.194714        -5.2984 
   6   0.0000      -0.193925        -5.2770 
   7   0.0000       0.822481        22.3809 
   8   0.0000       0.822766        22.3886 
   9   0.0000       1.004505        27.3340 
  10   0.0000       1.004860        27.3436 
  11   0.0000       1.014874        27.6161 
  12   0.0000       1.109435        30.1893 
  13   0.0000       1.903790        51.8048 
  14   0.0000       1.903858        51.8066 
  15   0.0000       1.924428        52.3664 
  16   0.0000       1.924630        52.3718 
  17   0.0000       1.932624        52.5894 

                    ********************************
                    * MULLIKEN POPULATION ANALYSIS *
                    ********************************

-----------------------
MULLIKEN ATOMIC CHARGES
-----------------------
   0 O :   -0.192772
   1 H :    0.095881
   2 H :    0.096890
Sum of atomic charges:    0.0000000

--------------------------------
MULLIKEN REDUCED ORBITAL CHARGES
--------------------------------
  0 O s       :     3.999912  s :     3.999912
      pz      :     1.897821  p :     4.192767
      px      :     1.136934
      py      :     1.158012
      dz2     :     0.000059  d :     0.000093
      dxz     :     0.000013
      dyz     :     0.000016
      dx2y2   :     0.000001
      dxy     :     0.000005
  1 H s       :     0.904119  s :     0.904119
  2 H s       :     0.903110  s :     0.903110


                     *******************************
                     * LOEWDIN POPULATION ANALYSIS *
                     *******************************

----------------------
LOEWDIN ATOMIC CHARGES
----------------------
   0 O :   -0.192747
   1 H :    0.095866
   2 H :    0.096881

-------------------------------
LOEWDIN REDUCED ORBITAL CHARGES
-------------------------------
  0 O s       :     3.999911  s :     3.999911
      pz      :     1.897815  p :     4.192742
      px      :     1.136893
      py      :     1.158034
      dz2     :     0.000059  d :     0.000093
      dxz     :     0.000013
      dyz     :     0.000016
      dx2y2   :     0.000001
      dxy     :     0.000005
  1 H s       :     0.904134  s :     0.904134
  2 H s       :     0.903119  s :     0.903119


                      *****************************
                      * MAYER POPULATION ANALYSIS *
                      *****************************

  NA   - Mulliken gross atomic population
  ZA   - Total nuclear charge
  QA   - Mulliken gross atomic charge
  VA   - Mayer's total valence
  BVA  - Mayer's bonded valence
  FA   - Mayer's free valence

  ATOM       NA         ZA         QA         VA         BVA        FA
  0 O      8.1928     8.0000    -0.1928     1.9814     1.9814    -0.0000
  1 H      0.9041     1.0000     0.0959     0.9908     0.9908     0.0000
  2 H      0.9031     1.0000     0.0969     0.9906     0.9906     0.0000

  Mayer bond orders larger than 0.1
B(  0-O ,  1-H ) :   0.9908 B(  0-O ,  2-H ) :   0.9906 

-------
TIMINGS
-------

Total SCF time: 0 days 0 hours 0 min 29 sec 

Total time                  ....      29.012 sec
Sum of individual times     ....      27.780 sec  ( 95.8%)

Fock matrix formation       ....      27.537 sec  ( 94.9%)
  XC integration            ....       5.873 sec  ( 21.3% of F)
    Basis function eval.    ....       0.862 sec  ( 14.7% of XC)
    Density eval.           ....       0.238 sec  (  4.0% of XC)
    XC-Functional eval.     ....       1.771 sec  ( 30.2% of XC)
    XC-Potential eval.      ....       0.074 sec  (  1.3% of XC)
Diagonalization             ....       0.037 sec  (  0.1%)
Density matrix formation    ....       0.001 sec  (  0.0%)
Population analysis         ....       0.009 sec  (  0.0%)
Initial guess               ....       0.103 sec  (  0.4%)
Orbital Transformation      ....       0.000 sec  (  0.0%)
Orbital Orthonormalization  ....       0.000 sec  (  0.0%)
DIIS solution               ....       0.000 sec  (  0.0%)
Grid generation             ....       0.094 sec  (  0.3%)


-------------------------------------------------------------------------------
                          DFT DISPERSION CORRECTION                            
                                                                               
                              DFTD3 V3.1  Rev 1                                
                              USING zero damping                               
-------------------------------------------------------------------------------
The omegaB97X-D3 functional is recognized. Fit by Chai et al.
Active option DFTDOPT                   ...         3   

molecular C6(AA) [au] = 85.411241 


            DFT-D V3
 parameters
 s6 scaling factor         :     1.0000 
 rs6 scaling factor        :     1.2810 
 s8 scaling factor         :     1.0000 
 rs8 scaling factor        :     1.0940 
 Damping factor alpha6     :    14.0000 
 Damping factor alpha8     :    16.0000 
 ad hoc parameters k1-k3   :    16.0000     1.3333    -4.0000 

 Edisp/kcal,au: -0.042182846398  -0.000067222637 
 E6   /kcal   :  -0.034725580 
 E8   /kcal   :  -0.007457267 
 % E8         :  17.678433943 

-------------------------   ----------------
Dispersion correction           -0.000067223
-------------------------   ----------------


-------------------------   --------------------
FINAL SINGLE POINT ENERGY       -75.705362871306
-------------------------   --------------------


                            ***************************************
                            *     ORCA property calculations      *
                            ***************************************

                                    ---------------------
                                    Active property flags
                                    ---------------------
   (+) Dipole Moment


------------------------------------------------------------------------------
                       ORCA ELECTRIC PROPERTIES CALCULATION
------------------------------------------------------------------------------

Dipole Moment Calculation                       ... on
Quadrupole Moment Calculation                   ... off
Polarizability Calculation                      ... off
GBWName                                         ... Scan_40.gbw
Electron density file                           ... Scan_40.scfp.tmp

-------------
DIPOLE MOMENT
-------------
                                X             Y             Z
Electronic contribution:     -2.16322      -2.15989      -2.15060
Nuclear contribution   :      2.75690       2.76185       2.75196
                        -----------------------------------------
Total Dipole Moment    :      0.59368       0.60196       0.60136
                        -----------------------------------------
Magnitude (a.u.)       :      1.03752
Magnitude (Debye)      :      2.63716


Timings for individual modules:

Sum of individual times         ...       29.358 sec (=   0.489 min)
GTO integral calculation        ...        0.311 sec (=   0.005 min)   1.1 %
SCF iterations                  ...       29.048 sec (=   0.484 min)  98.9 %
                             ****ORCA TERMINATED NORMALLY****
TOTAL RUN TIME: 0 days 0 hours 0 minutes 29 seconds 694 msec
