
                                 *****************
                                 * O   R   C   A *
                                 *****************

           --- An Ab Initio, DFT and Semiempirical electronic structure package ---

                  #######################################################
                  #                        -***-                        #
                  #  Department of molecular theory and spectroscopy    #
                  #              Directorship: Frank Neese              #
                  # Max Planck Institute for Chemical Energy Conversion #
                  #                  D-45470 Muelheim/Ruhr              #
                  #                       Germany                       #
                  #                                                     #
                  #                  All rights reserved                #
                  #                        -***-                        #
                  #######################################################


                         Program Version 4.0.0.2 - RELEASE -


 With contributions from (in alphabetic order):
   Daniel Aravena         : Magnetic Properties
   Michael Atanasov       : Ab Initio Ligand Field Theory
   Ute Becker             : Parallelization
   Martin Brehm           : Molecular dynamics
   Dmytro Bykov           : SCF Hessian
   Vijay G. Chilkuri      : MRCI spin determinant printing
   Dipayan Datta          : RHF DLPNO-CCSD density
   Achintya Kumar Dutta   : EOM-CC, STEOM-CC
   Dmitry Ganyushin       : Spin-Orbit,Spin-Spin,Magnetic field MRCI
   Yang Guo               : DLPNO-NEVPT2, CIM, IAO-localization
   Andreas Hansen         : Spin unrestricted coupled pair/coupled cluster methods
   Lee Huntington         : MR-EOM, pCC
   Robert Izsak           : Overlap fitted RIJCOSX, COSX-SCS-MP3, EOM
   Christian Kollmar      : KDIIS, OOCD, Brueckner-CCSD(T), CCSD density
   Simone Kossmann        : Meta GGA functionals, TD-DFT gradient, OOMP2, MP2 Hessian
   Martin Krupicka        : AUTO-CI
   Dagmar Lenk            : GEPOL surface
   Dimitrios Liakos       : Extrapolation schemes; parallel MDCI
   Dimitrios Manganas     : ROCIS; embedding schemes
   Dimitrios Pantazis     : SARC Basis sets
   Taras Petrenko         : DFT Hessian,TD-DFT gradient, ASA, ECA, R-Raman, ABS, FL, XAS/XES, NRVS
   Peter Pinski           : DLPNO-MP2
   Christoph Reimann      : Effective Core Potentials
   Marius Retegan         : Local ZFS, SOC
   Christoph Riplinger    : Optimizer, TS searches, QM/MM, DLPNO-CCSD(T), (RO)-DLPNO pert. Triples
   Tobias Risthaus        : Range-separated hybrids, TD-DFT gradient, RPA, STAB
   Michael Roemelt        : Restricted open shell CIS
   Masaaki Saitow         : Open-shell DLPNO
   Barbara Sandhoefer     : DKH picture change effects
   Kantharuban Sivalingam : CASSCF convergence, NEVPT2, FIC-MRCI
   Georgi Stoychev        : AutoAux
   Boris Wezisla          : Elementary symmetry handling
   Frank Wennmohs         : Technical directorship


 We gratefully acknowledge several colleagues who have allowed us to
 interface, adapt or use parts of their codes:
   Stefan Grimme, W. Hujo, H. Kruse,             : VdW corrections, initial TS optimization,
                  C. Bannwarth                     DFT functionals, gCP, sTDA/sTD-DF
   Ed Valeev                                     : LibInt (2-el integral package), F12 methods
   Garnet Chan, S. Sharma, J. Yang, R. Olivares  : DMRG
   Ulf Ekstrom                                   : XCFun DFT Library
   Mihaly Kallay                                 : mrcc  (arbitrary order and MRCC methods)
   Jiri Pittner, Ondrej Demel                    : Mk-CCSD
   Frank Weinhold                                : gennbo (NPA and NBO analysis)
   Christopher J. Cramer and Donald G. Truhlar   : smd solvation model


 Your calculation uses the libint2 library for the computation of 2-el integrals
 For citations please refer to: http://libint.valeyev.net

 This ORCA versions uses:
   CBLAS   interface :  Fast vector & matrix operations
   LAPACKE interface :  Fast linear algebra routines
   SCALAPACK package :  Parallel linear algebra routines


Your calculation utilizes the atom-pairwise dispersion correction
with the zero-damping scheme (D30)
Cite in your paper:
S.Grimme, J.Antony, S.Ehrlich and H.Krieg, J.Chem.Phys., 132, (2010), 154104 
   

XCFun DFT library Copyright 2009-2010 Ulf Ekstrom and contributors.
See http://admol.org/xcfun for more information. This is free soft-
ware; see the source code for copying conditions. There is ABSOLUTELY
NO WARRANTY; not even for MERCHANTABILITY or FITNESS FOR A PARTICULAR
PURPOSE. For details see the documentation. Scientific users of this 
library should cite U. Ekstrom, L. Visscher, R. Bast, A. J. Thorvald-
sen and K. Ruud; J.Chem.Theor.Comp. 2010, DOI: 10.1021/ct100117s
XCFun Version 0.99 
Your calculation utilizes the basis: 6-31G(d)
   H-He, Li-Ne : W. J. Hehre, R. Ditchfield and J.A. Pople, J. Chem. Phys. 56, 2257 (1972).
                 Note: He and Ne are unpublished basis sets taken from the Gaussian program.
                 Note: Li and B from J. D. Dill and J. A. Pople, J. Chem. Phys. 62, 2921 (1975).
   Na - Ar     : M. M. Francl, W. J. Pietro, W. J. Hehre, J. S. Binkley, M. S. Gordon, 
                 D. J. DeFrees and J. A. Pople, J. Chem. Phys. 77, 3654 (1982).
   K - Zn      : V. A. Rassolov, J. A. Pople, M. A. Ratner, and T. L. Windus, J. Chem. Phys. 109, 1223 (1998).

================================================================================
                                        WARNINGS
                       Please study these warnings very carefully!
================================================================================

Warning: TCutStore was < 0. Adjusted to Thresh (uncritical)

INFO   : the flag for use of LIBINT has been found!

================================================================================
                                       INPUT FILE
================================================================================
NAME = initial42.inp
|  1> ! WB97X-D3 6-31G(d) VerySlowConv
|  2> ! KDIIS NOSOSCF
|  3> %base "Scan_42"
|  4> 
|  5> %scf
|  6> maxiter 999
|  7> end
|  8> 
|  9> * xyz 0 1
| 10> O         -1.048627922221    0.597592204431   -0.977798857797
| 11> H          3.616916466304    0.954469249876   -0.622205219639
| 12> H         -2.128848544083    3.832478545694    2.245514077436
| 13> **                         ****END OF INPUT****
================================================================================

                       ****************************
                       * Single Point Calculation *
                       ****************************

---------------------------------
CARTESIAN COORDINATES (ANGSTROEM)
---------------------------------
  O     -1.048628    0.597592   -0.977799
  H      3.616916    0.954469   -0.622205
  H     -2.128849    3.832479    2.245514

----------------------------
CARTESIAN COORDINATES (A.U.)
----------------------------
  NO LB      ZA    FRAG     MASS         X           Y           Z
   0 O     8.0000    0    15.999   -1.981620    1.129286   -1.847772
   1 H     1.0000    0     1.008    6.834982    1.803685   -1.175797
   2 H     1.0000    0     1.008   -4.022941    7.242335    4.243407

--------------------------------
INTERNAL COORDINATES (ANGSTROEM)
--------------------------------
 O      0   0   0     0.000000000000     0.00000000     0.00000000
 H      1   0   0     4.692665820444     0.00000000     0.00000000
 H      1   2   0     4.692665821388    97.14543818     0.00000000

---------------------------
INTERNAL COORDINATES (A.U.)
---------------------------
 O      0   0   0     0.000000000000     0.00000000     0.00000000
 H      1   0   0     8.867853238652     0.00000000     0.00000000
 H      1   2   0     8.867853240437    97.14543818     0.00000000

---------------------
BASIS SET INFORMATION
---------------------
There are 2 groups of distinct atoms

 Group   1 Type O   : 10s4p1d contracted to 3s2p1d pattern {631/31/1}
 Group   2 Type H   : 4s contracted to 2s pattern {31}

Atom   0O    basis set group =>   1
Atom   1H    basis set group =>   2
Atom   2H    basis set group =>   2
------------------------------------------------------------------------------
                           ORCA GTO INTEGRAL CALCULATION
------------------------------------------------------------------------------

                         BASIS SET STATISTICS AND STARTUP INFO

 # of primitive gaussian shells          ...   23
 # of primitive gaussian functions       ...   35
 # of contracted shells                  ...   10
 # of contracted basis functions         ...   18
 Highest angular momentum                ...    2
 Maximum contraction depth               ...    6
 Integral package used                   ... LIBINT
 Integral threshhold            Thresh   ...  1.000e-10
 Primitive cut-off              TCut     ...  1.000e-11


------------------------------ INTEGRAL EVALUATION ----------------------------


 * One electron integrals 
 Pre-screening matrix                    ... done
 Shell pair data                         ... done (   0.000 sec)

-------------------------------------------------------------------------------
                                 ORCA SCF
-------------------------------------------------------------------------------

------------
SCF SETTINGS
------------
Hamiltonian:
 Density Functional     Method          .... DFT(GTOs)
 Exchange Functional    Exchange        .... WB97X-D3
 Correlation Functional Correlation     .... WB97X-D3
 Gradients option       PostSCFGGA      .... off
 Hybrid DFT is turned on
   Fraction HF Exchange ScalHFX         ....  0.195728
   Scaling of DF-GGA-X  ScalDFX         ....  0.000000
   Scaling of DF-GGA-C  ScalDFC         ....  1.000000
   Scaling of DF-LDA-C  ScalLDAC        ....  1.000000
   Perturbative correction              ....  0.000000
 Long-range corrected/Screened/Range-Separated Hybrid DFT is turned on
   Amount of maximum screened exact exchange              ....  0.804272
   Range separation parameter mu (erf(mu*r12)/r12)        ....  0.250000


General Settings:
 Integral files         IntName         .... Scan_42
 Hartree-Fock type      HFTyp           .... RHF
 Total Charge           Charge          ....    0
 Multiplicity           Mult            ....    1
 Number of Electrons    NEL             ....   10
 Basis Dimension        Dim             ....   18
 Nuclear Repulsion      ENuc            ....      1.8794681762 Eh

Convergence Acceleration:
 DIIS                   CNVDIIS         .... on
   Start iteration      DIISMaxIt       ....     0
   Startup error        DIISStart       ....  0.200000
   # of expansion vecs  DIISMaxEq       ....     5
   Bias factor          DIISBfac        ....   1.050
   Max. coefficient     DIISMaxC        ....  10.000
 Newton-Raphson         CNVNR           .... off
 SOSCF                  CNVSOSCF        .... off
 Level Shifting         CNVShift        .... off
 Zerner damping         CNVZerner       .... off
 Static damping         CNVDamp         .... off
 Fernandez-Rico         CNVRico         .... off

SCF Procedure:
 Maximum # iterations   MaxIter         ....   999
 SCF integral mode      SCFMode         .... Direct
   Integral package                     .... LIBINT
 Reset frequeny         DirectResetFreq ....    20
 Integral Threshold     Thresh          ....  1.000e-10 Eh
 Primitive CutOff       TCut            ....  1.000e-11 Eh

Convergence Tolerance:
 Convergence Check Mode ConvCheckMode   .... All-Criteria
 Convergence forced     ConvForced      .... 0
 Energy Change          TolE            ....  1.000e-06 Eh
 Max Density Change     TolMaxP         ....  1.000e-05
 RMS Density Change     TolRMSP         ....  1.000e-06
 DIIS Error             TolErr          ....  1.000e-06


Diagonalization of the overlap matrix:
Smallest eigenvalue                        ... 2.333e-01
Time for diagonalization                   ...    0.000 sec
Threshold for overlap eigenvalues          ... 1.000e-08
Number of eigenvalues below threshold      ... 0
Time for construction of square roots      ...    0.005 sec
Total time needed                          ...    0.006 sec

-------------------
DFT GRID GENERATION
-------------------

General Integration Accuracy     IntAcc      ...  4.340
Radial Grid Type                 RadialGrid  ... Gauss-Chebyshev
Angular Grid (max. acc.)         AngularGrid ... Lebedev-110
Angular grid pruning method      GridPruning ... 3 (G Style)
Weight generation scheme         WeightScheme... Becke
Basis function cutoff            BFCut       ...    1.0000e-10
Integration weight cutoff        WCut        ...    1.0000e-14
Grids for H and He will be reduced by one unit

# of grid points (after initial pruning)     ...   3304 (   0.0 sec)
# of grid points (after weights+screening)   ...   3303 (   0.0 sec)
nearest neighbour list constructed           ...    0.0 sec
Grid point re-assignment to atoms done       ...    0.0 sec
Grid point division into batches done        ...    0.0 sec
Reduced shell lists constructed in    0.0 sec

Total number of grid points                  ...     3303
Total number of batches                      ...       54
Average number of points per batch           ...       61
Average number of grid points per atom       ...     1101
Average number of shells per batch           ...     6.27 (62.73%)
Average number of basis functions per batch  ...    11.65 (64.75%)
Average number of large shells per batch     ...     4.47 (71.30%)
Average number of large basis fcns per batch ...     8.58 (73.63%)
Maximum spatial batch extension              ...  17.31, 20.95, 25.65 au
Average spatial batch extension              ...   6.15,  6.26,  6.22 au

Time for grid setup =    0.020 sec

------------------------------
INITIAL GUESS: MODEL POTENTIAL
------------------------------
Loading Hartree-Fock densities                     ... done
Calculating cut-offs                               ... done
Setting up the integral package                    ... done
Initializing the effective Hamiltonian             ... done
Starting the Coulomb interaction                   ... done (   0.0 sec)
Reading the grid                                   ... done
Mapping shells                                     ... done
Starting the XC term evaluation                    ... done (   0.0 sec)
  promolecular density results
     # of electrons  =      9.999910522
     EX              =     -8.523028273
     EC              =     -0.275854322
     EX+EC           =     -8.798882596
Transforming the Hamiltonian                       ... done (   0.0 sec)
Diagonalizing the Hamiltonian                      ... done (   0.0 sec)
Back transforming the eigenvectors                 ... done (   0.0 sec)
Now organizing SCF variables                       ... done
                      ------------------
                      INITIAL GUESS DONE (   0.1 sec)
                      ------------------
--------------
SCF ITERATIONS
--------------
ITER       Energy         Delta-E        Max-DP      RMS-DP      [F,P]   Gradient Norm
               ***  Starting incremental Fock matrix formation  ***
                             ****Resetting KDIIS****
                             ****Turning on KDIIS(Cayley)****
  0    -74.5315272490   0.000000000000 0.05564641  0.00780751  0.3713988   0.322871532
  1    -74.6384308774  -0.106903628419 0.13886089  0.01783099  0.3208145   0.276501853
  2    -74.8260602482  -0.187629370815 0.11847998  0.01680750  0.1881493   0.165793406
  3    -74.9322294623  -0.106169214037 0.40847118  0.05186824  0.0700713   0.074049957
  4    -74.7215583756   0.210671086677 0.29478203  0.03863488  0.2784810   0.213101506
  5    -74.9238769667  -0.202318591086 0.11751558  0.01600550  0.0408654   0.035982421
  6    -74.8733063342   0.050570632483 0.18405665  0.02326493  0.1358274   0.102051466
  7    -74.9236425071  -0.050336172914 0.01878811  0.00227751  0.0114176   0.006514686
  8    -74.9246490714  -0.001006564303 0.01048528  0.00155721  0.0125843   0.008125616
  9    -74.9237965936   0.000852477820 0.00476918  0.00071192  0.0020033   0.001838015
 10    -74.9239147834  -0.000118189755 0.00656544  0.00093312  0.0032092   0.002073491
 11    -74.9238365249   0.000078258472 0.00289171  0.00054482  0.0036238   0.002948519
 12    -74.9237418033   0.000094721533 0.00414979  0.00061730  0.0013165   0.001252446
 13    -74.9237325899   0.000009213449 0.00085883  0.00013100  0.0004362   0.000305450
                          ***Energy convergence achieved***
 14    -74.9237334302  -0.000000840268 0.00001475  0.00000182  0.0002495   0.000191012
 15    -74.9237334316  -0.000000001442 0.00035271  0.00004650  0.0002559   0.000189580
 16    -74.9237339479  -0.000000516241 0.00045587  0.00006583  0.0003528   0.000235841
 17    -74.9237337147   0.000000233116 0.00043195  0.00005815  0.0002622   0.000188977
 18    -74.9237339504  -0.000000235627 0.00074650  0.00010671  0.0003441   0.000210551
 19    -74.9237352162  -0.000001265856 0.00060761  0.00007839  0.0007079   0.000469682
               *** Restarting incremental Fock matrix formation ***
                             ****Resetting KDIIS****
 20    -74.9237331501   0.000002066106 0.00006831  0.00001153  0.0003702   0.000327325
                          ***Energy convergence achieved***
 21    -74.9237333818  -0.000000231680 0.00015336  0.00002115  0.0002991   0.000285177
 22    -74.9237335419  -0.000000160087 0.00008506  0.00001449  0.0002705   0.000174133
 23    -74.9237334449   0.000000096957 0.00023223  0.00003051  0.0001592   0.000105211

            ***Energy convergence in two consecutive cycles with***
                    ***'reasonable' density convergence***
                       *** signaling convergence ***

                    *** KDIIS BlockDiag ( 0.000 sec) ***

               *****************************************************
               *                     SUCCESS                       *
               *           SCF CONVERGED AFTER  24 CYCLES          *
               *****************************************************

Setting up the final grid:

General Integration Accuracy     IntAcc      ...  4.670
Radial Grid Type                 RadialGrid  ... Gauss-Chebyshev
Angular Grid (max. acc.)         AngularGrid ... Lebedev-302
Angular grid pruning method      GridPruning ... 3 (G Style)
Weight generation scheme         WeightScheme... Becke
Basis function cutoff            BFCut       ...    1.0000e-10
Integration weight cutoff        WCut        ...    1.0000e-14
Grids for H and He will be reduced by one unit

# of grid points (after initial pruning)     ...  13000 (   0.0 sec)
# of grid points (after weights+screening)   ...  12989 (   0.0 sec)
nearest neighbour list constructed           ...    0.0 sec
Grid point re-assignment to atoms done       ...    0.0 sec
Grid point division into batches done        ...    0.0 sec
Reduced shell lists constructed in    0.1 sec

Total number of grid points                  ...    12989
Total number of batches                      ...      204
Average number of points per batch           ...       63
Average number of grid points per atom       ...     4330
Average number of shells per batch           ...     5.23 (52.29%)
Average number of basis functions per batch  ...     9.64 (53.55%)
Average number of large shells per batch     ...     3.77 (72.01%)
Average number of large basis fcns per batch ...     7.13 (73.99%)
Maximum spatial batch extension              ...  16.92, 16.88, 15.46 au
Average spatial batch extension              ...   4.04,  4.13,  4.04 au

Final grid set up in    0.1 sec
Final integration                            ... done (   0.1 sec)
Change in XC energy                          ...    -0.000201233
Integrated number of electrons               ...     9.999941161
Previous integrated no of electrons          ...    10.002151869

----------------
TOTAL SCF ENERGY
----------------

Total Energy       :          -74.92393455 Eh           -2038.78391 eV

Components:
Nuclear Repulsion  :            1.87946818 Eh              51.14293 eV
Electronic Energy  :          -76.80340273 Eh           -2089.92684 eV
One Electron Energy:         -113.81974305 Eh           -3097.19267 eV
Two Electron Energy:           37.01634032 Eh            1007.26583 eV

Virial components:
Potential Energy   :         -149.76885431 Eh           -4075.41772 eV
Kinetic Energy     :           74.84491976 Eh            2036.63381 eV
Virial Ratio       :            2.00105571


DFT components:
N(Alpha)           :        4.999970580426 electrons
N(Beta)            :        4.999970580426 electrons
N(Total)           :        9.999941160851 electrons
E(XC)              :       -6.389370138197 Eh       

---------------
SCF CONVERGENCE
---------------

  Last Energy change         ...    1.2613e-07  Tolerance :   1.0000e-06
  Last MAX-Density change    ...    5.8333e-05  Tolerance :   1.0000e-05
  Last RMS-Density change    ...    8.1409e-06  Tolerance :   1.0000e-06
  Last DIIS Error            ...    8.6575e-06  Tolerance :   1.0000e-06

             **** THE GBW FILE WAS UPDATED (Scan_42.gbw) ****
             **** DENSITY FILE WAS UPDATED (Scan_42.scfp.tmp) ****
             **** ENERGY FILE WAS UPDATED (Scan_42.en.tmp) ****
----------------
ORBITAL ENERGIES
----------------

  NO   OCC          E(Eh)            E(eV) 
   0   2.0000     -18.484052      -502.9766 
   1   2.0000      -0.238189        -6.4815 
   2   2.0000       0.323495         8.8027 
   3   2.0000       0.324090         8.8189 
   4   2.0000       0.325876         8.8675 
   5   0.0000      -0.340734        -9.2719 
   6   0.0000      -0.340712        -9.2712 
   7   0.0000       0.619385        16.8543 
   8   0.0000       0.619414        16.8551 
   9   0.0000       1.635355        44.5003 
  10   0.0000       1.635909        44.5153 
  11   0.0000       1.639254        44.6064 
  12   0.0000       1.748161        47.5699 
  13   0.0000       2.621382        71.3314 
  14   0.0000       2.621517        71.3351 
  15   0.0000       2.622693        71.3671 
  16   0.0000       2.623048        71.3768 
  17   0.0000       2.623237        71.3819 

                    ********************************
                    * MULLIKEN POPULATION ANALYSIS *
                    ********************************

-----------------------
MULLIKEN ATOMIC CHARGES
-----------------------
   0 O :   -1.999794
   1 H :    0.999897
   2 H :    0.999898
Sum of atomic charges:    0.0000000

--------------------------------
MULLIKEN REDUCED ORBITAL CHARGES
--------------------------------
  0 O s       :     4.000079  s :     4.000079
      pz      :     1.999896  p :     5.999627
      px      :     1.999836
      py      :     1.999895
      dz2     :     0.000017  d :     0.000088
      dxz     :     0.000017
      dyz     :     0.000019
      dx2y2   :     0.000018
      dxy     :     0.000017
  1 H s       :     0.000103  s :     0.000103
  2 H s       :     0.000102  s :     0.000102


                     *******************************
                     * LOEWDIN POPULATION ANALYSIS *
                     *******************************

----------------------
LOEWDIN ATOMIC CHARGES
----------------------
   0 O :   -1.999802
   1 H :    0.999900
   2 H :    0.999902

-------------------------------
LOEWDIN REDUCED ORBITAL CHARGES
-------------------------------
  0 O s       :     4.000079  s :     4.000079
      pz      :     1.999898  p :     5.999634
      px      :     1.999840
      py      :     1.999897
      dz2     :     0.000017  d :     0.000088
      dxz     :     0.000017
      dyz     :     0.000019
      dx2y2   :     0.000018
      dxy     :     0.000017
  1 H s       :     0.000100  s :     0.000100
  2 H s       :     0.000098  s :     0.000098


                      *****************************
                      * MAYER POPULATION ANALYSIS *
                      *****************************

  NA   - Mulliken gross atomic population
  ZA   - Total nuclear charge
  QA   - Mulliken gross atomic charge
  VA   - Mayer's total valence
  BVA  - Mayer's bonded valence
  FA   - Mayer's free valence

  ATOM       NA         ZA         QA         VA         BVA        FA
  0 O      9.9998     8.0000    -1.9998     0.0004     0.0004     0.0000
  1 H      0.0001     1.0000     0.9999     0.0002     0.0002    -0.0000
  2 H      0.0001     1.0000     0.9999     0.0002     0.0002     0.0000

  Mayer bond orders larger than 0.1


-------
TIMINGS
-------

Total SCF time: 0 days 0 hours 0 min 6 sec 

Total time                  ....       6.729 sec
Sum of individual times     ....       6.452 sec  ( 95.9%)

Fock matrix formation       ....       6.186 sec  ( 91.9%)
  XC integration            ....       1.034 sec  ( 16.7% of F)
    Basis function eval.    ....       0.140 sec  ( 13.6% of XC)
    Density eval.           ....       0.039 sec  (  3.8% of XC)
    XC-Functional eval.     ....       0.292 sec  ( 28.3% of XC)
    XC-Potential eval.      ....       0.012 sec  (  1.1% of XC)
Diagonalization             ....       0.039 sec  (  0.6%)
Density matrix formation    ....       0.000 sec  (  0.0%)
Population analysis         ....       0.009 sec  (  0.1%)
Initial guess               ....       0.119 sec  (  1.8%)
Orbital Transformation      ....       0.000 sec  (  0.0%)
Orbital Orthonormalization  ....       0.000 sec  (  0.0%)
DIIS solution               ....       0.000 sec  (  0.0%)
Grid generation             ....       0.097 sec  (  1.4%)


-------------------------------------------------------------------------------
                          DFT DISPERSION CORRECTION                            
                                                                               
                              DFTD3 V3.1  Rev 1                                
                              USING zero damping                               
-------------------------------------------------------------------------------
The omegaB97X-D3 functional is recognized. Fit by Chai et al.
Active option DFTDOPT                   ...         3   

molecular C6(AA) [au] = 85.411261 


            DFT-D V3
 parameters
 s6 scaling factor         :     1.0000 
 rs6 scaling factor        :     1.2810 
 s8 scaling factor         :     1.0000 
 rs8 scaling factor        :     1.0940 
 Damping factor alpha6     :    14.0000 
 Damping factor alpha8     :    16.0000 
 ad hoc parameters k1-k3   :    16.0000     1.3333    -4.0000 

 Edisp/kcal,au: -0.032016184683  -0.000051021032 
 E6   /kcal   :  -0.026785005 
 E8   /kcal   :  -0.005231180 
 % E8         :  16.339172384 

-------------------------   ----------------
Dispersion correction           -0.000051021
-------------------------   ----------------


-------------------------   --------------------
FINAL SINGLE POINT ENERGY       -74.923985572760
-------------------------   --------------------


                            ***************************************
                            *     ORCA property calculations      *
                            ***************************************

                                    ---------------------
                                    Active property flags
                                    ---------------------
   (+) Dipole Moment


------------------------------------------------------------------------------
                       ORCA ELECTRIC PROPERTIES CALCULATION
------------------------------------------------------------------------------

Dipole Moment Calculation                       ... on
Quadrupole Moment Calculation                   ... off
Polarizability Calculation                      ... off
GBWName                                         ... Scan_42.gbw
Electron density file                           ... Scan_42.scfp.tmp

-------------
DIPOLE MOMENT
-------------
                                X             Y             Z
Electronic contribution:      3.76493       3.77172       3.75822
Nuclear contribution   :      2.98428       2.98964       2.97894
                        -----------------------------------------
Total Dipole Moment    :      6.74922       6.76136       6.73716
                        -----------------------------------------
Magnitude (a.u.)       :     11.69005
Magnitude (Debye)      :     29.71374


Timings for individual modules:

Sum of individual times         ...        7.184 sec (=   0.120 min)
GTO integral calculation        ...        0.411 sec (=   0.007 min)   5.7 %
SCF iterations                  ...        6.773 sec (=   0.113 min)  94.3 %
                             ****ORCA TERMINATED NORMALLY****
TOTAL RUN TIME: 0 days 0 hours 0 minutes 7 seconds 583 msec
