
                                 *****************
                                 * O   R   C   A *
                                 *****************

           --- An Ab Initio, DFT and Semiempirical electronic structure package ---

                  #######################################################
                  #                        -***-                        #
                  #  Department of molecular theory and spectroscopy    #
                  #              Directorship: Frank Neese              #
                  # Max Planck Institute for Chemical Energy Conversion #
                  #                  D-45470 Muelheim/Ruhr              #
                  #                       Germany                       #
                  #                                                     #
                  #                  All rights reserved                #
                  #                        -***-                        #
                  #######################################################


                         Program Version 4.0.0.2 - RELEASE -


 With contributions from (in alphabetic order):
   Daniel Aravena         : Magnetic Properties
   Michael Atanasov       : Ab Initio Ligand Field Theory
   Ute Becker             : Parallelization
   Martin Brehm           : Molecular dynamics
   Dmytro Bykov           : SCF Hessian
   Vijay G. Chilkuri      : MRCI spin determinant printing
   Dipayan Datta          : RHF DLPNO-CCSD density
   Achintya Kumar Dutta   : EOM-CC, STEOM-CC
   Dmitry Ganyushin       : Spin-Orbit,Spin-Spin,Magnetic field MRCI
   Yang Guo               : DLPNO-NEVPT2, CIM, IAO-localization
   Andreas Hansen         : Spin unrestricted coupled pair/coupled cluster methods
   Lee Huntington         : MR-EOM, pCC
   Robert Izsak           : Overlap fitted RIJCOSX, COSX-SCS-MP3, EOM
   Christian Kollmar      : KDIIS, OOCD, Brueckner-CCSD(T), CCSD density
   Simone Kossmann        : Meta GGA functionals, TD-DFT gradient, OOMP2, MP2 Hessian
   Martin Krupicka        : AUTO-CI
   Dagmar Lenk            : GEPOL surface
   Dimitrios Liakos       : Extrapolation schemes; parallel MDCI
   Dimitrios Manganas     : ROCIS; embedding schemes
   Dimitrios Pantazis     : SARC Basis sets
   Taras Petrenko         : DFT Hessian,TD-DFT gradient, ASA, ECA, R-Raman, ABS, FL, XAS/XES, NRVS
   Peter Pinski           : DLPNO-MP2
   Christoph Reimann      : Effective Core Potentials
   Marius Retegan         : Local ZFS, SOC
   Christoph Riplinger    : Optimizer, TS searches, QM/MM, DLPNO-CCSD(T), (RO)-DLPNO pert. Triples
   Tobias Risthaus        : Range-separated hybrids, TD-DFT gradient, RPA, STAB
   Michael Roemelt        : Restricted open shell CIS
   Masaaki Saitow         : Open-shell DLPNO
   Barbara Sandhoefer     : DKH picture change effects
   Kantharuban Sivalingam : CASSCF convergence, NEVPT2, FIC-MRCI
   Georgi Stoychev        : AutoAux
   Boris Wezisla          : Elementary symmetry handling
   Frank Wennmohs         : Technical directorship


 We gratefully acknowledge several colleagues who have allowed us to
 interface, adapt or use parts of their codes:
   Stefan Grimme, W. Hujo, H. Kruse,             : VdW corrections, initial TS optimization,
                  C. Bannwarth                     DFT functionals, gCP, sTDA/sTD-DF
   Ed Valeev                                     : LibInt (2-el integral package), F12 methods
   Garnet Chan, S. Sharma, J. Yang, R. Olivares  : DMRG
   Ulf Ekstrom                                   : XCFun DFT Library
   Mihaly Kallay                                 : mrcc  (arbitrary order and MRCC methods)
   Jiri Pittner, Ondrej Demel                    : Mk-CCSD
   Frank Weinhold                                : gennbo (NPA and NBO analysis)
   Christopher J. Cramer and Donald G. Truhlar   : smd solvation model


 Your calculation uses the libint2 library for the computation of 2-el integrals
 For citations please refer to: http://libint.valeyev.net

 This ORCA versions uses:
   CBLAS   interface :  Fast vector & matrix operations
   LAPACKE interface :  Fast linear algebra routines
   SCALAPACK package :  Parallel linear algebra routines


Your calculation utilizes the atom-pairwise dispersion correction
with the zero-damping scheme (D30)
Cite in your paper:
S.Grimme, J.Antony, S.Ehrlich and H.Krieg, J.Chem.Phys., 132, (2010), 154104 
   

XCFun DFT library Copyright 2009-2010 Ulf Ekstrom and contributors.
See http://admol.org/xcfun for more information. This is free soft-
ware; see the source code for copying conditions. There is ABSOLUTELY
NO WARRANTY; not even for MERCHANTABILITY or FITNESS FOR A PARTICULAR
PURPOSE. For details see the documentation. Scientific users of this 
library should cite U. Ekstrom, L. Visscher, R. Bast, A. J. Thorvald-
sen and K. Ruud; J.Chem.Theor.Comp. 2010, DOI: 10.1021/ct100117s
XCFun Version 0.99 
Your calculation utilizes the basis: 6-31G(d)
   H-He, Li-Ne : W. J. Hehre, R. Ditchfield and J.A. Pople, J. Chem. Phys. 56, 2257 (1972).
                 Note: He and Ne are unpublished basis sets taken from the Gaussian program.
                 Note: Li and B from J. D. Dill and J. A. Pople, J. Chem. Phys. 62, 2921 (1975).
   Na - Ar     : M. M. Francl, W. J. Pietro, W. J. Hehre, J. S. Binkley, M. S. Gordon, 
                 D. J. DeFrees and J. A. Pople, J. Chem. Phys. 77, 3654 (1982).
   K - Zn      : V. A. Rassolov, J. A. Pople, M. A. Ratner, and T. L. Windus, J. Chem. Phys. 109, 1223 (1998).

================================================================================
                                        WARNINGS
                       Please study these warnings very carefully!
================================================================================

Warning: TCutStore was < 0. Adjusted to Thresh (uncritical)

INFO   : the flag for use of LIBINT has been found!

================================================================================
                                       INPUT FILE
================================================================================
NAME = initial44.inp
|  1> ! WB97X-D3 6-31G(d) VerySlowConv
|  2> ! KDIIS NOSOSCF
|  3> %base "Scan_44"
|  4> 
|  5> %scf
|  6> maxiter 999
|  7> end
|  8> 
|  9> * xyz 0 1
| 10> O         -1.138451398081    0.507607396425   -1.067461562771
| 11> H          3.714552544831    0.973052439179   -0.603688658673
| 12> H         -2.136661146750    3.903880164396    2.316660221444
| 13> **                         ****END OF INPUT****
================================================================================

                       ****************************
                       * Single Point Calculation *
                       ****************************

---------------------------------
CARTESIAN COORDINATES (ANGSTROEM)
---------------------------------
  O     -1.138451    0.507607   -1.067462
  H      3.714553    0.973052   -0.603689
  H     -2.136661    3.903880    2.316660

----------------------------
CARTESIAN COORDINATES (A.U.)
----------------------------
  NO LB      ZA    FRAG     MASS         X           Y           Z
   0 O     8.0000    0    15.999   -2.151361    0.959239   -2.017210
   1 H     1.0000    0     1.008    7.019487    1.838803   -1.140806
   2 H     1.0000    0     1.008   -4.037704    7.377264    4.377853

--------------------------------
INTERNAL COORDINATES (ANGSTROEM)
--------------------------------
 O      0   0   0     0.000000000000     0.00000000     0.00000000
 H      1   0   0     4.897282069099     0.00000000     0.00000000
 H      1   2   0     4.897282069393    94.05047967     0.00000000

---------------------------
INTERNAL COORDINATES (A.U.)
---------------------------
 O      0   0   0     0.000000000000     0.00000000     0.00000000
 H      1   0   0     9.254521911160     0.00000000     0.00000000
 H      1   2   0     9.254521911716    94.05047967     0.00000000

---------------------
BASIS SET INFORMATION
---------------------
There are 2 groups of distinct atoms

 Group   1 Type O   : 10s4p1d contracted to 3s2p1d pattern {631/31/1}
 Group   2 Type H   : 4s contracted to 2s pattern {31}

Atom   0O    basis set group =>   1
Atom   1H    basis set group =>   2
Atom   2H    basis set group =>   2
------------------------------------------------------------------------------
                           ORCA GTO INTEGRAL CALCULATION
------------------------------------------------------------------------------

                         BASIS SET STATISTICS AND STARTUP INFO

 # of primitive gaussian shells          ...   23
 # of primitive gaussian functions       ...   35
 # of contracted shells                  ...   10
 # of contracted basis functions         ...   18
 Highest angular momentum                ...    2
 Maximum contraction depth               ...    6
 Integral package used                   ... LIBINT
 Integral threshhold            Thresh   ...  1.000e-10
 Primitive cut-off              TCut     ...  1.000e-11


------------------------------ INTEGRAL EVALUATION ----------------------------


 * One electron integrals 
 Pre-screening matrix                    ... done
 Shell pair data                         ... done (   0.000 sec)

-------------------------------------------------------------------------------
                                 ORCA SCF
-------------------------------------------------------------------------------

------------
SCF SETTINGS
------------
Hamiltonian:
 Density Functional     Method          .... DFT(GTOs)
 Exchange Functional    Exchange        .... WB97X-D3
 Correlation Functional Correlation     .... WB97X-D3
 Gradients option       PostSCFGGA      .... off
 Hybrid DFT is turned on
   Fraction HF Exchange ScalHFX         ....  0.195728
   Scaling of DF-GGA-X  ScalDFX         ....  0.000000
   Scaling of DF-GGA-C  ScalDFC         ....  1.000000
   Scaling of DF-LDA-C  ScalLDAC        ....  1.000000
   Perturbative correction              ....  0.000000
 Long-range corrected/Screened/Range-Separated Hybrid DFT is turned on
   Amount of maximum screened exact exchange              ....  0.804272
   Range separation parameter mu (erf(mu*r12)/r12)        ....  0.250000


General Settings:
 Integral files         IntName         .... Scan_44
 Hartree-Fock type      HFTyp           .... RHF
 Total Charge           Charge          ....    0
 Multiplicity           Mult            ....    1
 Number of Electrons    NEL             ....   10
 Basis Dimension        Dim             ....   18
 Nuclear Repulsion      ENuc            ....      1.8027277076 Eh

Convergence Acceleration:
 DIIS                   CNVDIIS         .... on
   Start iteration      DIISMaxIt       ....     0
   Startup error        DIISStart       ....  0.200000
   # of expansion vecs  DIISMaxEq       ....     5
   Bias factor          DIISBfac        ....   1.050
   Max. coefficient     DIISMaxC        ....  10.000
 Newton-Raphson         CNVNR           .... off
 SOSCF                  CNVSOSCF        .... off
 Level Shifting         CNVShift        .... off
 Zerner damping         CNVZerner       .... off
 Static damping         CNVDamp         .... off
 Fernandez-Rico         CNVRico         .... off

SCF Procedure:
 Maximum # iterations   MaxIter         ....   999
 SCF integral mode      SCFMode         .... Direct
   Integral package                     .... LIBINT
 Reset frequeny         DirectResetFreq ....    20
 Integral Threshold     Thresh          ....  1.000e-10 Eh
 Primitive CutOff       TCut            ....  1.000e-11 Eh

Convergence Tolerance:
 Convergence Check Mode ConvCheckMode   .... All-Criteria
 Convergence forced     ConvForced      .... 0
 Energy Change          TolE            ....  1.000e-06 Eh
 Max Density Change     TolMaxP         ....  1.000e-05
 RMS Density Change     TolRMSP         ....  1.000e-06
 DIIS Error             TolErr          ....  1.000e-06


Diagonalization of the overlap matrix:
Smallest eigenvalue                        ... 2.333e-01
Time for diagonalization                   ...    0.000 sec
Threshold for overlap eigenvalues          ... 1.000e-08
Number of eigenvalues below threshold      ... 0
Time for construction of square roots      ...    0.005 sec
Total time needed                          ...    0.005 sec

-------------------
DFT GRID GENERATION
-------------------

General Integration Accuracy     IntAcc      ...  4.340
Radial Grid Type                 RadialGrid  ... Gauss-Chebyshev
Angular Grid (max. acc.)         AngularGrid ... Lebedev-110
Angular grid pruning method      GridPruning ... 3 (G Style)
Weight generation scheme         WeightScheme... Becke
Basis function cutoff            BFCut       ...    1.0000e-10
Integration weight cutoff        WCut        ...    1.0000e-14
Grids for H and He will be reduced by one unit

# of grid points (after initial pruning)     ...   3304 (   0.0 sec)
# of grid points (after weights+screening)   ...   3303 (   0.0 sec)
nearest neighbour list constructed           ...    0.0 sec
Grid point re-assignment to atoms done       ...    0.0 sec
Grid point division into batches done        ...    0.0 sec
Reduced shell lists constructed in    0.0 sec

Total number of grid points                  ...     3303
Total number of batches                      ...       54
Average number of points per batch           ...       61
Average number of grid points per atom       ...     1101
Average number of shells per batch           ...     6.09 (60.91%)
Average number of basis functions per batch  ...    11.36 (63.13%)
Average number of large shells per batch     ...     4.31 (70.75%)
Average number of large basis fcns per batch ...     8.42 (74.08%)
Maximum spatial batch extension              ...  17.31, 20.95, 25.65 au
Average spatial batch extension              ...   6.36,  6.39,  6.40 au

Time for grid setup =    0.016 sec

------------------------------
INITIAL GUESS: MODEL POTENTIAL
------------------------------
Loading Hartree-Fock densities                     ... done
Calculating cut-offs                               ... done
Setting up the integral package                    ... done
Initializing the effective Hamiltonian             ... done
Starting the Coulomb interaction                   ... done (   0.0 sec)
Reading the grid                                   ... done
Mapping shells                                     ... done
Starting the XC term evaluation                    ... done (   0.0 sec)
  promolecular density results
     # of electrons  =      9.999722650
     EX              =     -8.522998252
     EC              =     -0.275852551
     EX+EC           =     -8.798850803
Transforming the Hamiltonian                       ... done (   0.0 sec)
Diagonalizing the Hamiltonian                      ... done (   0.0 sec)
Back transforming the eigenvectors                 ... done (   0.0 sec)
Now organizing SCF variables                       ... done
                      ------------------
                      INITIAL GUESS DONE (   0.1 sec)
                      ------------------
--------------
SCF ITERATIONS
--------------
ITER       Energy         Delta-E        Max-DP      RMS-DP      [F,P]   Gradient Norm
               ***  Starting incremental Fock matrix formation  ***
                             ****Resetting KDIIS****
                             ****Turning on KDIIS(Cayley)****
  0    -74.5138644870   0.000000000000 0.05563570  0.00762400  0.3729877   0.322878649
  1    -74.6191405823  -0.105276095306 0.14004286  0.01784778  0.3229211   0.277211763
  2    -74.8079082667  -0.188767684379 0.11530004  0.01587858  0.1885381   0.165491886
  3    -74.9019241739  -0.094015907195 0.23884990  0.03051953  0.0879805   0.073736511
  4    -74.8392676042   0.062656569655 0.11527196  0.01542105  0.1524609   0.116804629
  5    -74.8970572014  -0.057789597204 0.05649117  0.00770903  0.0551230   0.042755852
  6    -74.8750084352   0.022048766256 0.11599408  0.01640110  0.1034639   0.079565827
  7    -74.9061358668  -0.031127431612 0.00426639  0.00083793  0.0036184   0.003128469
  8    -74.9062305184  -0.000094651632 0.00782454  0.00090340  0.0023431   0.001555400
  9    -74.9061503229   0.000080195512 0.00526206  0.00071627  0.0021446   0.001337761
 10    -74.9062758298  -0.000125506884 0.00639684  0.00089160  0.0057765   0.002847379
 11    -74.9061380338   0.000137796032 0.00097850  0.00016732  0.0004496   0.000294363
 12    -74.9061472245  -0.000009190707 0.00140142  0.00018563  0.0015109   0.001020934
 13    -74.9061370721   0.000010152378 0.00036237  0.00005995  0.0003493   0.000317319
                          ***Energy convergence achieved***
 14    -74.9061374036  -0.000000331459 0.00014594  0.00002547  0.0000871   0.000076210
 15    -74.9061375869  -0.000000183294 0.00022928  0.00003294  0.0003024   0.000160230
 16    -74.9061373582   0.000000228647 0.00014943  0.00001941  0.0001104   0.000076365
 17    -74.9061374626  -0.000000104374 0.00021349  0.00003289  0.0002140   0.000151328

            ***Energy convergence in two consecutive cycles with***
                    ***'reasonable' density convergence***
                       *** signaling convergence ***

                    *** KDIIS BlockDiag ( 0.000 sec) ***

               *****************************************************
               *                     SUCCESS                       *
               *           SCF CONVERGED AFTER  18 CYCLES          *
               *****************************************************

Setting up the final grid:

General Integration Accuracy     IntAcc      ...  4.670
Radial Grid Type                 RadialGrid  ... Gauss-Chebyshev
Angular Grid (max. acc.)         AngularGrid ... Lebedev-302
Angular grid pruning method      GridPruning ... 3 (G Style)
Weight generation scheme         WeightScheme... Becke
Basis function cutoff            BFCut       ...    1.0000e-10
Integration weight cutoff        WCut        ...    1.0000e-14
Grids for H and He will be reduced by one unit

# of grid points (after initial pruning)     ...  13000 (   0.0 sec)
# of grid points (after weights+screening)   ...  12990 (   0.0 sec)
nearest neighbour list constructed           ...    0.0 sec
Grid point re-assignment to atoms done       ...    0.0 sec
Grid point division into batches done        ...    0.0 sec
Reduced shell lists constructed in    0.1 sec

Total number of grid points                  ...    12990
Total number of batches                      ...      205
Average number of points per batch           ...       63
Average number of grid points per atom       ...     4330
Average number of shells per batch           ...     5.10 (51.02%)
Average number of basis functions per batch  ...     9.37 (52.08%)
Average number of large shells per batch     ...     3.72 (72.88%)
Average number of large basis fcns per batch ...     7.08 (75.50%)
Maximum spatial batch extension              ...  16.92, 22.27, 22.27 au
Average spatial batch extension              ...   3.93,  4.07,  4.02 au

Final grid set up in    0.1 sec
Final integration                            ... done (   0.1 sec)
Change in XC energy                          ...    -0.000246606
Integrated number of electrons               ...     9.999930340
Previous integrated no of electrons          ...    10.001727133

----------------
TOTAL SCF ENERGY
----------------

Total Energy       :          -74.90638394 Eh           -2038.30633 eV

Components:
Nuclear Repulsion  :            1.80272771 Eh              49.05471 eV
Electronic Energy  :          -76.70911165 Eh           -2087.36105 eV
One Electron Energy:         -113.72601864 Eh           -3094.64230 eV
Two Electron Energy:           37.01690699 Eh            1007.28125 eV

Virial components:
Potential Energy   :         -149.75120213 Eh           -4074.93738 eV
Kinetic Energy     :           74.84481819 Eh            2036.63104 eV
Virial Ratio       :            2.00082258


DFT components:
N(Alpha)           :        4.999965170181 electrons
N(Beta)            :        4.999965170181 electrons
N(Total)           :        9.999930340362 electrons
E(XC)              :       -6.389415423971 Eh       

---------------
SCF CONVERGENCE
---------------

  Last Energy change         ...    1.2704e-07  Tolerance :   1.0000e-06
  Last MAX-Density change    ...    1.5231e-05  Tolerance :   1.0000e-05
  Last RMS-Density change    ...    2.3156e-06  Tolerance :   1.0000e-06
  Last DIIS Error            ...    4.4318e-05  Tolerance :   1.0000e-06

             **** THE GBW FILE WAS UPDATED (Scan_44.gbw) ****
             **** DENSITY FILE WAS UPDATED (Scan_44.scfp.tmp) ****
             **** ENERGY FILE WAS UPDATED (Scan_44.en.tmp) ****
----------------
ORBITAL ENERGIES
----------------

  NO   OCC          E(Eh)            E(eV) 
   0   2.0000     -18.474548      -502.7180 
   1   2.0000      -0.228682        -6.2227 
   2   2.0000       0.333198         9.0668 
   3   2.0000       0.333525         9.0757 
   4   2.0000       0.335190         9.1210 
   5   0.0000      -0.349953        -9.5227 
   6   0.0000      -0.349911        -9.5216 
   7   0.0000       0.610526        16.6132 
   8   0.0000       0.610536        16.6135 
   9   0.0000       1.644868        44.7591 
  10   0.0000       1.645672        44.7810 
  11   0.0000       1.648494        44.8578 
  12   0.0000       1.757494        47.8238 
  13   0.0000       2.631039        71.5942 
  14   0.0000       2.631113        71.5962 
  15   0.0000       2.632194        71.6256 
  16   0.0000       2.632383        71.6308 
  17   0.0000       2.632626        71.6374 

                    ********************************
                    * MULLIKEN POPULATION ANALYSIS *
                    ********************************

-----------------------
MULLIKEN ATOMIC CHARGES
-----------------------
   0 O :   -1.999924
   1 H :    0.999962
   2 H :    0.999962
Sum of atomic charges:    0.0000000

--------------------------------
MULLIKEN REDUCED ORBITAL CHARGES
--------------------------------
  0 O s       :     4.000073  s :     4.000073
      pz      :     1.999931  p :     5.999772
      px      :     1.999910
      py      :     1.999931
      dz2     :     0.000015  d :     0.000079
      dxz     :     0.000015
      dyz     :     0.000016
      dx2y2   :     0.000016
      dxy     :     0.000015
  1 H s       :     0.000038  s :     0.000038
  2 H s       :     0.000038  s :     0.000038


                     *******************************
                     * LOEWDIN POPULATION ANALYSIS *
                     *******************************

----------------------
LOEWDIN ATOMIC CHARGES
----------------------
   0 O :   -1.999926
   1 H :    0.999963
   2 H :    0.999963

-------------------------------
LOEWDIN REDUCED ORBITAL CHARGES
-------------------------------
  0 O s       :     4.000073  s :     4.000073
      pz      :     1.999932  p :     5.999775
      px      :     1.999911
      py      :     1.999932
      dz2     :     0.000015  d :     0.000079
      dxz     :     0.000015
      dyz     :     0.000016
      dx2y2   :     0.000016
      dxy     :     0.000015
  1 H s       :     0.000037  s :     0.000037
  2 H s       :     0.000037  s :     0.000037


                      *****************************
                      * MAYER POPULATION ANALYSIS *
                      *****************************

  NA   - Mulliken gross atomic population
  ZA   - Total nuclear charge
  QA   - Mulliken gross atomic charge
  VA   - Mayer's total valence
  BVA  - Mayer's bonded valence
  FA   - Mayer's free valence

  ATOM       NA         ZA         QA         VA         BVA        FA
  0 O      9.9999     8.0000    -1.9999     0.0002     0.0002     0.0000
  1 H      0.0000     1.0000     1.0000     0.0001     0.0001     0.0000
  2 H      0.0000     1.0000     1.0000     0.0001     0.0001     0.0000

  Mayer bond orders larger than 0.1


-------
TIMINGS
-------

Total SCF time: 0 days 0 hours 0 min 4 sec 

Total time                  ....       4.344 sec
Sum of individual times     ....       4.122 sec  ( 94.9%)

Fock matrix formation       ....       3.891 sec  ( 89.6%)
  XC integration            ....       0.935 sec  ( 24.0% of F)
    Basis function eval.    ....       0.108 sec  ( 11.5% of XC)
    Density eval.           ....       0.031 sec  (  3.3% of XC)
    XC-Functional eval.     ....       0.221 sec  ( 23.7% of XC)
    XC-Potential eval.      ....       0.009 sec  (  1.0% of XC)
Diagonalization             ....       0.018 sec  (  0.4%)
Density matrix formation    ....       0.000 sec  (  0.0%)
Population analysis         ....       0.010 sec  (  0.2%)
Initial guess               ....       0.107 sec  (  2.5%)
Orbital Transformation      ....       0.000 sec  (  0.0%)
Orbital Orthonormalization  ....       0.000 sec  (  0.0%)
DIIS solution               ....       0.000 sec  (  0.0%)
Grid generation             ....       0.095 sec  (  2.2%)


-------------------------------------------------------------------------------
                          DFT DISPERSION CORRECTION                            
                                                                               
                              DFTD3 V3.1  Rev 1                                
                              USING zero damping                               
-------------------------------------------------------------------------------
The omegaB97X-D3 functional is recognized. Fit by Chai et al.
Active option DFTDOPT                   ...         3   

molecular C6(AA) [au] = 85.411277 


            DFT-D V3
 parameters
 s6 scaling factor         :     1.0000 
 rs6 scaling factor        :     1.2810 
 s8 scaling factor         :     1.0000 
 rs8 scaling factor        :     1.0940 
 Damping factor alpha6     :    14.0000 
 Damping factor alpha8     :    16.0000 
 ad hoc parameters k1-k3   :    16.0000     1.3333    -4.0000 

 Edisp/kcal,au: -0.024600724814  -0.000039203746 
 E6   /kcal   :  -0.020873634 
 E8   /kcal   :  -0.003727090 
 % E8         :  15.150327457 

-------------------------   ----------------
Dispersion correction           -0.000039204
-------------------------   ----------------


-------------------------   --------------------
FINAL SINGLE POINT ENERGY       -74.906423145592
-------------------------   --------------------


                            ***************************************
                            *     ORCA property calculations      *
                            ***************************************

                                    ---------------------
                                    Active property flags
                                    ---------------------
   (+) Dipole Moment


------------------------------------------------------------------------------
                       ORCA ELECTRIC PROPERTIES CALCULATION
------------------------------------------------------------------------------

Dipole Moment Calculation                       ... on
Quadrupole Moment Calculation                   ... off
Polarizability Calculation                      ... off
GBWName                                         ... Scan_44.gbw
Electron density file                           ... Scan_44.scfp.tmp

-------------
DIPOLE MOMENT
-------------
                                X             Y             Z
Electronic contribution:      4.05170       4.05892       4.04440
Nuclear contribution   :      3.20858       3.21434       3.20284
                        -----------------------------------------
Total Dipole Moment    :      7.26028       7.27327       7.24723
                        -----------------------------------------
Magnitude (a.u.)       :     12.57515
Magnitude (Debye)      :     31.96349


Timings for individual modules:

Sum of individual times         ...        4.716 sec (=   0.079 min)
GTO integral calculation        ...        0.329 sec (=   0.005 min)   7.0 %
SCF iterations                  ...        4.387 sec (=   0.073 min)  93.0 %
                             ****ORCA TERMINATED NORMALLY****
TOTAL RUN TIME: 0 days 0 hours 0 minutes 5 seconds 63 msec
