
                                 *****************
                                 * O   R   C   A *
                                 *****************

           --- An Ab Initio, DFT and Semiempirical electronic structure package ---

                  #######################################################
                  #                        -***-                        #
                  #  Department of molecular theory and spectroscopy    #
                  #              Directorship: Frank Neese              #
                  # Max Planck Institute for Chemical Energy Conversion #
                  #                  D-45470 Muelheim/Ruhr              #
                  #                       Germany                       #
                  #                                                     #
                  #                  All rights reserved                #
                  #                        -***-                        #
                  #######################################################


                         Program Version 4.0.0.2 - RELEASE -


 With contributions from (in alphabetic order):
   Daniel Aravena         : Magnetic Properties
   Michael Atanasov       : Ab Initio Ligand Field Theory
   Ute Becker             : Parallelization
   Martin Brehm           : Molecular dynamics
   Dmytro Bykov           : SCF Hessian
   Vijay G. Chilkuri      : MRCI spin determinant printing
   Dipayan Datta          : RHF DLPNO-CCSD density
   Achintya Kumar Dutta   : EOM-CC, STEOM-CC
   Dmitry Ganyushin       : Spin-Orbit,Spin-Spin,Magnetic field MRCI
   Yang Guo               : DLPNO-NEVPT2, CIM, IAO-localization
   Andreas Hansen         : Spin unrestricted coupled pair/coupled cluster methods
   Lee Huntington         : MR-EOM, pCC
   Robert Izsak           : Overlap fitted RIJCOSX, COSX-SCS-MP3, EOM
   Christian Kollmar      : KDIIS, OOCD, Brueckner-CCSD(T), CCSD density
   Simone Kossmann        : Meta GGA functionals, TD-DFT gradient, OOMP2, MP2 Hessian
   Martin Krupicka        : AUTO-CI
   Dagmar Lenk            : GEPOL surface
   Dimitrios Liakos       : Extrapolation schemes; parallel MDCI
   Dimitrios Manganas     : ROCIS; embedding schemes
   Dimitrios Pantazis     : SARC Basis sets
   Taras Petrenko         : DFT Hessian,TD-DFT gradient, ASA, ECA, R-Raman, ABS, FL, XAS/XES, NRVS
   Peter Pinski           : DLPNO-MP2
   Christoph Reimann      : Effective Core Potentials
   Marius Retegan         : Local ZFS, SOC
   Christoph Riplinger    : Optimizer, TS searches, QM/MM, DLPNO-CCSD(T), (RO)-DLPNO pert. Triples
   Tobias Risthaus        : Range-separated hybrids, TD-DFT gradient, RPA, STAB
   Michael Roemelt        : Restricted open shell CIS
   Masaaki Saitow         : Open-shell DLPNO
   Barbara Sandhoefer     : DKH picture change effects
   Kantharuban Sivalingam : CASSCF convergence, NEVPT2, FIC-MRCI
   Georgi Stoychev        : AutoAux
   Boris Wezisla          : Elementary symmetry handling
   Frank Wennmohs         : Technical directorship


 We gratefully acknowledge several colleagues who have allowed us to
 interface, adapt or use parts of their codes:
   Stefan Grimme, W. Hujo, H. Kruse,             : VdW corrections, initial TS optimization,
                  C. Bannwarth                     DFT functionals, gCP, sTDA/sTD-DF
   Ed Valeev                                     : LibInt (2-el integral package), F12 methods
   Garnet Chan, S. Sharma, J. Yang, R. Olivares  : DMRG
   Ulf Ekstrom                                   : XCFun DFT Library
   Mihaly Kallay                                 : mrcc  (arbitrary order and MRCC methods)
   Jiri Pittner, Ondrej Demel                    : Mk-CCSD
   Frank Weinhold                                : gennbo (NPA and NBO analysis)
   Christopher J. Cramer and Donald G. Truhlar   : smd solvation model


 Your calculation uses the libint2 library for the computation of 2-el integrals
 For citations please refer to: http://libint.valeyev.net

 This ORCA versions uses:
   CBLAS   interface :  Fast vector & matrix operations
   LAPACKE interface :  Fast linear algebra routines
   SCALAPACK package :  Parallel linear algebra routines


Your calculation utilizes the atom-pairwise dispersion correction
with the zero-damping scheme (D30)
Cite in your paper:
S.Grimme, J.Antony, S.Ehrlich and H.Krieg, J.Chem.Phys., 132, (2010), 154104 
   

XCFun DFT library Copyright 2009-2010 Ulf Ekstrom and contributors.
See http://admol.org/xcfun for more information. This is free soft-
ware; see the source code for copying conditions. There is ABSOLUTELY
NO WARRANTY; not even for MERCHANTABILITY or FITNESS FOR A PARTICULAR
PURPOSE. For details see the documentation. Scientific users of this 
library should cite U. Ekstrom, L. Visscher, R. Bast, A. J. Thorvald-
sen and K. Ruud; J.Chem.Theor.Comp. 2010, DOI: 10.1021/ct100117s
XCFun Version 0.99 
Your calculation utilizes the basis: 6-31G(d)
   H-He, Li-Ne : W. J. Hehre, R. Ditchfield and J.A. Pople, J. Chem. Phys. 56, 2257 (1972).
                 Note: He and Ne are unpublished basis sets taken from the Gaussian program.
                 Note: Li and B from J. D. Dill and J. A. Pople, J. Chem. Phys. 62, 2921 (1975).
   Na - Ar     : M. M. Francl, W. J. Pietro, W. J. Hehre, J. S. Binkley, M. S. Gordon, 
                 D. J. DeFrees and J. A. Pople, J. Chem. Phys. 77, 3654 (1982).
   K - Zn      : V. A. Rassolov, J. A. Pople, M. A. Ratner, and T. L. Windus, J. Chem. Phys. 109, 1223 (1998).

================================================================================
                                        WARNINGS
                       Please study these warnings very carefully!
================================================================================

Warning: TCutStore was < 0. Adjusted to Thresh (uncritical)

INFO   : the flag for use of LIBINT has been found!

================================================================================
                                       INPUT FILE
================================================================================
NAME = initial45.inp
|  1> ! WB97X-D3 6-31G(d) VerySlowConv
|  2> ! KDIIS NOSOSCF
|  3> %base "Scan_45"
|  4> 
|  5> %scf
|  6> maxiter 999
|  7> end
|  8> 
|  9> * xyz 0 1
| 10> O         -1.182960143609    0.463018709979   -1.111890642818
| 11> H          3.762560388692    0.982447068216   -0.594327711357
| 12> H         -2.140160245083    3.939074221805    2.351728354176
| 13> **                         ****END OF INPUT****
================================================================================

                       ****************************
                       * Single Point Calculation *
                       ****************************

---------------------------------
CARTESIAN COORDINATES (ANGSTROEM)
---------------------------------
  O     -1.182960    0.463019   -1.111891
  H      3.762560    0.982447   -0.594328
  H     -2.140160    3.939074    2.351728

----------------------------
CARTESIAN COORDINATES (A.U.)
----------------------------
  NO LB      ZA    FRAG     MASS         X           Y           Z
   0 O     8.0000    0    15.999   -2.235471    0.874979   -2.101169
   1 H     1.0000    0     1.008    7.110209    1.856556   -1.123117
   2 H     1.0000    0     1.008   -4.044317    7.443772    4.444123

--------------------------------
INTERNAL COORDINATES (ANGSTROEM)
--------------------------------
 O      0   0   0     0.000000000000     0.00000000     0.00000000
 H      1   0   0     4.999585037058     0.00000000     0.00000000
 H      1   2   0     4.999585033970    92.60404689     0.00000000

---------------------------
INTERNAL COORDINATES (A.U.)
---------------------------
 O      0   0   0     0.000000000000     0.00000000     0.00000000
 H      1   0   0     9.447846503290     0.00000000     0.00000000
 H      1   2   0     9.447846497454    92.60404689     0.00000000

---------------------
BASIS SET INFORMATION
---------------------
There are 2 groups of distinct atoms

 Group   1 Type O   : 10s4p1d contracted to 3s2p1d pattern {631/31/1}
 Group   2 Type H   : 4s contracted to 2s pattern {31}

Atom   0O    basis set group =>   1
Atom   1H    basis set group =>   2
Atom   2H    basis set group =>   2
------------------------------------------------------------------------------
                           ORCA GTO INTEGRAL CALCULATION
------------------------------------------------------------------------------

                         BASIS SET STATISTICS AND STARTUP INFO

 # of primitive gaussian shells          ...   23
 # of primitive gaussian functions       ...   35
 # of contracted shells                  ...   10
 # of contracted basis functions         ...   18
 Highest angular momentum                ...    2
 Maximum contraction depth               ...    6
 Integral package used                   ... LIBINT
 Integral threshhold            Thresh   ...  1.000e-10
 Primitive cut-off              TCut     ...  1.000e-11


------------------------------ INTEGRAL EVALUATION ----------------------------


 * One electron integrals 
 Pre-screening matrix                    ... done
 Shell pair data                         ... done (   0.000 sec)

-------------------------------------------------------------------------------
                                 ORCA SCF
-------------------------------------------------------------------------------

------------
SCF SETTINGS
------------
Hamiltonian:
 Density Functional     Method          .... DFT(GTOs)
 Exchange Functional    Exchange        .... WB97X-D3
 Correlation Functional Correlation     .... WB97X-D3
 Gradients option       PostSCFGGA      .... off
 Hybrid DFT is turned on
   Fraction HF Exchange ScalHFX         ....  0.195728
   Scaling of DF-GGA-X  ScalDFX         ....  0.000000
   Scaling of DF-GGA-C  ScalDFC         ....  1.000000
   Scaling of DF-LDA-C  ScalLDAC        ....  1.000000
   Perturbative correction              ....  0.000000
 Long-range corrected/Screened/Range-Separated Hybrid DFT is turned on
   Amount of maximum screened exact exchange              ....  0.804272
   Range separation parameter mu (erf(mu*r12)/r12)        ....  0.250000


General Settings:
 Integral files         IntName         .... Scan_45
 Hartree-Fock type      HFTyp           .... RHF
 Total Charge           Charge          ....    0
 Multiplicity           Mult            ....    1
 Number of Electrons    NEL             ....   10
 Basis Dimension        Dim             ....   18
 Nuclear Repulsion      ENuc            ....      1.7667064150 Eh

Convergence Acceleration:
 DIIS                   CNVDIIS         .... on
   Start iteration      DIISMaxIt       ....     0
   Startup error        DIISStart       ....  0.200000
   # of expansion vecs  DIISMaxEq       ....     5
   Bias factor          DIISBfac        ....   1.050
   Max. coefficient     DIISMaxC        ....  10.000
 Newton-Raphson         CNVNR           .... off
 SOSCF                  CNVSOSCF        .... off
 Level Shifting         CNVShift        .... off
 Zerner damping         CNVZerner       .... off
 Static damping         CNVDamp         .... off
 Fernandez-Rico         CNVRico         .... off

SCF Procedure:
 Maximum # iterations   MaxIter         ....   999
 SCF integral mode      SCFMode         .... Direct
   Integral package                     .... LIBINT
 Reset frequeny         DirectResetFreq ....    20
 Integral Threshold     Thresh          ....  1.000e-10 Eh
 Primitive CutOff       TCut            ....  1.000e-11 Eh

Convergence Tolerance:
 Convergence Check Mode ConvCheckMode   .... All-Criteria
 Convergence forced     ConvForced      .... 0
 Energy Change          TolE            ....  1.000e-06 Eh
 Max Density Change     TolMaxP         ....  1.000e-05
 RMS Density Change     TolRMSP         ....  1.000e-06
 DIIS Error             TolErr          ....  1.000e-06


Diagonalization of the overlap matrix:
Smallest eigenvalue                        ... 2.333e-01
Time for diagonalization                   ...    0.000 sec
Threshold for overlap eigenvalues          ... 1.000e-08
Number of eigenvalues below threshold      ... 0
Time for construction of square roots      ...    0.005 sec
Total time needed                          ...    0.005 sec

-------------------
DFT GRID GENERATION
-------------------

General Integration Accuracy     IntAcc      ...  4.340
Radial Grid Type                 RadialGrid  ... Gauss-Chebyshev
Angular Grid (max. acc.)         AngularGrid ... Lebedev-110
Angular grid pruning method      GridPruning ... 3 (G Style)
Weight generation scheme         WeightScheme... Becke
Basis function cutoff            BFCut       ...    1.0000e-10
Integration weight cutoff        WCut        ...    1.0000e-14
Grids for H and He will be reduced by one unit

# of grid points (after initial pruning)     ...   3304 (   0.0 sec)
# of grid points (after weights+screening)   ...   3303 (   0.0 sec)
nearest neighbour list constructed           ...    0.0 sec
Grid point re-assignment to atoms done       ...    0.0 sec
Grid point division into batches done        ...    0.0 sec
Reduced shell lists constructed in    0.0 sec

Total number of grid points                  ...     3303
Total number of batches                      ...       54
Average number of points per batch           ...       61
Average number of grid points per atom       ...     1101
Average number of shells per batch           ...     6.04 (60.36%)
Average number of basis functions per batch  ...    11.31 (62.83%)
Average number of large shells per batch     ...     4.22 (69.88%)
Average number of large basis fcns per batch ...     8.33 (73.63%)
Maximum spatial batch extension              ...  19.60, 20.95, 25.65 au
Average spatial batch extension              ...   6.49,  6.41,  6.38 au

Time for grid setup =    0.017 sec

------------------------------
INITIAL GUESS: MODEL POTENTIAL
------------------------------
Loading Hartree-Fock densities                     ... done
Calculating cut-offs                               ... done
Setting up the integral package                    ... done
Initializing the effective Hamiltonian             ... done
Starting the Coulomb interaction                   ... done (   0.0 sec)
Reading the grid                                   ... done
Mapping shells                                     ... done
Starting the XC term evaluation                    ... done (   0.0 sec)
  promolecular density results
     # of electrons  =      9.999629348
     EX              =     -8.522981920
     EC              =     -0.275851749
     EX+EC           =     -8.798833669
Transforming the Hamiltonian                       ... done (   0.0 sec)
Diagonalizing the Hamiltonian                      ... done (   0.0 sec)
Back transforming the eigenvectors                 ... done (   0.0 sec)
Now organizing SCF variables                       ... done
                      ------------------
                      INITIAL GUESS DONE (   0.1 sec)
                      ------------------
--------------
SCF ITERATIONS
--------------
ITER       Energy         Delta-E        Max-DP      RMS-DP      [F,P]   Gradient Norm
               ***  Starting incremental Fock matrix formation  ***
                             ****Resetting KDIIS****
                             ****Turning on KDIIS(Cayley)****
  0    -74.5056010919   0.000000000000 0.05563390  0.00756825  0.3732802   0.322878735
  1    -74.6102895091  -0.104688417190 0.14064862  0.01788317  0.3235031   0.277469095
  2    -74.7996480427  -0.189358533577 0.11660136  0.01564662  0.1887375   0.165316152
  3    -74.8888902680  -0.089242225358 0.23186899  0.02920301  0.0944450   0.073162730
  4    -74.8360569287   0.052833339366 0.11605898  0.01558370  0.1457070   0.112553578
  5    -74.8907774628  -0.054720534132 0.01956731  0.00260126  0.0490678   0.037886073
  6    -74.8943555373  -0.003578074452 0.03853797  0.00558031  0.0348975   0.027020058
  7    -74.8979453366  -0.003589799314 0.00425689  0.00056285  0.0019239   0.001664790
  8    -74.8979184667   0.000026869888 0.00164795  0.00026911  0.0023727   0.001602204
  9    -74.8978938863   0.000024580371 0.00236720  0.00033947  0.0014062   0.001392932
 10    -74.8979168096  -0.000022923326 0.00415296  0.00061367  0.0017266   0.001575011
 11    -74.8978810526   0.000035757053 0.00106178  0.00015283  0.0003990   0.000434278
                          ***Energy convergence achieved***
 12    -74.8978808080   0.000000244585 0.00026262  0.00002511  0.0004364   0.000248528
 13    -74.8978815262  -0.000000718172 0.00082937  0.00011979  0.0005973   0.000332871
 14    -74.8978803899   0.000001136245 0.00030015  0.00003044  0.0000883   0.000107363
                          ***Energy convergence achieved***
 15    -74.8978806457  -0.000000255824 0.00041023  0.00003641  0.0001657   0.000116279
 16    -74.8978803660   0.000000279761 0.00026355  0.00002930  0.0001090   0.000095017
 17    -74.8978806382  -0.000000272214 0.00028231  0.00003659  0.0002248   0.000126413
 18    -74.8978804676   0.000000170608 0.00025877  0.00002817  0.0001192   0.000081315
 19    -74.8978803259   0.000000141657 0.00009201  0.00001473  0.0000478   0.000038751
               *** Restarting incremental Fock matrix formation ***
                             ****Resetting KDIIS****

            ***Energy convergence in two consecutive cycles with***
                    ***'reasonable' density convergence***
                       *** signaling convergence ***

                    *** KDIIS BlockDiag ( 0.000 sec) ***

               *****************************************************
               *                     SUCCESS                       *
               *           SCF CONVERGED AFTER  20 CYCLES          *
               *****************************************************

Setting up the final grid:

General Integration Accuracy     IntAcc      ...  4.670
Radial Grid Type                 RadialGrid  ... Gauss-Chebyshev
Angular Grid (max. acc.)         AngularGrid ... Lebedev-302
Angular grid pruning method      GridPruning ... 3 (G Style)
Weight generation scheme         WeightScheme... Becke
Basis function cutoff            BFCut       ...    1.0000e-10
Integration weight cutoff        WCut        ...    1.0000e-14
Grids for H and He will be reduced by one unit

# of grid points (after initial pruning)     ...  13000 (   0.0 sec)
# of grid points (after weights+screening)   ...  12990 (   0.0 sec)
nearest neighbour list constructed           ...    0.0 sec
Grid point re-assignment to atoms done       ...    0.0 sec
Grid point division into batches done        ...    0.0 sec
Reduced shell lists constructed in    0.1 sec

Total number of grid points                  ...    12990
Total number of batches                      ...      205
Average number of points per batch           ...       63
Average number of grid points per atom       ...     4330
Average number of shells per batch           ...     4.99 (49.90%)
Average number of basis functions per batch  ...     9.20 (51.13%)
Average number of large shells per batch     ...     3.64 (72.86%)
Average number of large basis fcns per batch ...     6.96 (75.58%)
Maximum spatial batch extension              ...  17.41, 22.27, 22.27 au
Average spatial batch extension              ...   3.96,  4.07,  4.04 au

Final grid set up in    0.1 sec
Final integration                            ... done (   0.1 sec)
Change in XC energy                          ...    -0.000279836
Integrated number of electrons               ...     9.999936407
Previous integrated no of electrons          ...    10.001563516

----------------
TOTAL SCF ENERGY
----------------

Total Energy       :          -74.89816025 Eh           -2038.08255 eV

Components:
Nuclear Repulsion  :            1.76670642 Eh              48.07453 eV
Electronic Energy  :          -76.66486666 Eh           -2086.15708 eV
One Electron Energy:         -113.68246800 Eh           -3093.45722 eV
Two Electron Energy:           37.01760134 Eh            1007.30014 eV

Virial components:
Potential Energy   :         -149.74348887 Eh           -4074.72749 eV
Kinetic Energy     :           74.84532862 Eh            2036.64493 eV
Virial Ratio       :            2.00070588


DFT components:
N(Alpha)           :        4.999968203268 electrons
N(Beta)            :        4.999968203268 electrons
N(Total)           :        9.999936406536 electrons
E(XC)              :       -6.389485314637 Eh       

---------------
SCF CONVERGENCE
---------------

  Last Energy change         ...   -8.6575e-08  Tolerance :   1.0000e-06
  Last MAX-Density change    ...    3.4821e-05  Tolerance :   1.0000e-05
  Last RMS-Density change    ...    5.3072e-06  Tolerance :   1.0000e-06
  Last DIIS Error            ...    1.4945e-04  Tolerance :   1.0000e-06

             **** THE GBW FILE WAS UPDATED (Scan_45.gbw) ****
             **** DENSITY FILE WAS UPDATED (Scan_45.scfp.tmp) ****
             **** ENERGY FILE WAS UPDATED (Scan_45.en.tmp) ****
----------------
ORBITAL ENERGIES
----------------

  NO   OCC          E(Eh)            E(eV) 
   0   2.0000     -18.469978      -502.5937 
   1   2.0000      -0.224185        -6.1004 
   2   2.0000       0.337772         9.1912 
   3   2.0000       0.337995         9.1973 
   4   2.0000       0.339595         9.2408 
   5   0.0000      -0.354682        -9.6514 
   6   0.0000      -0.354339        -9.6420 
   7   0.0000       0.605951        16.4888 
   8   0.0000       0.606038        16.4911 
   9   0.0000       1.649395        44.8823 
  10   0.0000       1.650286        44.9066 
  11   0.0000       1.652869        44.9769 
  12   0.0000       1.761911        47.9440 
  13   0.0000       2.635583        71.7179 
  14   0.0000       2.635633        71.7192 
  15   0.0000       2.636671        71.7475 
  16   0.0000       2.636794        71.7508 
  17   0.0000       2.637057        71.7580 

                    ********************************
                    * MULLIKEN POPULATION ANALYSIS *
                    ********************************

-----------------------
MULLIKEN ATOMIC CHARGES
-----------------------
   0 O :   -1.999957
   1 H :    0.999978
   2 H :    0.999979
Sum of atomic charges:    0.0000000

--------------------------------
MULLIKEN REDUCED ORBITAL CHARGES
--------------------------------
  0 O s       :     4.000069  s :     4.000069
      pz      :     1.999942  p :     5.999814
      px      :     1.999930
      py      :     1.999942
      dz2     :     0.000014  d :     0.000074
      dxz     :     0.000014
      dyz     :     0.000016
      dx2y2   :     0.000015
      dxy     :     0.000014
  1 H s       :     0.000022  s :     0.000022
  2 H s       :     0.000021  s :     0.000021


                     *******************************
                     * LOEWDIN POPULATION ANALYSIS *
                     *******************************

----------------------
LOEWDIN ATOMIC CHARGES
----------------------
   0 O :   -1.999958
   1 H :    0.999979
   2 H :    0.999979

-------------------------------
LOEWDIN REDUCED ORBITAL CHARGES
-------------------------------
  0 O s       :     4.000069  s :     4.000069
      pz      :     1.999942  p :     5.999815
      px      :     1.999930
      py      :     1.999942
      dz2     :     0.000014  d :     0.000074
      dxz     :     0.000014
      dyz     :     0.000016
      dx2y2   :     0.000015
      dxy     :     0.000014
  1 H s       :     0.000021  s :     0.000021
  2 H s       :     0.000021  s :     0.000021


                      *****************************
                      * MAYER POPULATION ANALYSIS *
                      *****************************

  NA   - Mulliken gross atomic population
  ZA   - Total nuclear charge
  QA   - Mulliken gross atomic charge
  VA   - Mayer's total valence
  BVA  - Mayer's bonded valence
  FA   - Mayer's free valence

  ATOM       NA         ZA         QA         VA         BVA        FA
  0 O     10.0000     8.0000    -2.0000     0.0001     0.0001     0.0000
  1 H      0.0000     1.0000     1.0000     0.0000     0.0000     0.0000
  2 H      0.0000     1.0000     1.0000     0.0000     0.0000     0.0000

  Mayer bond orders larger than 0.1


-------
TIMINGS
-------

Total SCF time: 0 days 0 hours 0 min 4 sec 

Total time                  ....       4.551 sec
Sum of individual times     ....       4.300 sec  ( 94.5%)

Fock matrix formation       ....       4.066 sec  ( 89.4%)
  XC integration            ....       0.849 sec  ( 20.9% of F)
    Basis function eval.    ....       0.118 sec  ( 13.8% of XC)
    Density eval.           ....       0.032 sec  (  3.8% of XC)
    XC-Functional eval.     ....       0.242 sec  ( 28.5% of XC)
    XC-Potential eval.      ....       0.010 sec  (  1.1% of XC)
Diagonalization             ....       0.019 sec  (  0.4%)
Density matrix formation    ....       0.000 sec  (  0.0%)
Population analysis         ....       0.014 sec  (  0.3%)
Initial guess               ....       0.107 sec  (  2.4%)
Orbital Transformation      ....       0.000 sec  (  0.0%)
Orbital Orthonormalization  ....       0.000 sec  (  0.0%)
DIIS solution               ....       0.000 sec  (  0.0%)
Grid generation             ....       0.094 sec  (  2.1%)


-------------------------------------------------------------------------------
                          DFT DISPERSION CORRECTION                            
                                                                               
                              DFTD3 V3.1  Rev 1                                
                              USING zero damping                               
-------------------------------------------------------------------------------
The omegaB97X-D3 functional is recognized. Fit by Chai et al.
Active option DFTDOPT                   ...         3   

molecular C6(AA) [au] = 85.411283 


            DFT-D V3
 parameters
 s6 scaling factor         :     1.0000 
 rs6 scaling factor        :     1.2810 
 s8 scaling factor         :     1.0000 
 rs8 scaling factor        :     1.0940 
 Damping factor alpha6     :    14.0000 
 Damping factor alpha8     :    16.0000 
 ad hoc parameters k1-k3   :    16.0000     1.3333    -4.0000 

 Edisp/kcal,au: -0.021660958911  -0.000034518932 
 E6   /kcal   :  -0.018497781 
 E8   /kcal   :  -0.003163178 
 % E8         :  14.603128451 

-------------------------   ----------------
Dispersion correction           -0.000034519
-------------------------   ----------------


-------------------------   --------------------
FINAL SINGLE POINT ENERGY       -74.898194767919
-------------------------   --------------------


                            ***************************************
                            *     ORCA property calculations      *
                            ***************************************

                                    ---------------------
                                    Active property flags
                                    ---------------------
   (+) Dipole Moment


------------------------------------------------------------------------------
                       ORCA ELECTRIC PROPERTIES CALCULATION
------------------------------------------------------------------------------

Dipole Moment Calculation                       ... on
Quadrupole Moment Calculation                   ... off
Polarizability Calculation                      ... off
GBWName                                         ... Scan_45.gbw
Electron density file                           ... Scan_45.scfp.tmp

-------------
DIPOLE MOMENT
-------------
                                X             Y             Z
Electronic contribution:      4.19369       4.20115       4.18612
Nuclear contribution   :      3.31972       3.32568       3.31378
                        -----------------------------------------
Total Dipole Moment    :      7.51341       7.52684       7.49990
                        -----------------------------------------
Magnitude (a.u.)       :     13.01357
Magnitude (Debye)      :     33.07788


Timings for individual modules:

Sum of individual times         ...        4.923 sec (=   0.082 min)
GTO integral calculation        ...        0.328 sec (=   0.005 min)   6.7 %
SCF iterations                  ...        4.594 sec (=   0.077 min)  93.3 %
                             ****ORCA TERMINATED NORMALLY****
TOTAL RUN TIME: 0 days 0 hours 0 minutes 5 seconds 272 msec
