
                                 *****************
                                 * O   R   C   A *
                                 *****************

           --- An Ab Initio, DFT and Semiempirical electronic structure package ---

                  #######################################################
                  #                        -***-                        #
                  #  Department of molecular theory and spectroscopy    #
                  #              Directorship: Frank Neese              #
                  # Max Planck Institute for Chemical Energy Conversion #
                  #                  D-45470 Muelheim/Ruhr              #
                  #                       Germany                       #
                  #                                                     #
                  #                  All rights reserved                #
                  #                        -***-                        #
                  #######################################################


                         Program Version 4.0.0.2 - RELEASE -


 With contributions from (in alphabetic order):
   Daniel Aravena         : Magnetic Properties
   Michael Atanasov       : Ab Initio Ligand Field Theory
   Ute Becker             : Parallelization
   Martin Brehm           : Molecular dynamics
   Dmytro Bykov           : SCF Hessian
   Vijay G. Chilkuri      : MRCI spin determinant printing
   Dipayan Datta          : RHF DLPNO-CCSD density
   Achintya Kumar Dutta   : EOM-CC, STEOM-CC
   Dmitry Ganyushin       : Spin-Orbit,Spin-Spin,Magnetic field MRCI
   Yang Guo               : DLPNO-NEVPT2, CIM, IAO-localization
   Andreas Hansen         : Spin unrestricted coupled pair/coupled cluster methods
   Lee Huntington         : MR-EOM, pCC
   Robert Izsak           : Overlap fitted RIJCOSX, COSX-SCS-MP3, EOM
   Christian Kollmar      : KDIIS, OOCD, Brueckner-CCSD(T), CCSD density
   Simone Kossmann        : Meta GGA functionals, TD-DFT gradient, OOMP2, MP2 Hessian
   Martin Krupicka        : AUTO-CI
   Dagmar Lenk            : GEPOL surface
   Dimitrios Liakos       : Extrapolation schemes; parallel MDCI
   Dimitrios Manganas     : ROCIS; embedding schemes
   Dimitrios Pantazis     : SARC Basis sets
   Taras Petrenko         : DFT Hessian,TD-DFT gradient, ASA, ECA, R-Raman, ABS, FL, XAS/XES, NRVS
   Peter Pinski           : DLPNO-MP2
   Christoph Reimann      : Effective Core Potentials
   Marius Retegan         : Local ZFS, SOC
   Christoph Riplinger    : Optimizer, TS searches, QM/MM, DLPNO-CCSD(T), (RO)-DLPNO pert. Triples
   Tobias Risthaus        : Range-separated hybrids, TD-DFT gradient, RPA, STAB
   Michael Roemelt        : Restricted open shell CIS
   Masaaki Saitow         : Open-shell DLPNO
   Barbara Sandhoefer     : DKH picture change effects
   Kantharuban Sivalingam : CASSCF convergence, NEVPT2, FIC-MRCI
   Georgi Stoychev        : AutoAux
   Boris Wezisla          : Elementary symmetry handling
   Frank Wennmohs         : Technical directorship


 We gratefully acknowledge several colleagues who have allowed us to
 interface, adapt or use parts of their codes:
   Stefan Grimme, W. Hujo, H. Kruse,             : VdW corrections, initial TS optimization,
                  C. Bannwarth                     DFT functionals, gCP, sTDA/sTD-DF
   Ed Valeev                                     : LibInt (2-el integral package), F12 methods
   Garnet Chan, S. Sharma, J. Yang, R. Olivares  : DMRG
   Ulf Ekstrom                                   : XCFun DFT Library
   Mihaly Kallay                                 : mrcc  (arbitrary order and MRCC methods)
   Jiri Pittner, Ondrej Demel                    : Mk-CCSD
   Frank Weinhold                                : gennbo (NPA and NBO analysis)
   Christopher J. Cramer and Donald G. Truhlar   : smd solvation model


 Your calculation uses the libint2 library for the computation of 2-el integrals
 For citations please refer to: http://libint.valeyev.net

 This ORCA versions uses:
   CBLAS   interface :  Fast vector & matrix operations
   LAPACKE interface :  Fast linear algebra routines
   SCALAPACK package :  Parallel linear algebra routines


Your calculation utilizes the atom-pairwise dispersion correction
with the zero-damping scheme (D30)
Cite in your paper:
S.Grimme, J.Antony, S.Ehrlich and H.Krieg, J.Chem.Phys., 132, (2010), 154104 
   

XCFun DFT library Copyright 2009-2010 Ulf Ekstrom and contributors.
See http://admol.org/xcfun for more information. This is free soft-
ware; see the source code for copying conditions. There is ABSOLUTELY
NO WARRANTY; not even for MERCHANTABILITY or FITNESS FOR A PARTICULAR
PURPOSE. For details see the documentation. Scientific users of this 
library should cite U. Ekstrom, L. Visscher, R. Bast, A. J. Thorvald-
sen and K. Ruud; J.Chem.Theor.Comp. 2010, DOI: 10.1021/ct100117s
XCFun Version 0.99 
Your calculation utilizes the basis: 6-31G(d)
   H-He, Li-Ne : W. J. Hehre, R. Ditchfield and J.A. Pople, J. Chem. Phys. 56, 2257 (1972).
                 Note: He and Ne are unpublished basis sets taken from the Gaussian program.
                 Note: Li and B from J. D. Dill and J. A. Pople, J. Chem. Phys. 62, 2921 (1975).
   Na - Ar     : M. M. Francl, W. J. Pietro, W. J. Hehre, J. S. Binkley, M. S. Gordon, 
                 D. J. DeFrees and J. A. Pople, J. Chem. Phys. 77, 3654 (1982).
   K - Zn      : V. A. Rassolov, J. A. Pople, M. A. Ratner, and T. L. Windus, J. Chem. Phys. 109, 1223 (1998).

================================================================================
                                        WARNINGS
                       Please study these warnings very carefully!
================================================================================

Warning: TCutStore was < 0. Adjusted to Thresh (uncritical)

INFO   : the flag for use of LIBINT has been found!

================================================================================
                                       INPUT FILE
================================================================================
NAME = initial1.inp
|  1> ! WB97X-D3 6-31G(d) VerySlowConv
|  2> ! KDIIS NOSOSCF
|  3> %base "Scan_1"
|  4> 
|  5> %scf
|  6> maxiter 999
|  7> end
|  8> 
|  9> * xyz 0 1
| 10> C         -4.472708001515    1.925920001135    0.000001996116
| 11> H         -3.613615843515    1.925919234980   -0.000001587058
| 12> H         -4.759068585740    2.150963744681    0.778071541448
| 13> H         -4.759073559595    1.139571549046   -0.194137591196
| 14> H         -4.759074009635    2.487225470158   -0.583924359310
| 15> **                         ****END OF INPUT****
================================================================================

                       ****************************
                       * Single Point Calculation *
                       ****************************

---------------------------------
CARTESIAN COORDINATES (ANGSTROEM)
---------------------------------
  C     -4.472708    1.925920    0.000002
  H     -3.613616    1.925919   -0.000002
  H     -4.759069    2.150964    0.778072
  H     -4.759074    1.139572   -0.194138
  H     -4.759074    2.487225   -0.583924

----------------------------
CARTESIAN COORDINATES (A.U.)
----------------------------
  NO LB      ZA    FRAG     MASS         X           Y           Z
   0 C     6.0000    0    12.011   -8.452193    3.639461    0.000004
   1 H     1.0000    0     1.008   -6.828744    3.639460   -0.000003
   2 H     1.0000    0     1.008   -8.993336    4.064732    1.470342
   3 H     1.0000    0     1.008   -8.993346    2.153478   -0.366867
   4 H     1.0000    0     1.008   -8.993347    4.700175   -1.103457

--------------------------------
INTERNAL COORDINATES (ANGSTROEM)
--------------------------------
 C      0   0   0     0.000000000000     0.00000000     0.00000000
 H      1   0   0     0.859092158008     0.00000000     0.00000000
 H      1   2   0     0.859092130147   109.47121970     0.00000000
 H      1   2   3     0.859092137270   109.47122073   240.00000120
 H      1   2   3     0.859092142161   109.47122246   119.99999984

---------------------------
INTERNAL COORDINATES (A.U.)
---------------------------
 C      0   0   0     0.000000000000     0.00000000     0.00000000
 H      1   0   0     1.623448902434     0.00000000     0.00000000
 H      1   2   0     1.623448849784   109.47121970     0.00000000
 H      1   2   3     1.623448863245   109.47122073   240.00000120
 H      1   2   3     1.623448872488   109.47122246   119.99999984

---------------------
BASIS SET INFORMATION
---------------------
There are 2 groups of distinct atoms

 Group   1 Type C   : 10s4p1d contracted to 3s2p1d pattern {631/31/1}
 Group   2 Type H   : 4s contracted to 2s pattern {31}

Atom   0C    basis set group =>   1
Atom   1H    basis set group =>   2
Atom   2H    basis set group =>   2
Atom   3H    basis set group =>   2
Atom   4H    basis set group =>   2
------------------------------------------------------------------------------
                           ORCA GTO INTEGRAL CALCULATION
------------------------------------------------------------------------------

                         BASIS SET STATISTICS AND STARTUP INFO

 # of primitive gaussian shells          ...   31
 # of primitive gaussian functions       ...   43
 # of contracted shells                  ...   14
 # of contracted basis functions         ...   22
 Highest angular momentum                ...    2
 Maximum contraction depth               ...    6
 Integral package used                   ... LIBINT
 Integral threshhold            Thresh   ...  1.000e-10
 Primitive cut-off              TCut     ...  1.000e-11


------------------------------ INTEGRAL EVALUATION ----------------------------


 * One electron integrals 
 Pre-screening matrix                    ... done
 Shell pair data                         ... done (   0.000 sec)

-------------------------------------------------------------------------------
                                 ORCA SCF
-------------------------------------------------------------------------------

------------
SCF SETTINGS
------------
Hamiltonian:
 Density Functional     Method          .... DFT(GTOs)
 Exchange Functional    Exchange        .... WB97X-D3
 Correlation Functional Correlation     .... WB97X-D3
 Gradients option       PostSCFGGA      .... off
 Hybrid DFT is turned on
   Fraction HF Exchange ScalHFX         ....  0.195728
   Scaling of DF-GGA-X  ScalDFX         ....  0.000000
   Scaling of DF-GGA-C  ScalDFC         ....  1.000000
   Scaling of DF-LDA-C  ScalLDAC        ....  1.000000
   Perturbative correction              ....  0.000000
 Long-range corrected/Screened/Range-Separated Hybrid DFT is turned on
   Amount of maximum screened exact exchange              ....  0.804272
   Range separation parameter mu (erf(mu*r12)/r12)        ....  0.250000


General Settings:
 Integral files         IntName         .... Scan_1
 Hartree-Fock type      HFTyp           .... RHF
 Total Charge           Charge          ....    0
 Multiplicity           Mult            ....    1
 Number of Electrons    NEL             ....   10
 Basis Dimension        Dim             ....   22
 Nuclear Repulsion      ENuc            ....     17.0465698623 Eh

Convergence Acceleration:
 DIIS                   CNVDIIS         .... on
   Start iteration      DIISMaxIt       ....     0
   Startup error        DIISStart       ....  0.200000
   # of expansion vecs  DIISMaxEq       ....     5
   Bias factor          DIISBfac        ....   1.050
   Max. coefficient     DIISMaxC        ....  10.000
 Newton-Raphson         CNVNR           .... off
 SOSCF                  CNVSOSCF        .... off
 Level Shifting         CNVShift        .... off
 Zerner damping         CNVZerner       .... off
 Static damping         CNVDamp         .... off
 Fernandez-Rico         CNVRico         .... off

SCF Procedure:
 Maximum # iterations   MaxIter         ....   999
 SCF integral mode      SCFMode         .... Direct
   Integral package                     .... LIBINT
 Reset frequeny         DirectResetFreq ....    20
 Integral Threshold     Thresh          ....  1.000e-10 Eh
 Primitive CutOff       TCut            ....  1.000e-11 Eh

Convergence Tolerance:
 Convergence Check Mode ConvCheckMode   .... All-Criteria
 Convergence forced     ConvForced      .... 0
 Energy Change          TolE            ....  1.000e-06 Eh
 Max Density Change     TolMaxP         ....  1.000e-05
 RMS Density Change     TolRMSP         ....  1.000e-06
 DIIS Error             TolErr          ....  1.000e-06


Diagonalization of the overlap matrix:
Smallest eigenvalue                        ... 8.865e-03
Time for diagonalization                   ...    0.000 sec
Threshold for overlap eigenvalues          ... 1.000e-08
Number of eigenvalues below threshold      ... 0
Time for construction of square roots      ...    0.007 sec
Total time needed                          ...    0.008 sec

-------------------
DFT GRID GENERATION
-------------------

General Integration Accuracy     IntAcc      ...  4.340
Radial Grid Type                 RadialGrid  ... Gauss-Chebyshev
Angular Grid (max. acc.)         AngularGrid ... Lebedev-110
Angular grid pruning method      GridPruning ... 3 (G Style)
Weight generation scheme         WeightScheme... Becke
Basis function cutoff            BFCut       ...    1.0000e-10
Integration weight cutoff        WCut        ...    1.0000e-14
Grids for H and He will be reduced by one unit

# of grid points (after initial pruning)     ...   4832 (   0.0 sec)
# of grid points (after weights+screening)   ...   4683 (   0.0 sec)
nearest neighbour list constructed           ...    0.0 sec
Grid point re-assignment to atoms done       ...    0.0 sec
Grid point division into batches done        ...    0.0 sec
Reduced shell lists constructed in    0.0 sec

Total number of grid points                  ...     4683
Total number of batches                      ...       76
Average number of points per batch           ...       61
Average number of grid points per atom       ...      937
Average number of shells per batch           ...    13.25 (94.62%)
Average number of basis functions per batch  ...    20.88 (94.92%)
Average number of large shells per batch     ...    12.60 (95.10%)
Average number of large basis fcns per batch ...    19.84 (95.02%)
Maximum spatial batch extension              ...  21.07, 25.60, 23.60 au
Average spatial batch extension              ...   5.09,  5.06,  4.65 au

Time for grid setup =    0.030 sec

------------------------------
INITIAL GUESS: MODEL POTENTIAL
------------------------------
Loading Hartree-Fock densities                     ... done
Calculating cut-offs                               ... done
Setting up the integral package                    ... done
Initializing the effective Hamiltonian             ... done
Starting the Coulomb interaction                   ... done (   0.0 sec)
Reading the grid                                   ... done
Mapping shells                                     ... done
Starting the XC term evaluation                    ... done (   0.0 sec)
  promolecular density results
     # of electrons  =      9.999595757
     EX              =     -6.440918259
     EC              =     -0.309309571
     EX+EC           =     -6.750227829
Transforming the Hamiltonian                       ... done (   0.0 sec)
Diagonalizing the Hamiltonian                      ... done (   0.0 sec)
Back transforming the eigenvectors                 ... done (   0.0 sec)
Now organizing SCF variables                       ... done
                      ------------------
                      INITIAL GUESS DONE (   0.2 sec)
                      ------------------
--------------
SCF ITERATIONS
--------------
ITER       Energy         Delta-E        Max-DP      RMS-DP      [F,P]   Gradient Norm
               ***  Starting incremental Fock matrix formation  ***
                             ****Resetting KDIIS****
                             ****Turning on KDIIS(Cayley)****
  0    -40.1182015423   0.000000000000 0.04899541  0.00472497  0.1279540   0.180496752
  1    -40.1692910026  -0.051089460292 0.03780459  0.00383422  0.1080965   0.148436914
  2    -40.2051448361  -0.035853833426 0.06305220  0.00646460  0.0894978   0.122200327
  3    -40.2507714416  -0.045626605495 0.10007106  0.01073181  0.0563366   0.076943964
Warning: badly conditioned DIIS matrix, 1 vectors out of 5 destroyed
  4    -40.2806462438  -0.029874802221 0.00149233  0.00025458  0.0010563   0.001306637
Warning: badly conditioned DIIS matrix, 1 vectors out of 5 destroyed
  5    -40.2806531339  -0.000006890131 0.00188882  0.00035408  0.0005496   0.000616123
Warning: badly conditioned DIIS matrix, 1 vectors out of 5 destroyed
                          ***Energy convergence achieved***
  6    -40.2806540850  -0.000000951087 0.00082921  0.00013384  0.0004752   0.000605980
Warning: badly conditioned DIIS matrix, 1 vectors out of 5 destroyed
  7    -40.2806560512  -0.000001966190 0.00003549  0.00000560  0.0000105   0.000009867
                          ***Energy convergence achieved***
                           ***RMSP convergence achieved***
                           ***MAXP convergence achieved***
                    *** KDIIS BlockDiag ( 0.000 sec) ***

               *****************************************************
               *                     SUCCESS                       *
               *           SCF CONVERGED AFTER   8 CYCLES          *
               *****************************************************

Setting up the final grid:

General Integration Accuracy     IntAcc      ...  4.670
Radial Grid Type                 RadialGrid  ... Gauss-Chebyshev
Angular Grid (max. acc.)         AngularGrid ... Lebedev-302
Angular grid pruning method      GridPruning ... 3 (G Style)
Weight generation scheme         WeightScheme... Becke
Basis function cutoff            BFCut       ...    1.0000e-10
Integration weight cutoff        WCut        ...    1.0000e-14
Grids for H and He will be reduced by one unit

# of grid points (after initial pruning)     ...  19788 (   0.0 sec)
# of grid points (after weights+screening)   ...  19155 (   0.0 sec)
nearest neighbour list constructed           ...    0.0 sec
Grid point re-assignment to atoms done       ...    0.0 sec
Grid point division into batches done        ...    0.1 sec
Reduced shell lists constructed in    0.1 sec

Total number of grid points                  ...    19155
Total number of batches                      ...      302
Average number of points per batch           ...       63
Average number of grid points per atom       ...     3831
Average number of shells per batch           ...    12.14 (86.73%)
Average number of basis functions per batch  ...    19.11 (86.87%)
Average number of large shells per batch     ...    11.61 (95.65%)
Average number of large basis fcns per batch ...    18.29 (95.68%)
Maximum spatial batch extension              ...  20.64, 20.64, 20.64 au
Average spatial batch extension              ...   3.45,  3.18,  3.08 au

Final grid set up in    0.1 sec
Final integration                            ... done (   0.2 sec)
Change in XC energy                          ...     0.000682010
Integrated number of electrons               ...     9.999983729
Previous integrated no of electrons          ...    10.000701218

----------------
TOTAL SCF ENERGY
----------------

Total Energy       :          -40.27997404 Eh           -1096.07382 eV

Components:
Nuclear Repulsion  :           17.04656986 Eh             463.86075 eV
Electronic Energy  :          -57.32654390 Eh           -1559.93457 eV
One Electron Energy:          -86.19786857 Eh           -2345.56325 eV
Two Electron Energy:           28.87132466 Eh             785.62868 eV

Virial components:
Potential Energy   :          -82.22051765 Eh           -2237.33403 eV
Kinetic Energy     :           41.94054361 Eh            1141.26021 eV
Virial Ratio       :            1.96040658


DFT components:
N(Alpha)           :        4.999991864559 electrons
N(Beta)            :        4.999991864559 electrons
N(Total)           :        9.999983729119 electrons
E(XC)              :       -4.857848937174 Eh       

---------------
SCF CONVERGENCE
---------------

  Last Energy change         ...   -6.4252e-10  Tolerance :   1.0000e-06
  Last MAX-Density change    ...    4.6017e-06  Tolerance :   1.0000e-05
  Last RMS-Density change    ...    4.1455e-07  Tolerance :   1.0000e-06
  Last DIIS Error            ...    1.3723e-06  Tolerance :   1.0000e-06

             **** THE GBW FILE WAS UPDATED (Scan_1.gbw) ****
             **** DENSITY FILE WAS UPDATED (Scan_1.scfp.tmp) ****
             **** ENERGY FILE WAS UPDATED (Scan_1.en.tmp) ****
----------------
ORBITAL ENERGIES
----------------

  NO   OCC          E(Eh)            E(eV) 
   0   2.0000     -10.154613      -276.3211 
   1   2.0000      -0.883085       -24.0300 
   2   2.0000      -0.530131       -14.4256 
   3   2.0000      -0.529938       -14.4204 
   4   2.0000      -0.529657       -14.4127 
   5   0.0000       0.256337         6.9753 
   6   0.0000       0.344524         9.3750 
   7   0.0000       0.344912         9.3855 
   8   0.0000       0.345494         9.4014 
   9   0.0000       0.578875        15.7520 
  10   0.0000       0.580483        15.7957 
  11   0.0000       0.581703        15.8289 
  12   0.0000       1.252116        34.0718 
  13   0.0000       1.254439        34.1350 
  14   0.0000       1.254486        34.1363 
  15   0.0000       1.254932        34.1484 
  16   0.0000       1.611191        43.8427 
  17   0.0000       1.689697        45.9790 
  18   0.0000       1.690629        46.0043 
  19   0.0000       2.727466        74.2181 
  20   0.0000       2.728087        74.2350 
  21   0.0000       2.728804        74.2545 

                    ********************************
                    * MULLIKEN POPULATION ANALYSIS *
                    ********************************

-----------------------
MULLIKEN ATOMIC CHARGES
-----------------------
   0 C :   -0.697155
   1 H :    0.176136
   2 H :    0.173337
   3 H :    0.173321
   4 H :    0.174361
Sum of atomic charges:    0.0000000

--------------------------------
MULLIKEN REDUCED ORBITAL CHARGES
--------------------------------
  0 C s       :     3.106721  s :     3.106721
      pz      :     1.186676  p :     3.559133
      px      :     1.186048
      py      :     1.186410
      dz2     :     0.007839  d :     0.031301
      dxz     :     0.003473
      dyz     :     0.006950
      dx2y2   :     0.009563
      dxy     :     0.003476
  1 H s       :     0.823864  s :     0.823864
  2 H s       :     0.826663  s :     0.826663
  3 H s       :     0.826679  s :     0.826679
  4 H s       :     0.825639  s :     0.825639


                     *******************************
                     * LOEWDIN POPULATION ANALYSIS *
                     *******************************

----------------------
LOEWDIN ATOMIC CHARGES
----------------------
   0 C :   -0.620762
   1 H :    0.155611
   2 H :    0.155195
   3 H :    0.155093
   4 H :    0.154863

-------------------------------
LOEWDIN REDUCED ORBITAL CHARGES
-------------------------------
  0 C s       :     2.858060  s :     2.858060
      pz      :     1.234318  p :     3.702751
      px      :     1.234250
      py      :     1.234183
      dz2     :     0.014979  d :     0.059950
      dxz     :     0.006652
      dyz     :     0.013339
      dx2y2   :     0.018321
      dxy     :     0.006659
  1 H s       :     0.844389  s :     0.844389
  2 H s       :     0.844805  s :     0.844805
  3 H s       :     0.844907  s :     0.844907
  4 H s       :     0.845137  s :     0.845137


                      *****************************
                      * MAYER POPULATION ANALYSIS *
                      *****************************

  NA   - Mulliken gross atomic population
  ZA   - Total nuclear charge
  QA   - Mulliken gross atomic charge
  VA   - Mayer's total valence
  BVA  - Mayer's bonded valence
  FA   - Mayer's free valence

  ATOM       NA         ZA         QA         VA         BVA        FA
  0 C      6.6972     6.0000    -0.6972     3.8725     3.8725    -0.0000
  1 H      0.8239     1.0000     0.1761     0.9274     0.9274    -0.0000
  2 H      0.8267     1.0000     0.1733     0.9292     0.9292     0.0000
  3 H      0.8267     1.0000     0.1733     0.9291     0.9291    -0.0000
  4 H      0.8256     1.0000     0.1744     0.9282     0.9282     0.0000

  Mayer bond orders larger than 0.1
B(  0-C ,  1-H ) :   0.9676 B(  0-C ,  2-H ) :   0.9685 B(  0-C ,  3-H ) :   0.9684 
B(  0-C ,  4-H ) :   0.9681 

-------
TIMINGS
-------

Total SCF time: 0 days 0 hours 0 min 3 sec 

Total time                  ....       3.734 sec
Sum of individual times     ....       3.595 sec  ( 96.3%)

Fock matrix formation       ....       3.234 sec  ( 86.6%)
  XC integration            ....       0.668 sec  ( 20.6% of F)
    Basis function eval.    ....       0.218 sec  ( 32.7% of XC)
    Density eval.           ....       0.029 sec  (  4.4% of XC)
    XC-Functional eval.     ....       0.186 sec  ( 27.9% of XC)
    XC-Potential eval.      ....       0.019 sec  (  2.9% of XC)
Diagonalization             ....       0.031 sec  (  0.8%)
Density matrix formation    ....       0.000 sec  (  0.0%)
Population analysis         ....       0.010 sec  (  0.3%)
Initial guess               ....       0.141 sec  (  3.8%)
Orbital Transformation      ....       0.000 sec  (  0.0%)
Orbital Orthonormalization  ....       0.000 sec  (  0.0%)
DIIS solution               ....       0.000 sec  (  0.0%)
Grid generation             ....       0.179 sec  (  4.8%)


-------------------------------------------------------------------------------
                          DFT DISPERSION CORRECTION                            
                                                                               
                              DFTD3 V3.1  Rev 1                                
                              USING zero damping                               
-------------------------------------------------------------------------------
The omegaB97X-D3 functional is recognized. Fit by Chai et al.
Active option DFTDOPT                   ...         3   

molecular C6(AA) [au] = 127.438398 


            DFT-D V3
 parameters
 s6 scaling factor         :     1.0000 
 rs6 scaling factor        :     1.2810 
 s8 scaling factor         :     1.0000 
 rs8 scaling factor        :     1.0940 
 Damping factor alpha6     :    14.0000 
 Damping factor alpha8     :    16.0000 
 ad hoc parameters k1-k3   :    16.0000     1.3333    -4.0000 

 Edisp/kcal,au: -0.002315706661  -0.000003690313 
 E6   /kcal   :  -0.000360867 
 E8   /kcal   :  -0.001954840 
 % E8         :  84.416556333 

-------------------------   ----------------
Dispersion correction           -0.000003690
-------------------------   ----------------


-------------------------   --------------------
FINAL SINGLE POINT ENERGY       -40.279977731854
-------------------------   --------------------


                            ***************************************
                            *     ORCA property calculations      *
                            ***************************************

                                    ---------------------
                                    Active property flags
                                    ---------------------
   (+) Dipole Moment


------------------------------------------------------------------------------
                       ORCA ELECTRIC PROPERTIES CALCULATION
------------------------------------------------------------------------------

Dipole Moment Calculation                       ... on
Quadrupole Moment Calculation                   ... off
Polarizability Calculation                      ... off
GBWName                                         ... Scan_1.gbw
Electron density file                           ... Scan_1.scfp.tmp

-------------
DIPOLE MOMENT
-------------
                                X             Y             Z
Electronic contribution:     -0.00036      -0.00108       0.00149
Nuclear contribution   :      0.00000      -0.00000       0.00000
                        -----------------------------------------
Total Dipole Moment    :     -0.00036      -0.00108       0.00149
                        -----------------------------------------
Magnitude (a.u.)       :      0.00187
Magnitude (Debye)      :      0.00477


Timings for individual modules:

Sum of individual times         ...        4.166 sec (=   0.069 min)
GTO integral calculation        ...        0.407 sec (=   0.007 min)   9.8 %
SCF iterations                  ...        3.759 sec (=   0.063 min)  90.2 %
                             ****ORCA TERMINATED NORMALLY****
TOTAL RUN TIME: 0 days 0 hours 0 minutes 4 seconds 571 msec
