
                                 *****************
                                 * O   R   C   A *
                                 *****************

           --- An Ab Initio, DFT and Semiempirical electronic structure package ---

                  #######################################################
                  #                        -***-                        #
                  #  Department of molecular theory and spectroscopy    #
                  #              Directorship: Frank Neese              #
                  # Max Planck Institute for Chemical Energy Conversion #
                  #                  D-45470 Muelheim/Ruhr              #
                  #                       Germany                       #
                  #                                                     #
                  #                  All rights reserved                #
                  #                        -***-                        #
                  #######################################################


                         Program Version 4.0.0.2 - RELEASE -


 With contributions from (in alphabetic order):
   Daniel Aravena         : Magnetic Properties
   Michael Atanasov       : Ab Initio Ligand Field Theory
   Ute Becker             : Parallelization
   Martin Brehm           : Molecular dynamics
   Dmytro Bykov           : SCF Hessian
   Vijay G. Chilkuri      : MRCI spin determinant printing
   Dipayan Datta          : RHF DLPNO-CCSD density
   Achintya Kumar Dutta   : EOM-CC, STEOM-CC
   Dmitry Ganyushin       : Spin-Orbit,Spin-Spin,Magnetic field MRCI
   Yang Guo               : DLPNO-NEVPT2, CIM, IAO-localization
   Andreas Hansen         : Spin unrestricted coupled pair/coupled cluster methods
   Lee Huntington         : MR-EOM, pCC
   Robert Izsak           : Overlap fitted RIJCOSX, COSX-SCS-MP3, EOM
   Christian Kollmar      : KDIIS, OOCD, Brueckner-CCSD(T), CCSD density
   Simone Kossmann        : Meta GGA functionals, TD-DFT gradient, OOMP2, MP2 Hessian
   Martin Krupicka        : AUTO-CI
   Dagmar Lenk            : GEPOL surface
   Dimitrios Liakos       : Extrapolation schemes; parallel MDCI
   Dimitrios Manganas     : ROCIS; embedding schemes
   Dimitrios Pantazis     : SARC Basis sets
   Taras Petrenko         : DFT Hessian,TD-DFT gradient, ASA, ECA, R-Raman, ABS, FL, XAS/XES, NRVS
   Peter Pinski           : DLPNO-MP2
   Christoph Reimann      : Effective Core Potentials
   Marius Retegan         : Local ZFS, SOC
   Christoph Riplinger    : Optimizer, TS searches, QM/MM, DLPNO-CCSD(T), (RO)-DLPNO pert. Triples
   Tobias Risthaus        : Range-separated hybrids, TD-DFT gradient, RPA, STAB
   Michael Roemelt        : Restricted open shell CIS
   Masaaki Saitow         : Open-shell DLPNO
   Barbara Sandhoefer     : DKH picture change effects
   Kantharuban Sivalingam : CASSCF convergence, NEVPT2, FIC-MRCI
   Georgi Stoychev        : AutoAux
   Boris Wezisla          : Elementary symmetry handling
   Frank Wennmohs         : Technical directorship


 We gratefully acknowledge several colleagues who have allowed us to
 interface, adapt or use parts of their codes:
   Stefan Grimme, W. Hujo, H. Kruse,             : VdW corrections, initial TS optimization,
                  C. Bannwarth                     DFT functionals, gCP, sTDA/sTD-DF
   Ed Valeev                                     : LibInt (2-el integral package), F12 methods
   Garnet Chan, S. Sharma, J. Yang, R. Olivares  : DMRG
   Ulf Ekstrom                                   : XCFun DFT Library
   Mihaly Kallay                                 : mrcc  (arbitrary order and MRCC methods)
   Jiri Pittner, Ondrej Demel                    : Mk-CCSD
   Frank Weinhold                                : gennbo (NPA and NBO analysis)
   Christopher J. Cramer and Donald G. Truhlar   : smd solvation model


 Your calculation uses the libint2 library for the computation of 2-el integrals
 For citations please refer to: http://libint.valeyev.net

 This ORCA versions uses:
   CBLAS   interface :  Fast vector & matrix operations
   LAPACKE interface :  Fast linear algebra routines
   SCALAPACK package :  Parallel linear algebra routines


Your calculation utilizes the atom-pairwise dispersion correction
with the zero-damping scheme (D30)
Cite in your paper:
S.Grimme, J.Antony, S.Ehrlich and H.Krieg, J.Chem.Phys., 132, (2010), 154104 
   

XCFun DFT library Copyright 2009-2010 Ulf Ekstrom and contributors.
See http://admol.org/xcfun for more information. This is free soft-
ware; see the source code for copying conditions. There is ABSOLUTELY
NO WARRANTY; not even for MERCHANTABILITY or FITNESS FOR A PARTICULAR
PURPOSE. For details see the documentation. Scientific users of this 
library should cite U. Ekstrom, L. Visscher, R. Bast, A. J. Thorvald-
sen and K. Ruud; J.Chem.Theor.Comp. 2010, DOI: 10.1021/ct100117s
XCFun Version 0.99 
Your calculation utilizes the basis: 6-31G(d)
   H-He, Li-Ne : W. J. Hehre, R. Ditchfield and J.A. Pople, J. Chem. Phys. 56, 2257 (1972).
                 Note: He and Ne are unpublished basis sets taken from the Gaussian program.
                 Note: Li and B from J. D. Dill and J. A. Pople, J. Chem. Phys. 62, 2921 (1975).
   Na - Ar     : M. M. Francl, W. J. Pietro, W. J. Hehre, J. S. Binkley, M. S. Gordon, 
                 D. J. DeFrees and J. A. Pople, J. Chem. Phys. 77, 3654 (1982).
   K - Zn      : V. A. Rassolov, J. A. Pople, M. A. Ratner, and T. L. Windus, J. Chem. Phys. 109, 1223 (1998).

================================================================================
                                        WARNINGS
                       Please study these warnings very carefully!
================================================================================

Warning: TCutStore was < 0. Adjusted to Thresh (uncritical)

INFO   : the flag for use of LIBINT has been found!

================================================================================
                                       INPUT FILE
================================================================================
NAME = initial10.inp
|  1> ! WB97X-D3 6-31G(d) VerySlowConv
|  2> ! KDIIS NOSOSCF
|  3> %base "Scan_10"
|  4> 
|  5> %scf
|  6> maxiter 999
|  7> end
|  8> 
|  9> * xyz 0 1
| 10> C         -4.472708331180    1.925919928690    0.000002085087
| 11> H         -3.138586023566    1.925918875832   -0.000003655702
| 12> H         -4.917409877298    2.275400540000    1.208300877952
| 13> H         -4.917417584459    0.704764455312   -0.301486107655
| 14> H         -4.917418183496    2.797596200166   -0.906803199683
| 15> **                         ****END OF INPUT****
================================================================================

                       ****************************
                       * Single Point Calculation *
                       ****************************

---------------------------------
CARTESIAN COORDINATES (ANGSTROEM)
---------------------------------
  C     -4.472708    1.925920    0.000002
  H     -3.138586    1.925919   -0.000004
  H     -4.917410    2.275401    1.208301
  H     -4.917418    0.704764   -0.301486
  H     -4.917418    2.797596   -0.906803

----------------------------
CARTESIAN COORDINATES (A.U.)
----------------------------
  NO LB      ZA    FRAG     MASS         X           Y           Z
   0 C     6.0000    0    12.011   -8.452194    3.639461    0.000004
   1 H     1.0000    0     1.008   -5.931068    3.639459   -0.000007
   2 H     1.0000    0     1.008   -9.292558    4.299884    2.283358
   3 H     1.0000    0     1.008   -9.292573    1.331812   -0.569726
   4 H     1.0000    0     1.008   -9.292574    5.286691   -1.713610

--------------------------------
INTERNAL COORDINATES (ANGSTROEM)
--------------------------------
 C      0   0   0     0.000000000000     0.00000000     0.00000000
 H      1   0   0     1.334122307627     0.00000000     0.00000000
 H      1   2   0     1.334122234145   109.47120286     0.00000000
 H      1   2   3     1.334122235957   109.47120151   239.99997901
 H      1   2   3     1.334122258074   109.47118505   119.99999074

---------------------------
INTERNAL COORDINATES (A.U.)
---------------------------
 C      0   0   0     0.000000000000     0.00000000     0.00000000
 H      1   0   0     2.521125790570     0.00000000     0.00000000
 H      1   2   0     2.521125651709   109.47120286     0.00000000
 H      1   2   3     2.521125655134   109.47120151   239.99997901
 H      1   2   3     2.521125696928   109.47118505   119.99999074

---------------------
BASIS SET INFORMATION
---------------------
There are 2 groups of distinct atoms

 Group   1 Type C   : 10s4p1d contracted to 3s2p1d pattern {631/31/1}
 Group   2 Type H   : 4s contracted to 2s pattern {31}

Atom   0C    basis set group =>   1
Atom   1H    basis set group =>   2
Atom   2H    basis set group =>   2
Atom   3H    basis set group =>   2
Atom   4H    basis set group =>   2
------------------------------------------------------------------------------
                           ORCA GTO INTEGRAL CALCULATION
------------------------------------------------------------------------------

                         BASIS SET STATISTICS AND STARTUP INFO

 # of primitive gaussian shells          ...   31
 # of primitive gaussian functions       ...   43
 # of contracted shells                  ...   14
 # of contracted basis functions         ...   22
 Highest angular momentum                ...    2
 Maximum contraction depth               ...    6
 Integral package used                   ... LIBINT
 Integral threshhold            Thresh   ...  1.000e-10
 Primitive cut-off              TCut     ...  1.000e-11


------------------------------ INTEGRAL EVALUATION ----------------------------


 * One electron integrals 
 Pre-screening matrix                    ... done
 Shell pair data                         ... done (   0.000 sec)

-------------------------------------------------------------------------------
                                 ORCA SCF
-------------------------------------------------------------------------------

------------
SCF SETTINGS
------------
Hamiltonian:
 Density Functional     Method          .... DFT(GTOs)
 Exchange Functional    Exchange        .... WB97X-D3
 Correlation Functional Correlation     .... WB97X-D3
 Gradients option       PostSCFGGA      .... off
 Hybrid DFT is turned on
   Fraction HF Exchange ScalHFX         ....  0.195728
   Scaling of DF-GGA-X  ScalDFX         ....  0.000000
   Scaling of DF-GGA-C  ScalDFC         ....  1.000000
   Scaling of DF-LDA-C  ScalLDAC        ....  1.000000
   Perturbative correction              ....  0.000000
 Long-range corrected/Screened/Range-Separated Hybrid DFT is turned on
   Amount of maximum screened exact exchange              ....  0.804272
   Range separation parameter mu (erf(mu*r12)/r12)        ....  0.250000


General Settings:
 Integral files         IntName         .... Scan_10
 Hartree-Fock type      HFTyp           .... RHF
 Total Charge           Charge          ....    0
 Multiplicity           Mult            ....    1
 Number of Electrons    NEL             ....   10
 Basis Dimension        Dim             ....   22
 Nuclear Repulsion      ENuc            ....     10.9769356719 Eh

Convergence Acceleration:
 DIIS                   CNVDIIS         .... on
   Start iteration      DIISMaxIt       ....     0
   Startup error        DIISStart       ....  0.200000
   # of expansion vecs  DIISMaxEq       ....     5
   Bias factor          DIISBfac        ....   1.050
   Max. coefficient     DIISMaxC        ....  10.000
 Newton-Raphson         CNVNR           .... off
 SOSCF                  CNVSOSCF        .... off
 Level Shifting         CNVShift        .... off
 Zerner damping         CNVZerner       .... off
 Static damping         CNVDamp         .... off
 Fernandez-Rico         CNVRico         .... off

SCF Procedure:
 Maximum # iterations   MaxIter         ....   999
 SCF integral mode      SCFMode         .... Direct
   Integral package                     .... LIBINT
 Reset frequeny         DirectResetFreq ....    20
 Integral Threshold     Thresh          ....  1.000e-10 Eh
 Primitive CutOff       TCut            ....  1.000e-11 Eh

Convergence Tolerance:
 Convergence Check Mode ConvCheckMode   .... All-Criteria
 Convergence forced     ConvForced      .... 0
 Energy Change          TolE            ....  1.000e-06 Eh
 Max Density Change     TolMaxP         ....  1.000e-05
 RMS Density Change     TolRMSP         ....  1.000e-06
 DIIS Error             TolErr          ....  1.000e-06


Diagonalization of the overlap matrix:
Smallest eigenvalue                        ... 4.073e-02
Time for diagonalization                   ...    0.000 sec
Threshold for overlap eigenvalues          ... 1.000e-08
Number of eigenvalues below threshold      ... 0
Time for construction of square roots      ...    0.004 sec
Total time needed                          ...    0.005 sec

-------------------
DFT GRID GENERATION
-------------------

General Integration Accuracy     IntAcc      ...  4.340
Radial Grid Type                 RadialGrid  ... Gauss-Chebyshev
Angular Grid (max. acc.)         AngularGrid ... Lebedev-110
Angular grid pruning method      GridPruning ... 3 (G Style)
Weight generation scheme         WeightScheme... Becke
Basis function cutoff            BFCut       ...    1.0000e-10
Integration weight cutoff        WCut        ...    1.0000e-14
Grids for H and He will be reduced by one unit

# of grid points (after initial pruning)     ...   4832 (   0.0 sec)
# of grid points (after weights+screening)   ...   4723 (   0.0 sec)
nearest neighbour list constructed           ...    0.0 sec
Grid point re-assignment to atoms done       ...    0.0 sec
Grid point division into batches done        ...    0.0 sec
Reduced shell lists constructed in    0.0 sec

Total number of grid points                  ...     4723
Total number of batches                      ...       76
Average number of points per batch           ...       62
Average number of grid points per atom       ...      945
Average number of shells per batch           ...    13.01 (92.95%)
Average number of basis functions per batch  ...    20.49 (93.15%)
Average number of large shells per batch     ...    12.06 (92.71%)
Average number of large basis fcns per batch ...    19.10 (93.22%)
Maximum spatial batch extension              ...  20.77, 25.60, 23.60 au
Average spatial batch extension              ...   5.28,  5.25,  4.85 au

Time for grid setup =    0.027 sec

------------------------------
INITIAL GUESS: MODEL POTENTIAL
------------------------------
Loading Hartree-Fock densities                     ... done
Calculating cut-offs                               ... done
Setting up the integral package                    ... done
Initializing the effective Hamiltonian             ... done
Starting the Coulomb interaction                   ... done (   0.0 sec)
Reading the grid                                   ... done
Mapping shells                                     ... done
Starting the XC term evaluation                    ... done (   0.0 sec)
  promolecular density results
     # of electrons  =      9.998108722
     EX              =     -6.138882862
     EC              =     -0.276925268
     EX+EC           =     -6.415808130
Transforming the Hamiltonian                       ... done (   0.0 sec)
Diagonalizing the Hamiltonian                      ... done (   0.0 sec)
Back transforming the eigenvectors                 ... done (   0.0 sec)
Now organizing SCF variables                       ... done
                      ------------------
                      INITIAL GUESS DONE (   0.1 sec)
                      ------------------
--------------
SCF ITERATIONS
--------------
ITER       Energy         Delta-E        Max-DP      RMS-DP      [F,P]   Gradient Norm
               ***  Starting incremental Fock matrix formation  ***
                             ****Resetting KDIIS****
                             ****Turning on KDIIS(Cayley)****
  0    -40.3764773626   0.000000000000 0.01484810  0.00167382  0.0597439   0.063279679
  1    -40.3850174340  -0.008540071466 0.01028944  0.00157045  0.0485839   0.050552836
  2    -40.3903770996  -0.005359665605 0.01976673  0.00282521  0.0398135   0.041065413
  3    -40.3970292839  -0.006652184266 0.02884179  0.00427530  0.0244445   0.024986170
Warning: badly conditioned DIIS matrix, 1 vectors out of 5 destroyed
  4    -40.4009389839  -0.003909699975 0.00127374  0.00013260  0.0004050   0.000498094
  5    -40.4009404106  -0.000001426762 0.00040131  0.00003028  0.0000652   0.000070102
                          ***Energy convergence achieved***
  6    -40.4009404451  -0.000000034456 0.00001892  0.00000233  0.0000111   0.000009442
Warning: badly conditioned DIIS matrix, 1 vectors out of 5 destroyed

            ***Energy convergence in two consecutive cycles with***
                    ***'reasonable' density convergence***
                       *** signaling convergence ***

                    *** KDIIS BlockDiag ( 0.000 sec) ***

               *****************************************************
               *                     SUCCESS                       *
               *           SCF CONVERGED AFTER   7 CYCLES          *
               *****************************************************

Setting up the final grid:

General Integration Accuracy     IntAcc      ...  4.670
Radial Grid Type                 RadialGrid  ... Gauss-Chebyshev
Angular Grid (max. acc.)         AngularGrid ... Lebedev-302
Angular grid pruning method      GridPruning ... 3 (G Style)
Weight generation scheme         WeightScheme... Becke
Basis function cutoff            BFCut       ...    1.0000e-10
Integration weight cutoff        WCut        ...    1.0000e-14
Grids for H and He will be reduced by one unit

# of grid points (after initial pruning)     ...  19788 (   0.0 sec)
# of grid points (after weights+screening)   ...  19363 (   0.0 sec)
nearest neighbour list constructed           ...    0.0 sec
Grid point re-assignment to atoms done       ...    0.0 sec
Grid point division into batches done        ...    0.0 sec
Reduced shell lists constructed in    0.1 sec

Total number of grid points                  ...    19363
Total number of batches                      ...      306
Average number of points per batch           ...       63
Average number of grid points per atom       ...     3873
Average number of shells per batch           ...    11.96 (85.44%)
Average number of basis functions per batch  ...    18.89 (85.85%)
Average number of large shells per batch     ...    10.98 (91.83%)
Average number of large basis fcns per batch ...    17.58 (93.07%)
Maximum spatial batch extension              ...  20.64, 20.64, 18.62 au
Average spatial batch extension              ...   3.46,  3.26,  3.18 au

Final grid set up in    0.1 sec
Final integration                            ... done (   0.2 sec)
Change in XC energy                          ...    -0.000178606
Integrated number of electrons               ...    10.000021889
Previous integrated no of electrons          ...     9.999692702

----------------
TOTAL SCF ENERGY
----------------

Total Energy       :          -40.40111905 Eh           -1099.37034 eV

Components:
Nuclear Repulsion  :           10.97693567 Eh             298.69761 eV
Electronic Energy  :          -51.37805472 Eh           -1398.06795 eV
One Electron Energy:          -75.03239868 Eh           -2041.73537 eV
Two Electron Energy:           23.65434396 Eh             643.66742 eV

Virial components:
Potential Energy   :          -79.66883478 Eh           -2167.89921 eV
Kinetic Energy     :           39.26771573 Eh            1068.52887 eV
Virial Ratio       :            2.02886349


DFT components:
N(Alpha)           :        5.000010944744 electrons
N(Beta)            :        5.000010944744 electrons
N(Total)           :       10.000021889488 electrons
E(XC)              :       -4.320310012654 Eh       

---------------
SCF CONVERGENCE
---------------

  Last Energy change         ...   -1.0571e-10  Tolerance :   1.0000e-06
  Last MAX-Density change    ...    1.9626e-05  Tolerance :   1.0000e-05
  Last RMS-Density change    ...    2.4152e-06  Tolerance :   1.0000e-06
  Last DIIS Error            ...    9.3837e-06  Tolerance :   1.0000e-06

             **** THE GBW FILE WAS UPDATED (Scan_10.gbw) ****
             **** DENSITY FILE WAS UPDATED (Scan_10.scfp.tmp) ****
             **** ENERGY FILE WAS UPDATED (Scan_10.en.tmp) ****
----------------
ORBITAL ENERGIES
----------------

  NO   OCC          E(Eh)            E(eV) 
   0   2.0000     -10.354857      -281.7700 
   1   2.0000      -0.742671       -20.2091 
   2   2.0000      -0.447144       -12.1674 
   3   2.0000      -0.447056       -12.1650 
   4   2.0000      -0.446826       -12.1588 
   5   0.0000       0.129108         3.5132 
   6   0.0000       0.191164         5.2018 
   7   0.0000       0.191373         5.2075 
   8   0.0000       0.191454         5.2097 
   9   0.0000       0.699675        19.0391 
  10   0.0000       0.700409        19.0591 
  11   0.0000       0.702151        19.1065 
  12   0.0000       0.837020        22.7765 
  13   0.0000       0.896866        24.4050 
  14   0.0000       0.897104        24.4114 
  15   0.0000       0.897223        24.4147 
  16   0.0000       1.130220        30.7549 
  17   0.0000       1.778373        48.3920 
  18   0.0000       1.778527        48.3962 
  19   0.0000       2.065110        56.1945 
  20   0.0000       2.065188        56.1966 
  21   0.0000       2.065849        56.2146 

                    ********************************
                    * MULLIKEN POPULATION ANALYSIS *
                    ********************************

-----------------------
MULLIKEN ATOMIC CHARGES
-----------------------
   0 C :   -0.540772
   1 H :    0.133984
   2 H :    0.135930
   3 H :    0.135914
   4 H :    0.134945
Sum of atomic charges:    0.0000000

--------------------------------
MULLIKEN REDUCED ORBITAL CHARGES
--------------------------------
  0 C s       :     3.455768  s :     3.455768
      pz      :     1.021230  p :     3.064132
      px      :     1.021509
      py      :     1.021393
      dz2     :     0.005214  d :     0.020872
      dxz     :     0.002319
      dyz     :     0.004634
      dx2y2   :     0.006388
      dxy     :     0.002318
  1 H s       :     0.866016  s :     0.866016
  2 H s       :     0.864070  s :     0.864070
  3 H s       :     0.864086  s :     0.864086
  4 H s       :     0.865055  s :     0.865055


                     *******************************
                     * LOEWDIN POPULATION ANALYSIS *
                     *******************************

----------------------
LOEWDIN ATOMIC CHARGES
----------------------
   0 C :   -0.468252
   1 H :    0.116536
   2 H :    0.117342
   3 H :    0.117369
   4 H :    0.117005

-------------------------------
LOEWDIN REDUCED ORBITAL CHARGES
-------------------------------
  0 C s       :     3.183865  s :     3.183865
      pz      :     1.084051  p :     3.252188
      px      :     1.084008
      py      :     1.084129
      dz2     :     0.008049  d :     0.032200
      dxz     :     0.003579
      dyz     :     0.007150
      dx2y2   :     0.009843
      dxy     :     0.003578
  1 H s       :     0.883464  s :     0.883464
  2 H s       :     0.882658  s :     0.882658
  3 H s       :     0.882631  s :     0.882631
  4 H s       :     0.882995  s :     0.882995


                      *****************************
                      * MAYER POPULATION ANALYSIS *
                      *****************************

  NA   - Mulliken gross atomic population
  ZA   - Total nuclear charge
  QA   - Mulliken gross atomic charge
  VA   - Mayer's total valence
  BVA  - Mayer's bonded valence
  FA   - Mayer's free valence

  ATOM       NA         ZA         QA         VA         BVA        FA
  0 C      6.5408     6.0000    -0.5408     3.7907     3.7907     0.0000
  1 H      0.8660     1.0000     0.1340     0.9594     0.9594    -0.0000
  2 H      0.8641     1.0000     0.1359     0.9586     0.9586     0.0000
  3 H      0.8641     1.0000     0.1359     0.9586     0.9586     0.0000
  4 H      0.8651     1.0000     0.1349     0.9591     0.9591     0.0000

  Mayer bond orders larger than 0.1
B(  0-C ,  1-H ) :   0.9484 B(  0-C ,  2-H ) :   0.9472 B(  0-C ,  3-H ) :   0.9472 
B(  0-C ,  4-H ) :   0.9479 

-------
TIMINGS
-------

Total SCF time: 0 days 0 hours 0 min 2 sec 

Total time                  ....       2.645 sec
Sum of individual times     ....       2.513 sec  ( 95.0%)

Fock matrix formation       ....       2.218 sec  ( 83.9%)
  XC integration            ....       0.571 sec  ( 25.7% of F)
    Basis function eval.    ....       0.186 sec  ( 32.6% of XC)
    Density eval.           ....       0.023 sec  (  4.1% of XC)
    XC-Functional eval.     ....       0.166 sec  ( 29.1% of XC)
    XC-Potential eval.      ....       0.015 sec  (  2.7% of XC)
Diagonalization             ....       0.004 sec  (  0.2%)
Density matrix formation    ....       0.000 sec  (  0.0%)
Population analysis         ....       0.010 sec  (  0.4%)
Initial guess               ....       0.118 sec  (  4.5%)
Orbital Transformation      ....       0.000 sec  (  0.0%)
Orbital Orthonormalization  ....       0.000 sec  (  0.0%)
DIIS solution               ....       0.000 sec  (  0.0%)
Grid generation             ....       0.163 sec  (  6.2%)


-------------------------------------------------------------------------------
                          DFT DISPERSION CORRECTION                            
                                                                               
                              DFTD3 V3.1  Rev 1                                
                              USING zero damping                               
-------------------------------------------------------------------------------
The omegaB97X-D3 functional is recognized. Fit by Chai et al.
Active option DFTDOPT                   ...         3   

molecular C6(AA) [au] = 154.426325 


            DFT-D V3
 parameters
 s6 scaling factor         :     1.0000 
 rs6 scaling factor        :     1.2810 
 s8 scaling factor         :     1.0000 
 rs8 scaling factor        :     1.0940 
 Damping factor alpha6     :    14.0000 
 Damping factor alpha8     :    16.0000 
 ad hoc parameters k1-k3   :    16.0000     1.3333    -4.0000 

 Edisp/kcal,au: -0.083393521601  -0.000132896022 
 E6   /kcal   :  -0.013353022 
 E8   /kcal   :  -0.070040500 
 % E8         :  83.987939002 

-------------------------   ----------------
Dispersion correction           -0.000132896
-------------------------   ----------------


-------------------------   --------------------
FINAL SINGLE POINT ENERGY       -40.401251947101
-------------------------   --------------------


                            ***************************************
                            *     ORCA property calculations      *
                            ***************************************

                                    ---------------------
                                    Active property flags
                                    ---------------------
   (+) Dipole Moment


------------------------------------------------------------------------------
                       ORCA ELECTRIC PROPERTIES CALCULATION
------------------------------------------------------------------------------

Dipole Moment Calculation                       ... on
Quadrupole Moment Calculation                   ... off
Polarizability Calculation                      ... off
GBWName                                         ... Scan_10.gbw
Electron density file                           ... Scan_10.scfp.tmp

-------------
DIPOLE MOMENT
-------------
                                X             Y             Z
Electronic contribution:     -0.00018       0.00036      -0.00071
Nuclear contribution   :      0.00000       0.00000      -0.00000
                        -----------------------------------------
Total Dipole Moment    :     -0.00018       0.00036      -0.00071
                        -----------------------------------------
Magnitude (a.u.)       :      0.00081
Magnitude (Debye)      :      0.00207


Timings for individual modules:

Sum of individual times         ...        2.960 sec (=   0.049 min)
GTO integral calculation        ...        0.294 sec (=   0.005 min)   9.9 %
SCF iterations                  ...        2.667 sec (=   0.044 min)  90.1 %
                             ****ORCA TERMINATED NORMALLY****
TOTAL RUN TIME: 0 days 0 hours 0 minutes 3 seconds 280 msec
