
                                 *****************
                                 * O   R   C   A *
                                 *****************

           --- An Ab Initio, DFT and Semiempirical electronic structure package ---

                  #######################################################
                  #                        -***-                        #
                  #  Department of molecular theory and spectroscopy    #
                  #              Directorship: Frank Neese              #
                  # Max Planck Institute for Chemical Energy Conversion #
                  #                  D-45470 Muelheim/Ruhr              #
                  #                       Germany                       #
                  #                                                     #
                  #                  All rights reserved                #
                  #                        -***-                        #
                  #######################################################


                         Program Version 4.0.0.2 - RELEASE -


 With contributions from (in alphabetic order):
   Daniel Aravena         : Magnetic Properties
   Michael Atanasov       : Ab Initio Ligand Field Theory
   Ute Becker             : Parallelization
   Martin Brehm           : Molecular dynamics
   Dmytro Bykov           : SCF Hessian
   Vijay G. Chilkuri      : MRCI spin determinant printing
   Dipayan Datta          : RHF DLPNO-CCSD density
   Achintya Kumar Dutta   : EOM-CC, STEOM-CC
   Dmitry Ganyushin       : Spin-Orbit,Spin-Spin,Magnetic field MRCI
   Yang Guo               : DLPNO-NEVPT2, CIM, IAO-localization
   Andreas Hansen         : Spin unrestricted coupled pair/coupled cluster methods
   Lee Huntington         : MR-EOM, pCC
   Robert Izsak           : Overlap fitted RIJCOSX, COSX-SCS-MP3, EOM
   Christian Kollmar      : KDIIS, OOCD, Brueckner-CCSD(T), CCSD density
   Simone Kossmann        : Meta GGA functionals, TD-DFT gradient, OOMP2, MP2 Hessian
   Martin Krupicka        : AUTO-CI
   Dagmar Lenk            : GEPOL surface
   Dimitrios Liakos       : Extrapolation schemes; parallel MDCI
   Dimitrios Manganas     : ROCIS; embedding schemes
   Dimitrios Pantazis     : SARC Basis sets
   Taras Petrenko         : DFT Hessian,TD-DFT gradient, ASA, ECA, R-Raman, ABS, FL, XAS/XES, NRVS
   Peter Pinski           : DLPNO-MP2
   Christoph Reimann      : Effective Core Potentials
   Marius Retegan         : Local ZFS, SOC
   Christoph Riplinger    : Optimizer, TS searches, QM/MM, DLPNO-CCSD(T), (RO)-DLPNO pert. Triples
   Tobias Risthaus        : Range-separated hybrids, TD-DFT gradient, RPA, STAB
   Michael Roemelt        : Restricted open shell CIS
   Masaaki Saitow         : Open-shell DLPNO
   Barbara Sandhoefer     : DKH picture change effects
   Kantharuban Sivalingam : CASSCF convergence, NEVPT2, FIC-MRCI
   Georgi Stoychev        : AutoAux
   Boris Wezisla          : Elementary symmetry handling
   Frank Wennmohs         : Technical directorship


 We gratefully acknowledge several colleagues who have allowed us to
 interface, adapt or use parts of their codes:
   Stefan Grimme, W. Hujo, H. Kruse,             : VdW corrections, initial TS optimization,
                  C. Bannwarth                     DFT functionals, gCP, sTDA/sTD-DF
   Ed Valeev                                     : LibInt (2-el integral package), F12 methods
   Garnet Chan, S. Sharma, J. Yang, R. Olivares  : DMRG
   Ulf Ekstrom                                   : XCFun DFT Library
   Mihaly Kallay                                 : mrcc  (arbitrary order and MRCC methods)
   Jiri Pittner, Ondrej Demel                    : Mk-CCSD
   Frank Weinhold                                : gennbo (NPA and NBO analysis)
   Christopher J. Cramer and Donald G. Truhlar   : smd solvation model


 Your calculation uses the libint2 library for the computation of 2-el integrals
 For citations please refer to: http://libint.valeyev.net

 This ORCA versions uses:
   CBLAS   interface :  Fast vector & matrix operations
   LAPACKE interface :  Fast linear algebra routines
   SCALAPACK package :  Parallel linear algebra routines


Your calculation utilizes the atom-pairwise dispersion correction
with the zero-damping scheme (D30)
Cite in your paper:
S.Grimme, J.Antony, S.Ehrlich and H.Krieg, J.Chem.Phys., 132, (2010), 154104 
   

XCFun DFT library Copyright 2009-2010 Ulf Ekstrom and contributors.
See http://admol.org/xcfun for more information. This is free soft-
ware; see the source code for copying conditions. There is ABSOLUTELY
NO WARRANTY; not even for MERCHANTABILITY or FITNESS FOR A PARTICULAR
PURPOSE. For details see the documentation. Scientific users of this 
library should cite U. Ekstrom, L. Visscher, R. Bast, A. J. Thorvald-
sen and K. Ruud; J.Chem.Theor.Comp. 2010, DOI: 10.1021/ct100117s
XCFun Version 0.99 
Your calculation utilizes the basis: 6-31G(d)
   H-He, Li-Ne : W. J. Hehre, R. Ditchfield and J.A. Pople, J. Chem. Phys. 56, 2257 (1972).
                 Note: He and Ne are unpublished basis sets taken from the Gaussian program.
                 Note: Li and B from J. D. Dill and J. A. Pople, J. Chem. Phys. 62, 2921 (1975).
   Na - Ar     : M. M. Francl, W. J. Pietro, W. J. Hehre, J. S. Binkley, M. S. Gordon, 
                 D. J. DeFrees and J. A. Pople, J. Chem. Phys. 77, 3654 (1982).
   K - Zn      : V. A. Rassolov, J. A. Pople, M. A. Ratner, and T. L. Windus, J. Chem. Phys. 109, 1223 (1998).

================================================================================
                                        WARNINGS
                       Please study these warnings very carefully!
================================================================================

Warning: TCutStore was < 0. Adjusted to Thresh (uncritical)

INFO   : the flag for use of LIBINT has been found!

================================================================================
                                       INPUT FILE
================================================================================
NAME = initial11.inp
|  1> ! WB97X-D3 6-31G(d) VerySlowConv
|  2> ! KDIIS NOSOSCF
|  3> %base "Scan_11"
|  4> 
|  5> %scf
|  6> maxiter 999
|  7> end
|  8> 
|  9> * xyz 0 1
| 10> C         -4.472693800305    1.925926395520    0.000001776446
| 11> H         -3.042181790988    1.925913763506   -0.000003817565
| 12> H         -4.949549821275    2.300644624819    1.295597769186
| 13> H         -4.949554257347    0.616544428365   -0.323265045498
| 14> H         -4.949560330086    2.860570787790   -0.972320682568
| 15> **                         ****END OF INPUT****
================================================================================

                       ****************************
                       * Single Point Calculation *
                       ****************************

---------------------------------
CARTESIAN COORDINATES (ANGSTROEM)
---------------------------------
  C     -4.472694    1.925926    0.000002
  H     -3.042182    1.925914   -0.000004
  H     -4.949550    2.300645    1.295598
  H     -4.949554    0.616544   -0.323265
  H     -4.949560    2.860571   -0.972321

----------------------------
CARTESIAN COORDINATES (A.U.)
----------------------------
  NO LB      ZA    FRAG     MASS         X           Y           Z
   0 C     6.0000    0    12.011   -8.452166    3.639473    0.000003
   1 H     1.0000    0     1.008   -5.748890    3.639450   -0.000007
   2 H     1.0000    0     1.008   -9.353294    4.347588    2.448325
   3 H     1.0000    0     1.008   -9.353302    1.165100   -0.610882
   4 H     1.0000    0     1.008   -9.353314    5.405695   -1.837420

--------------------------------
INTERNAL COORDINATES (ANGSTROEM)
--------------------------------
 C      0   0   0     0.000000000000     0.00000000     0.00000000
 H      1   0   0     1.430512009384     0.00000000     0.00000000
 H      1   2   0     1.430515428965   109.47232177     0.00000000
 H      1   2   3     1.430516853997   109.47158934   240.00080083
 H      1   2   3     1.430514869385   109.47260942   120.00107321

---------------------------
INTERNAL COORDINATES (A.U.)
---------------------------
 C      0   0   0     0.000000000000     0.00000000     0.00000000
 H      1   0   0     2.703275929021     0.00000000     0.00000000
 H      1   2   0     2.703282391094   109.47232177     0.00000000
 H      1   2   3     2.703285084014   109.47158934   240.00080083
 H      1   2   3     2.703281333639   109.47260942   120.00107321

---------------------
BASIS SET INFORMATION
---------------------
There are 2 groups of distinct atoms

 Group   1 Type C   : 10s4p1d contracted to 3s2p1d pattern {631/31/1}
 Group   2 Type H   : 4s contracted to 2s pattern {31}

Atom   0C    basis set group =>   1
Atom   1H    basis set group =>   2
Atom   2H    basis set group =>   2
Atom   3H    basis set group =>   2
Atom   4H    basis set group =>   2
------------------------------------------------------------------------------
                           ORCA GTO INTEGRAL CALCULATION
------------------------------------------------------------------------------

                         BASIS SET STATISTICS AND STARTUP INFO

 # of primitive gaussian shells          ...   31
 # of primitive gaussian functions       ...   43
 # of contracted shells                  ...   14
 # of contracted basis functions         ...   22
 Highest angular momentum                ...    2
 Maximum contraction depth               ...    6
 Integral package used                   ... LIBINT
 Integral threshhold            Thresh   ...  1.000e-10
 Primitive cut-off              TCut     ...  1.000e-11


------------------------------ INTEGRAL EVALUATION ----------------------------


 * One electron integrals 
 Pre-screening matrix                    ... done
 Shell pair data                         ... done (   0.000 sec)

-------------------------------------------------------------------------------
                                 ORCA SCF
-------------------------------------------------------------------------------

------------
SCF SETTINGS
------------
Hamiltonian:
 Density Functional     Method          .... DFT(GTOs)
 Exchange Functional    Exchange        .... WB97X-D3
 Correlation Functional Correlation     .... WB97X-D3
 Gradients option       PostSCFGGA      .... off
 Hybrid DFT is turned on
   Fraction HF Exchange ScalHFX         ....  0.195728
   Scaling of DF-GGA-X  ScalDFX         ....  0.000000
   Scaling of DF-GGA-C  ScalDFC         ....  1.000000
   Scaling of DF-LDA-C  ScalLDAC        ....  1.000000
   Perturbative correction              ....  0.000000
 Long-range corrected/Screened/Range-Separated Hybrid DFT is turned on
   Amount of maximum screened exact exchange              ....  0.804272
   Range separation parameter mu (erf(mu*r12)/r12)        ....  0.250000


General Settings:
 Integral files         IntName         .... Scan_11
 Hartree-Fock type      HFTyp           .... RHF
 Total Charge           Charge          ....    0
 Multiplicity           Mult            ....    1
 Number of Electrons    NEL             ....   10
 Basis Dimension        Dim             ....   22
 Nuclear Repulsion      ENuc            ....     10.2372756390 Eh

Convergence Acceleration:
 DIIS                   CNVDIIS         .... on
   Start iteration      DIISMaxIt       ....     0
   Startup error        DIISStart       ....  0.200000
   # of expansion vecs  DIISMaxEq       ....     5
   Bias factor          DIISBfac        ....   1.050
   Max. coefficient     DIISMaxC        ....  10.000
 Newton-Raphson         CNVNR           .... off
 SOSCF                  CNVSOSCF        .... off
 Level Shifting         CNVShift        .... off
 Zerner damping         CNVZerner       .... off
 Static damping         CNVDamp         .... off
 Fernandez-Rico         CNVRico         .... off

SCF Procedure:
 Maximum # iterations   MaxIter         ....   999
 SCF integral mode      SCFMode         .... Direct
   Integral package                     .... LIBINT
 Reset frequeny         DirectResetFreq ....    20
 Integral Threshold     Thresh          ....  1.000e-10 Eh
 Primitive CutOff       TCut            ....  1.000e-11 Eh

Convergence Tolerance:
 Convergence Check Mode ConvCheckMode   .... All-Criteria
 Convergence forced     ConvForced      .... 0
 Energy Change          TolE            ....  1.000e-06 Eh
 Max Density Change     TolMaxP         ....  1.000e-05
 RMS Density Change     TolRMSP         ....  1.000e-06
 DIIS Error             TolErr          ....  1.000e-06


Diagonalization of the overlap matrix:
Smallest eigenvalue                        ... 5.038e-02
Time for diagonalization                   ...    0.001 sec
Threshold for overlap eigenvalues          ... 1.000e-08
Number of eigenvalues below threshold      ... 0
Time for construction of square roots      ...    0.004 sec
Total time needed                          ...    0.005 sec

-------------------
DFT GRID GENERATION
-------------------

General Integration Accuracy     IntAcc      ...  4.340
Radial Grid Type                 RadialGrid  ... Gauss-Chebyshev
Angular Grid (max. acc.)         AngularGrid ... Lebedev-110
Angular grid pruning method      GridPruning ... 3 (G Style)
Weight generation scheme         WeightScheme... Becke
Basis function cutoff            BFCut       ...    1.0000e-10
Integration weight cutoff        WCut        ...    1.0000e-14
Grids for H and He will be reduced by one unit

# of grid points (after initial pruning)     ...   4832 (   0.0 sec)
# of grid points (after weights+screening)   ...   4733 (   0.0 sec)
nearest neighbour list constructed           ...    0.0 sec
Grid point re-assignment to atoms done       ...    0.0 sec
Grid point division into batches done        ...    0.0 sec
Reduced shell lists constructed in    0.0 sec

Total number of grid points                  ...     4733
Total number of batches                      ...       75
Average number of points per batch           ...       63
Average number of grid points per atom       ...      947
Average number of shells per batch           ...    12.99 (92.76%)
Average number of basis functions per batch  ...    20.46 (93.00%)
Average number of large shells per batch     ...    12.01 (92.50%)
Average number of large basis fcns per batch ...    19.07 (93.18%)
Maximum spatial batch extension              ...  20.71, 25.60, 23.60 au
Average spatial batch extension              ...   5.47,  5.39,  4.97 au

Time for grid setup =    0.030 sec

------------------------------
INITIAL GUESS: MODEL POTENTIAL
------------------------------
Loading Hartree-Fock densities                     ... done
Calculating cut-offs                               ... done
Setting up the integral package                    ... done
Initializing the effective Hamiltonian             ... done
Starting the Coulomb interaction                   ... done (   0.0 sec)
Reading the grid                                   ... done
Mapping shells                                     ... done
Starting the XC term evaluation                    ... done (   0.0 sec)
  promolecular density results
     # of electrons  =      9.998007574
     EX              =     -6.101651824
     EC              =     -0.270108730
     EX+EC           =     -6.371760554
Transforming the Hamiltonian                       ... done (   0.0 sec)
Diagonalizing the Hamiltonian                      ... done (   0.0 sec)
Back transforming the eigenvectors                 ... done (   0.0 sec)
Now organizing SCF variables                       ... done
                      ------------------
                      INITIAL GUESS DONE (   0.2 sec)
                      ------------------
--------------
SCF ITERATIONS
--------------
ITER       Energy         Delta-E        Max-DP      RMS-DP      [F,P]   Gradient Norm
               ***  Starting incremental Fock matrix formation  ***
                             ****Resetting KDIIS****
                             ****Turning on KDIIS(Cayley)****
  0    -40.3165103208   0.000000000000 0.01117245  0.00134271  0.0490814   0.049239942
  1    -40.3219349831  -0.005424662273 0.00961246  0.00128446  0.0398588   0.039348026
  2    -40.3252981417  -0.003363158554 0.01896095  0.00232596  0.0326883   0.031933299
  3    -40.3294813925  -0.004183250857 0.02791312  0.00350637  0.0200144   0.019337716
Warning: badly conditioned DIIS matrix, 1 vectors out of 5 destroyed
  4    -40.3319044600  -0.002423067455 0.00079201  0.00008113  0.0002761   0.000295484
                          ***Energy convergence achieved***
  5    -40.3319050175  -0.000000557505 0.00021555  0.00001316  0.0000321   0.000030763

            ***Energy convergence in two consecutive cycles with***
                    ***'reasonable' density convergence***
                       *** signaling convergence ***

                    *** KDIIS BlockDiag ( 0.000 sec) ***

               *****************************************************
               *                     SUCCESS                       *
               *           SCF CONVERGED AFTER   6 CYCLES          *
               *****************************************************

Setting up the final grid:

General Integration Accuracy     IntAcc      ...  4.670
Radial Grid Type                 RadialGrid  ... Gauss-Chebyshev
Angular Grid (max. acc.)         AngularGrid ... Lebedev-302
Angular grid pruning method      GridPruning ... 3 (G Style)
Weight generation scheme         WeightScheme... Becke
Basis function cutoff            BFCut       ...    1.0000e-10
Integration weight cutoff        WCut        ...    1.0000e-14
Grids for H and He will be reduced by one unit

# of grid points (after initial pruning)     ...  19788 (   0.0 sec)
# of grid points (after weights+screening)   ...  19390 (   0.0 sec)
nearest neighbour list constructed           ...    0.0 sec
Grid point re-assignment to atoms done       ...    0.0 sec
Grid point division into batches done        ...    0.1 sec
Reduced shell lists constructed in    0.1 sec

Total number of grid points                  ...    19390
Total number of batches                      ...      305
Average number of points per batch           ...       63
Average number of grid points per atom       ...     3878
Average number of shells per batch           ...    11.90 (84.97%)
Average number of basis functions per batch  ...    18.82 (85.56%)
Average number of large shells per batch     ...    10.73 (90.16%)
Average number of large basis fcns per batch ...    17.28 (91.81%)
Maximum spatial batch extension              ...  20.64, 20.64, 19.63 au
Average spatial batch extension              ...   3.46,  3.30,  3.19 au

Final grid set up in    0.1 sec
Final integration                            ... done (   0.2 sec)
Change in XC energy                          ...    -0.000296154
Integrated number of electrons               ...    10.000009333
Previous integrated no of electrons          ...     9.999539966

----------------
TOTAL SCF ENERGY
----------------

Total Energy       :          -40.33220118 Eh           -1097.49499 eV

Components:
Nuclear Repulsion  :           10.23727564 Eh             278.57043 eV
Electronic Energy  :          -50.56947682 Eh           -1376.06542 eV
One Electron Energy:          -73.51114462 Eh           -2000.33994 eV
Two Electron Energy:           22.94166780 Eh             624.27452 eV

Virial components:
Potential Energy   :          -79.36562850 Eh           -2159.64855 eV
Kinetic Energy     :           39.03342732 Eh            1062.15356 eV
Virial Ratio       :            2.03327337


DFT components:
N(Alpha)           :        5.000004666683 electrons
N(Beta)            :        5.000004666683 electrons
N(Total)           :       10.000009333365 electrons
E(XC)              :       -4.251797851040 Eh       

---------------
SCF CONVERGENCE
---------------

  Last Energy change         ...   -1.0523e-08  Tolerance :   1.0000e-06
  Last MAX-Density change    ...    2.1616e-05  Tolerance :   1.0000e-05
  Last RMS-Density change    ...    3.1743e-06  Tolerance :   1.0000e-06
  Last DIIS Error            ...    9.0402e-06  Tolerance :   1.0000e-06

             **** THE GBW FILE WAS UPDATED (Scan_11.gbw) ****
             **** DENSITY FILE WAS UPDATED (Scan_11.scfp.tmp) ****
             **** ENERGY FILE WAS UPDATED (Scan_11.en.tmp) ****
----------------
ORBITAL ENERGIES
----------------

  NO   OCC          E(Eh)            E(eV) 
   0   2.0000     -10.386220      -282.6234 
   1   2.0000      -0.724351       -19.7106 
   2   2.0000      -0.434083       -11.8120 
   3   2.0000      -0.434014       -11.8101 
   4   2.0000      -0.433929       -11.8078 
   5   0.0000       0.090115         2.4522 
   6   0.0000       0.161082         4.3833 
   7   0.0000       0.161300         4.3892 
   8   0.0000       0.161320         4.3897 
   9   0.0000       0.712521        19.3887 
  10   0.0000       0.713279        19.4093 
  11   0.0000       0.714627        19.4460 
  12   0.0000       0.804084        21.8802 
  13   0.0000       0.891937        24.2708 
  14   0.0000       0.892330        24.2815 
  15   0.0000       0.892651        24.2903 
  16   0.0000       1.090868        29.6840 
  17   0.0000       1.782310        48.4991 
  18   0.0000       1.782388        48.5012 
  19   0.0000       1.980458        53.8910 
  20   0.0000       1.980637        53.8959 
  21   0.0000       1.981285        53.9135 

                    ********************************
                    * MULLIKEN POPULATION ANALYSIS *
                    ********************************

-----------------------
MULLIKEN ATOMIC CHARGES
-----------------------
   0 C :   -0.470758
   1 H :    0.116627
   2 H :    0.118352
   3 H :    0.118324
   4 H :    0.117455
Sum of atomic charges:    0.0000000

--------------------------------
MULLIKEN REDUCED ORBITAL CHARGES
--------------------------------
  0 C s       :     3.493528  s :     3.493528
      pz      :     0.986559  p :     2.959586
      px      :     0.986480
      py      :     0.986547
      dz2     :     0.004407  d :     0.017644
      dxz     :     0.001961
      dyz     :     0.003918
      dx2y2   :     0.005397
      dxy     :     0.001961
  1 H s       :     0.883373  s :     0.883373
  2 H s       :     0.881648  s :     0.881648
  3 H s       :     0.881676  s :     0.881676
  4 H s       :     0.882545  s :     0.882545


                     *******************************
                     * LOEWDIN POPULATION ANALYSIS *
                     *******************************

----------------------
LOEWDIN ATOMIC CHARGES
----------------------
   0 C :   -0.434393
   1 H :    0.108056
   2 H :    0.108966
   3 H :    0.108944
   4 H :    0.108427

-------------------------------
LOEWDIN REDUCED ORBITAL CHARGES
-------------------------------
  0 C s       :     3.254568  s :     3.254568
      pz      :     1.051287  p :     3.153547
      px      :     1.051003
      py      :     1.051257
      dz2     :     0.006567  d :     0.026278
      dxz     :     0.002921
      dyz     :     0.005836
      dx2y2   :     0.008033
      dxy     :     0.002921
  1 H s       :     0.891944  s :     0.891944
  2 H s       :     0.891034  s :     0.891034
  3 H s       :     0.891056  s :     0.891056
  4 H s       :     0.891573  s :     0.891573


                      *****************************
                      * MAYER POPULATION ANALYSIS *
                      *****************************

  NA   - Mulliken gross atomic population
  ZA   - Total nuclear charge
  QA   - Mulliken gross atomic charge
  VA   - Mayer's total valence
  BVA  - Mayer's bonded valence
  FA   - Mayer's free valence

  ATOM       NA         ZA         QA         VA         BVA        FA
  0 C      6.4708     6.0000    -0.4708     3.7568     3.7568     0.0000
  1 H      0.8834     1.0000     0.1166     0.9679     0.9679     0.0000
  2 H      0.8816     1.0000     0.1184     0.9673     0.9673     0.0000
  3 H      0.8817     1.0000     0.1183     0.9674     0.9674     0.0000
  4 H      0.8825     1.0000     0.1175     0.9677     0.9677     0.0000

  Mayer bond orders larger than 0.1
B(  0-C ,  1-H ) :   0.9397 B(  0-C ,  2-H ) :   0.9389 B(  0-C ,  3-H ) :   0.9389 
B(  0-C ,  4-H ) :   0.9393 

-------
TIMINGS
-------

Total SCF time: 0 days 0 hours 0 min 3 sec 

Total time                  ....       3.142 sec
Sum of individual times     ....       3.043 sec  ( 96.8%)

Fock matrix formation       ....       2.673 sec  ( 85.1%)
  XC integration            ....       0.561 sec  ( 21.0% of F)
    Basis function eval.    ....       0.190 sec  ( 33.8% of XC)
    Density eval.           ....       0.025 sec  (  4.4% of XC)
    XC-Functional eval.     ....       0.172 sec  ( 30.7% of XC)
    XC-Potential eval.      ....       0.016 sec  (  2.9% of XC)
Diagonalization             ....       0.035 sec  (  1.1%)
Density matrix formation    ....       0.000 sec  (  0.0%)
Population analysis         ....       0.009 sec  (  0.3%)
Initial guess               ....       0.148 sec  (  4.7%)
Orbital Transformation      ....       0.000 sec  (  0.0%)
Orbital Orthonormalization  ....       0.000 sec  (  0.0%)
DIIS solution               ....       0.000 sec  (  0.0%)
Grid generation             ....       0.178 sec  (  5.7%)


-------------------------------------------------------------------------------
                          DFT DISPERSION CORRECTION                            
                                                                               
                              DFTD3 V3.1  Rev 1                                
                              USING zero damping                               
-------------------------------------------------------------------------------
The omegaB97X-D3 functional is recognized. Fit by Chai et al.
Active option DFTDOPT                   ...         3   

molecular C6(AA) [au] = 200.119535 


            DFT-D V3
 parameters
 s6 scaling factor         :     1.0000 
 rs6 scaling factor        :     1.2810 
 s8 scaling factor         :     1.0000 
 rs8 scaling factor        :     1.0940 
 Damping factor alpha6     :    14.0000 
 Damping factor alpha8     :    16.0000 
 ad hoc parameters k1-k3   :    16.0000     1.3333    -4.0000 

 Edisp/kcal,au: -0.191611015816  -0.000305351558 
 E6   /kcal   :  -0.032384632 
 E8   /kcal   :  -0.159226384 
 % E8         :  83.098763021 

-------------------------   ----------------
Dispersion correction           -0.000305352
-------------------------   ----------------


-------------------------   --------------------
FINAL SINGLE POINT ENERGY       -40.332506533270
-------------------------   --------------------


                            ***************************************
                            *     ORCA property calculations      *
                            ***************************************

                                    ---------------------
                                    Active property flags
                                    ---------------------
   (+) Dipole Moment


------------------------------------------------------------------------------
                       ORCA ELECTRIC PROPERTIES CALCULATION
------------------------------------------------------------------------------

Dipole Moment Calculation                       ... on
Quadrupole Moment Calculation                   ... off
Polarizability Calculation                      ... off
GBWName                                         ... Scan_11.gbw
Electron density file                           ... Scan_11.scfp.tmp

-------------
DIPOLE MOMENT
-------------
                                X             Y             Z
Electronic contribution:     -0.00043      -0.00019       0.00020
Nuclear contribution   :     -0.00005      -0.00002       0.00000
                        -----------------------------------------
Total Dipole Moment    :     -0.00048      -0.00021       0.00020
                        -----------------------------------------
Magnitude (a.u.)       :      0.00056
Magnitude (Debye)      :      0.00143


Timings for individual modules:

Sum of individual times         ...        3.583 sec (=   0.060 min)
GTO integral calculation        ...        0.417 sec (=   0.007 min)  11.6 %
SCF iterations                  ...        3.167 sec (=   0.053 min)  88.4 %
                             ****ORCA TERMINATED NORMALLY****
TOTAL RUN TIME: 0 days 0 hours 0 minutes 3 seconds 973 msec
