
                                 *****************
                                 * O   R   C   A *
                                 *****************

           --- An Ab Initio, DFT and Semiempirical electronic structure package ---

                  #######################################################
                  #                        -***-                        #
                  #  Department of molecular theory and spectroscopy    #
                  #              Directorship: Frank Neese              #
                  # Max Planck Institute for Chemical Energy Conversion #
                  #                  D-45470 Muelheim/Ruhr              #
                  #                       Germany                       #
                  #                                                     #
                  #                  All rights reserved                #
                  #                        -***-                        #
                  #######################################################


                         Program Version 4.0.0.2 - RELEASE -


 With contributions from (in alphabetic order):
   Daniel Aravena         : Magnetic Properties
   Michael Atanasov       : Ab Initio Ligand Field Theory
   Ute Becker             : Parallelization
   Martin Brehm           : Molecular dynamics
   Dmytro Bykov           : SCF Hessian
   Vijay G. Chilkuri      : MRCI spin determinant printing
   Dipayan Datta          : RHF DLPNO-CCSD density
   Achintya Kumar Dutta   : EOM-CC, STEOM-CC
   Dmitry Ganyushin       : Spin-Orbit,Spin-Spin,Magnetic field MRCI
   Yang Guo               : DLPNO-NEVPT2, CIM, IAO-localization
   Andreas Hansen         : Spin unrestricted coupled pair/coupled cluster methods
   Lee Huntington         : MR-EOM, pCC
   Robert Izsak           : Overlap fitted RIJCOSX, COSX-SCS-MP3, EOM
   Christian Kollmar      : KDIIS, OOCD, Brueckner-CCSD(T), CCSD density
   Simone Kossmann        : Meta GGA functionals, TD-DFT gradient, OOMP2, MP2 Hessian
   Martin Krupicka        : AUTO-CI
   Dagmar Lenk            : GEPOL surface
   Dimitrios Liakos       : Extrapolation schemes; parallel MDCI
   Dimitrios Manganas     : ROCIS; embedding schemes
   Dimitrios Pantazis     : SARC Basis sets
   Taras Petrenko         : DFT Hessian,TD-DFT gradient, ASA, ECA, R-Raman, ABS, FL, XAS/XES, NRVS
   Peter Pinski           : DLPNO-MP2
   Christoph Reimann      : Effective Core Potentials
   Marius Retegan         : Local ZFS, SOC
   Christoph Riplinger    : Optimizer, TS searches, QM/MM, DLPNO-CCSD(T), (RO)-DLPNO pert. Triples
   Tobias Risthaus        : Range-separated hybrids, TD-DFT gradient, RPA, STAB
   Michael Roemelt        : Restricted open shell CIS
   Masaaki Saitow         : Open-shell DLPNO
   Barbara Sandhoefer     : DKH picture change effects
   Kantharuban Sivalingam : CASSCF convergence, NEVPT2, FIC-MRCI
   Georgi Stoychev        : AutoAux
   Boris Wezisla          : Elementary symmetry handling
   Frank Wennmohs         : Technical directorship


 We gratefully acknowledge several colleagues who have allowed us to
 interface, adapt or use parts of their codes:
   Stefan Grimme, W. Hujo, H. Kruse,             : VdW corrections, initial TS optimization,
                  C. Bannwarth                     DFT functionals, gCP, sTDA/sTD-DF
   Ed Valeev                                     : LibInt (2-el integral package), F12 methods
   Garnet Chan, S. Sharma, J. Yang, R. Olivares  : DMRG
   Ulf Ekstrom                                   : XCFun DFT Library
   Mihaly Kallay                                 : mrcc  (arbitrary order and MRCC methods)
   Jiri Pittner, Ondrej Demel                    : Mk-CCSD
   Frank Weinhold                                : gennbo (NPA and NBO analysis)
   Christopher J. Cramer and Donald G. Truhlar   : smd solvation model


 Your calculation uses the libint2 library for the computation of 2-el integrals
 For citations please refer to: http://libint.valeyev.net

 This ORCA versions uses:
   CBLAS   interface :  Fast vector & matrix operations
   LAPACKE interface :  Fast linear algebra routines
   SCALAPACK package :  Parallel linear algebra routines


Your calculation utilizes the atom-pairwise dispersion correction
with the zero-damping scheme (D30)
Cite in your paper:
S.Grimme, J.Antony, S.Ehrlich and H.Krieg, J.Chem.Phys., 132, (2010), 154104 
   

XCFun DFT library Copyright 2009-2010 Ulf Ekstrom and contributors.
See http://admol.org/xcfun for more information. This is free soft-
ware; see the source code for copying conditions. There is ABSOLUTELY
NO WARRANTY; not even for MERCHANTABILITY or FITNESS FOR A PARTICULAR
PURPOSE. For details see the documentation. Scientific users of this 
library should cite U. Ekstrom, L. Visscher, R. Bast, A. J. Thorvald-
sen and K. Ruud; J.Chem.Theor.Comp. 2010, DOI: 10.1021/ct100117s
XCFun Version 0.99 
Your calculation utilizes the basis: 6-31G(d)
   H-He, Li-Ne : W. J. Hehre, R. Ditchfield and J.A. Pople, J. Chem. Phys. 56, 2257 (1972).
                 Note: He and Ne are unpublished basis sets taken from the Gaussian program.
                 Note: Li and B from J. D. Dill and J. A. Pople, J. Chem. Phys. 62, 2921 (1975).
   Na - Ar     : M. M. Francl, W. J. Pietro, W. J. Hehre, J. S. Binkley, M. S. Gordon, 
                 D. J. DeFrees and J. A. Pople, J. Chem. Phys. 77, 3654 (1982).
   K - Zn      : V. A. Rassolov, J. A. Pople, M. A. Ratner, and T. L. Windus, J. Chem. Phys. 109, 1223 (1998).

================================================================================
                                        WARNINGS
                       Please study these warnings very carefully!
================================================================================

Warning: TCutStore was < 0. Adjusted to Thresh (uncritical)

INFO   : the flag for use of LIBINT has been found!

================================================================================
                                       INPUT FILE
================================================================================
NAME = initial12.inp
|  1> ! WB97X-D3 6-31G(d) VerySlowConv
|  2> ! KDIIS NOSOSCF
|  3> %base "Scan_12"
|  4> 
|  5> %scf
|  6> maxiter 999
|  7> end
|  8> 
|  9> * xyz 0 1
| 10> C         -4.472624186446    1.925957750174    0.000000702882
| 11> H         -2.940993891562    1.925889829518   -0.000003423895
| 12> H         -4.983305614167    2.327107051231    1.387172543369
| 13> H         -4.983292413006    0.524022267406   -0.346100912238
| 14> H         -4.983323894820    2.926623101671   -1.041058910117
| 15> **                         ****END OF INPUT****
================================================================================

                       ****************************
                       * Single Point Calculation *
                       ****************************

---------------------------------
CARTESIAN COORDINATES (ANGSTROEM)
---------------------------------
  C     -4.472624    1.925958    0.000001
  H     -2.940994    1.925890   -0.000003
  H     -4.983306    2.327107    1.387173
  H     -4.983292    0.524022   -0.346101
  H     -4.983324    2.926623   -1.041059

----------------------------
CARTESIAN COORDINATES (A.U.)
----------------------------
  NO LB      ZA    FRAG     MASS         X           Y           Z
   0 C     6.0000    0    12.011   -8.452035    3.639533    0.000001
   1 H     1.0000    0     1.008   -5.557673    3.639404   -0.000006
   2 H     1.0000    0     1.008   -9.417083    4.397595    2.621376
   3 H     1.0000    0     1.008   -9.417058    0.990259   -0.654036
   4 H     1.0000    0     1.008   -9.417117    5.530516   -1.967316

--------------------------------
INTERNAL COORDINATES (ANGSTROEM)
--------------------------------
 C      0   0   0     0.000000000000     0.00000000     0.00000000
 H      1   0   0     1.531630296396     0.00000000     0.00000000
 H      1   2   0     1.531653354189   109.47724513     0.00000000
 H      1   2   3     1.531662973193   109.47323622   240.00437741
 H      1   2   3     1.531649586439   109.47881562   120.00587083

---------------------------
INTERNAL COORDINATES (A.U.)
---------------------------
 C      0   0   0     0.000000000000     0.00000000     0.00000000
 H      1   0   0     2.894361798604     0.00000000     0.00000000
 H      1   2   0     2.894405371519   109.47724513     0.00000000
 H      1   2   3     2.894423548802   109.47323622   240.00437741
 H      1   2   3     2.894398251503   109.47881562   120.00587083

---------------------
BASIS SET INFORMATION
---------------------
There are 2 groups of distinct atoms

 Group   1 Type C   : 10s4p1d contracted to 3s2p1d pattern {631/31/1}
 Group   2 Type H   : 4s contracted to 2s pattern {31}

Atom   0C    basis set group =>   1
Atom   1H    basis set group =>   2
Atom   2H    basis set group =>   2
Atom   3H    basis set group =>   2
Atom   4H    basis set group =>   2
------------------------------------------------------------------------------
                           ORCA GTO INTEGRAL CALCULATION
------------------------------------------------------------------------------

                         BASIS SET STATISTICS AND STARTUP INFO

 # of primitive gaussian shells          ...   31
 # of primitive gaussian functions       ...   43
 # of contracted shells                  ...   14
 # of contracted basis functions         ...   22
 Highest angular momentum                ...    2
 Maximum contraction depth               ...    6
 Integral package used                   ... LIBINT
 Integral threshhold            Thresh   ...  1.000e-10
 Primitive cut-off              TCut     ...  1.000e-11


------------------------------ INTEGRAL EVALUATION ----------------------------


 * One electron integrals 
 Pre-screening matrix                    ... done
 Shell pair data                         ... done (   0.000 sec)

-------------------------------------------------------------------------------
                                 ORCA SCF
-------------------------------------------------------------------------------

------------
SCF SETTINGS
------------
Hamiltonian:
 Density Functional     Method          .... DFT(GTOs)
 Exchange Functional    Exchange        .... WB97X-D3
 Correlation Functional Correlation     .... WB97X-D3
 Gradients option       PostSCFGGA      .... off
 Hybrid DFT is turned on
   Fraction HF Exchange ScalHFX         ....  0.195728
   Scaling of DF-GGA-X  ScalDFX         ....  0.000000
   Scaling of DF-GGA-C  ScalDFC         ....  1.000000
   Scaling of DF-LDA-C  ScalLDAC        ....  1.000000
   Perturbative correction              ....  0.000000
 Long-range corrected/Screened/Range-Separated Hybrid DFT is turned on
   Amount of maximum screened exact exchange              ....  0.804272
   Range separation parameter mu (erf(mu*r12)/r12)        ....  0.250000


General Settings:
 Integral files         IntName         .... Scan_12
 Hartree-Fock type      HFTyp           .... RHF
 Total Charge           Charge          ....    0
 Multiplicity           Mult            ....    1
 Number of Electrons    NEL             ....   10
 Basis Dimension        Dim             ....   22
 Nuclear Repulsion      ENuc            ....      9.5613118420 Eh

Convergence Acceleration:
 DIIS                   CNVDIIS         .... on
   Start iteration      DIISMaxIt       ....     0
   Startup error        DIISStart       ....  0.200000
   # of expansion vecs  DIISMaxEq       ....     5
   Bias factor          DIISBfac        ....   1.050
   Max. coefficient     DIISMaxC        ....  10.000
 Newton-Raphson         CNVNR           .... off
 SOSCF                  CNVSOSCF        .... off
 Level Shifting         CNVShift        .... off
 Zerner damping         CNVZerner       .... off
 Static damping         CNVDamp         .... off
 Fernandez-Rico         CNVRico         .... off

SCF Procedure:
 Maximum # iterations   MaxIter         ....   999
 SCF integral mode      SCFMode         .... Direct
   Integral package                     .... LIBINT
 Reset frequeny         DirectResetFreq ....    20
 Integral Threshold     Thresh          ....  1.000e-10 Eh
 Primitive CutOff       TCut            ....  1.000e-11 Eh

Convergence Tolerance:
 Convergence Check Mode ConvCheckMode   .... All-Criteria
 Convergence forced     ConvForced      .... 0
 Energy Change          TolE            ....  1.000e-06 Eh
 Max Density Change     TolMaxP         ....  1.000e-05
 RMS Density Change     TolRMSP         ....  1.000e-06
 DIIS Error             TolErr          ....  1.000e-06


Diagonalization of the overlap matrix:
Smallest eigenvalue                        ... 6.092e-02
Time for diagonalization                   ...    0.000 sec
Threshold for overlap eigenvalues          ... 1.000e-08
Number of eigenvalues below threshold      ... 0
Time for construction of square roots      ...    0.006 sec
Total time needed                          ...    0.007 sec

-------------------
DFT GRID GENERATION
-------------------

General Integration Accuracy     IntAcc      ...  4.340
Radial Grid Type                 RadialGrid  ... Gauss-Chebyshev
Angular Grid (max. acc.)         AngularGrid ... Lebedev-110
Angular grid pruning method      GridPruning ... 3 (G Style)
Weight generation scheme         WeightScheme... Becke
Basis function cutoff            BFCut       ...    1.0000e-10
Integration weight cutoff        WCut        ...    1.0000e-14
Grids for H and He will be reduced by one unit

# of grid points (after initial pruning)     ...   4832 (   0.0 sec)
# of grid points (after weights+screening)   ...   4737 (   0.0 sec)
nearest neighbour list constructed           ...    0.0 sec
Grid point re-assignment to atoms done       ...    0.0 sec
Grid point division into batches done        ...    0.0 sec
Reduced shell lists constructed in    0.0 sec

Total number of grid points                  ...     4737
Total number of batches                      ...       76
Average number of points per batch           ...       62
Average number of grid points per atom       ...      947
Average number of shells per batch           ...    12.88 (92.02%)
Average number of basis functions per batch  ...    20.31 (92.33%)
Average number of large shells per batch     ...    11.66 (90.52%)
Average number of large basis fcns per batch ...    18.60 (91.56%)
Maximum spatial batch extension              ...  20.65, 25.60, 23.60 au
Average spatial batch extension              ...   5.28,  5.36,  5.02 au

Time for grid setup =    0.030 sec

------------------------------
INITIAL GUESS: MODEL POTENTIAL
------------------------------
Loading Hartree-Fock densities                     ... done
Calculating cut-offs                               ... done
Setting up the integral package                    ... done
Initializing the effective Hamiltonian             ... done
Starting the Coulomb interaction                   ... done (   0.0 sec)
Reading the grid                                   ... done
Mapping shells                                     ... done
Starting the XC term evaluation                    ... done (   0.0 sec)
  promolecular density results
     # of electrons  =      9.998024443
     EX              =     -6.069442398
     EC              =     -0.263294235
     EX+EC           =     -6.332736633
Transforming the Hamiltonian                       ... done (   0.0 sec)
Diagonalizing the Hamiltonian                      ... done (   0.0 sec)
Back transforming the eigenvectors                 ... done (   0.0 sec)
Now organizing SCF variables                       ... done
                      ------------------
                      INITIAL GUESS DONE (   0.2 sec)
                      ------------------
--------------
SCF ITERATIONS
--------------
ITER       Energy         Delta-E        Max-DP      RMS-DP      [F,P]   Gradient Norm
               ***  Starting incremental Fock matrix formation  ***
                             ****Resetting KDIIS****
                             ****Turning on KDIIS(Cayley)****
  0    -40.2457406588   0.000000000000 0.00801887  0.00104385  0.0390915   0.037303104
  1    -40.2489218015  -0.003181142785 0.00931164  0.00103932  0.0318611   0.030058399
  2    -40.2509138751  -0.001992073546 0.01842005  0.00191042  0.0262107   0.024408091
  3    -40.2534247461  -0.002510871002 0.02728760  0.00286238  0.0160055   0.014717033
Warning: badly conditioned DIIS matrix, 1 vectors out of 5 destroyed
  4    -40.2548576741  -0.001432928003 0.00064985  0.00007433  0.0001707   0.000150021
                          ***Energy convergence achieved***
  5    -40.2548578702  -0.000000196104 0.00029170  0.00002154  0.0000712   0.000069744

            ***Energy convergence in two consecutive cycles with***
                    ***'reasonable' density convergence***
                       *** signaling convergence ***

                    *** KDIIS BlockDiag ( 0.000 sec) ***

               *****************************************************
               *                     SUCCESS                       *
               *           SCF CONVERGED AFTER   6 CYCLES          *
               *****************************************************

Setting up the final grid:

General Integration Accuracy     IntAcc      ...  4.670
Radial Grid Type                 RadialGrid  ... Gauss-Chebyshev
Angular Grid (max. acc.)         AngularGrid ... Lebedev-302
Angular grid pruning method      GridPruning ... 3 (G Style)
Weight generation scheme         WeightScheme... Becke
Basis function cutoff            BFCut       ...    1.0000e-10
Integration weight cutoff        WCut        ...    1.0000e-14
Grids for H and He will be reduced by one unit

# of grid points (after initial pruning)     ...  19788 (   0.0 sec)
# of grid points (after weights+screening)   ...  19419 (   0.0 sec)
nearest neighbour list constructed           ...    0.0 sec
Grid point re-assignment to atoms done       ...    0.0 sec
Grid point division into batches done        ...    0.0 sec
Reduced shell lists constructed in    0.1 sec

Total number of grid points                  ...    19419
Total number of batches                      ...      305
Average number of points per batch           ...       63
Average number of grid points per atom       ...     3884
Average number of shells per batch           ...    11.76 (84.01%)
Average number of basis functions per batch  ...    18.66 (84.83%)
Average number of large shells per batch     ...    10.37 (88.14%)
Average number of large basis fcns per batch ...    16.92 (90.63%)
Maximum spatial batch extension              ...  20.64, 20.64, 18.97 au
Average spatial batch extension              ...   3.49,  3.35,  3.24 au

Final grid set up in    0.1 sec
Final integration                            ... done (   0.2 sec)
Change in XC energy                          ...    -0.000377936
Integrated number of electrons               ...     9.999995883
Previous integrated no of electrons          ...     9.999469183

----------------
TOTAL SCF ENERGY
----------------

Total Energy       :          -40.25523583 Eh           -1095.40066 eV

Components:
Nuclear Repulsion  :            9.56131184 Eh             260.17652 eV
Electronic Energy  :          -49.81654768 Eh           -1355.57718 eV
One Electron Energy:          -72.09455633 Eh           -1961.79261 eV
Two Electron Energy:           22.27800866 Eh             606.21543 eV

Virial components:
Potential Energy   :          -79.10848601 Eh           -2152.65134 eV
Kinetic Energy     :           38.85325017 Eh            1057.25069 eV
Virial Ratio       :            2.03608413


DFT components:
N(Alpha)           :        4.999997941512 electrons
N(Beta)            :        4.999997941512 electrons
N(Total)           :        9.999995883023 electrons
E(XC)              :       -4.190458700570 Eh       

---------------
SCF CONVERGENCE
---------------

  Last Energy change         ...   -2.7191e-08  Tolerance :   1.0000e-06
  Last MAX-Density change    ...    3.6029e-05  Tolerance :   1.0000e-05
  Last RMS-Density change    ...    4.7554e-06  Tolerance :   1.0000e-06
  Last DIIS Error            ...    1.3740e-05  Tolerance :   1.0000e-06

             **** THE GBW FILE WAS UPDATED (Scan_12.gbw) ****
             **** DENSITY FILE WAS UPDATED (Scan_12.scfp.tmp) ****
             **** ENERGY FILE WAS UPDATED (Scan_12.en.tmp) ****
----------------
ORBITAL ENERGIES
----------------

  NO   OCC          E(Eh)            E(eV) 
   0   2.0000     -10.414234      -283.3857 
   1   2.0000      -0.708609       -19.2822 
   2   2.0000      -0.421608       -11.4725 
   3   2.0000      -0.421547       -11.4709 
   4   2.0000      -0.421523       -11.4702 
   5   0.0000       0.050115         1.3637 
   6   0.0000       0.131202         3.5702 
   7   0.0000       0.131364         3.5746 
   8   0.0000       0.131388         3.5753 
   9   0.0000       0.713610        19.4183 
  10   0.0000       0.714567        19.4444 
  11   0.0000       0.715193        19.4614 
  12   0.0000       0.791307        21.5326 
  13   0.0000       0.904722        24.6187 
  14   0.0000       0.904992        24.6261 
  15   0.0000       0.905334        24.6354 
  16   0.0000       1.046736        28.4831 
  17   0.0000       1.783232        48.5242 
  18   0.0000       1.783424        48.5294 
  19   0.0000       1.911243        52.0076 
  20   0.0000       1.911731        52.0208 
  21   0.0000       1.912065        52.0299 

                    ********************************
                    * MULLIKEN POPULATION ANALYSIS *
                    ********************************

-----------------------
MULLIKEN ATOMIC CHARGES
-----------------------
   0 C :   -0.398236
   1 H :    0.099133
   2 H :    0.099843
   3 H :    0.099816
   4 H :    0.099443
Sum of atomic charges:   -0.0000000

--------------------------------
MULLIKEN REDUCED ORBITAL CHARGES
--------------------------------
  0 C s       :     3.535344  s :     3.535344
      pz      :     0.949611  p :     2.848466
      px      :     0.949390
      py      :     0.949465
      dz2     :     0.003603  d :     0.014427
      dxz     :     0.001604
      dyz     :     0.003197
      dx2y2   :     0.004419
      dxy     :     0.001604
  1 H s       :     0.900867  s :     0.900867
  2 H s       :     0.900157  s :     0.900157
  3 H s       :     0.900184  s :     0.900184
  4 H s       :     0.900557  s :     0.900557


                     *******************************
                     * LOEWDIN POPULATION ANALYSIS *
                     *******************************

----------------------
LOEWDIN ATOMIC CHARGES
----------------------
   0 C :   -0.397209
   1 H :    0.099147
   2 H :    0.099459
   3 H :    0.099421
   4 H :    0.099182

-------------------------------
LOEWDIN REDUCED ORBITAL CHARGES
-------------------------------
  0 C s       :     3.330873  s :     3.330873
      pz      :     1.015239  p :     3.045339
      px      :     1.014966
      py      :     1.015134
      dz2     :     0.005245  d :     0.020998
      dxz     :     0.002334
      dyz     :     0.004659
      dx2y2   :     0.006424
      dxy     :     0.002335
  1 H s       :     0.900853  s :     0.900853
  2 H s       :     0.900541  s :     0.900541
  3 H s       :     0.900579  s :     0.900579
  4 H s       :     0.900818  s :     0.900818


                      *****************************
                      * MAYER POPULATION ANALYSIS *
                      *****************************

  NA   - Mulliken gross atomic population
  ZA   - Total nuclear charge
  QA   - Mulliken gross atomic charge
  VA   - Mayer's total valence
  BVA  - Mayer's bonded valence
  FA   - Mayer's free valence

  ATOM       NA         ZA         QA         VA         BVA        FA
  0 C      6.3982     6.0000    -0.3982     3.7075     3.7075    -0.0000
  1 H      0.9009     1.0000     0.0991     0.9754     0.9754     0.0000
  2 H      0.9002     1.0000     0.0998     0.9752     0.9752    -0.0000
  3 H      0.9002     1.0000     0.0998     0.9752     0.9752    -0.0000
  4 H      0.9006     1.0000     0.0994     0.9753     0.9753    -0.0000

  Mayer bond orders larger than 0.1
B(  0-C ,  1-H ) :   0.9271 B(  0-C ,  2-H ) :   0.9268 B(  0-C ,  3-H ) :   0.9268 
B(  0-C ,  4-H ) :   0.9268 

-------
TIMINGS
-------

Total SCF time: 0 days 0 hours 0 min 3 sec 

Total time                  ....       3.009 sec
Sum of individual times     ....       2.895 sec  ( 96.2%)

Fock matrix formation       ....       2.551 sec  ( 84.8%)
  XC integration            ....       0.551 sec  ( 21.6% of F)
    Basis function eval.    ....       0.177 sec  ( 32.2% of XC)
    Density eval.           ....       0.024 sec  (  4.3% of XC)
    XC-Functional eval.     ....       0.165 sec  ( 30.0% of XC)
    XC-Potential eval.      ....       0.015 sec  (  2.8% of XC)
Diagonalization             ....       0.020 sec  (  0.7%)
Density matrix formation    ....       0.000 sec  (  0.0%)
Population analysis         ....       0.010 sec  (  0.3%)
Initial guess               ....       0.139 sec  (  4.6%)
Orbital Transformation      ....       0.000 sec  (  0.0%)
Orbital Orthonormalization  ....       0.000 sec  (  0.0%)
DIIS solution               ....       0.000 sec  (  0.0%)
Grid generation             ....       0.175 sec  (  5.8%)


-------------------------------------------------------------------------------
                          DFT DISPERSION CORRECTION                            
                                                                               
                              DFTD3 V3.1  Rev 1                                
                              USING zero damping                               
-------------------------------------------------------------------------------
The omegaB97X-D3 functional is recognized. Fit by Chai et al.
Active option DFTDOPT                   ...         3   

molecular C6(AA) [au] = 282.901580 


            DFT-D V3
 parameters
 s6 scaling factor         :     1.0000 
 rs6 scaling factor        :     1.2810 
 s8 scaling factor         :     1.0000 
 rs8 scaling factor        :     1.0940 
 Damping factor alpha6     :    14.0000 
 Damping factor alpha8     :    16.0000 
 ad hoc parameters k1-k3   :    16.0000     1.3333    -4.0000 

 Edisp/kcal,au: -0.392124028798  -0.000624889349 
 E6   /kcal   :  -0.075964805 
 E8   /kcal   :  -0.316159223 
 % E8         :  80.627352598 

-------------------------   ----------------
Dispersion correction           -0.000624889
-------------------------   ----------------


-------------------------   --------------------
FINAL SINGLE POINT ENERGY       -40.255860722805
-------------------------   --------------------


                            ***************************************
                            *     ORCA property calculations      *
                            ***************************************

                                    ---------------------
                                    Active property flags
                                    ---------------------
   (+) Dipole Moment


------------------------------------------------------------------------------
                       ORCA ELECTRIC PROPERTIES CALCULATION
------------------------------------------------------------------------------

Dipole Moment Calculation                       ... on
Quadrupole Moment Calculation                   ... off
Polarizability Calculation                      ... off
GBWName                                         ... Scan_12.gbw
Electron density file                           ... Scan_12.scfp.tmp

-------------
DIPOLE MOMENT
-------------
                                X             Y             Z
Electronic contribution:      0.00044      -0.00012       0.00044
Nuclear contribution   :     -0.00029      -0.00013       0.00000
                        -----------------------------------------
Total Dipole Moment    :      0.00014      -0.00025       0.00044
                        -----------------------------------------
Magnitude (a.u.)       :      0.00053
Magnitude (Debye)      :      0.00135


Timings for individual modules:

Sum of individual times         ...        3.432 sec (=   0.057 min)
GTO integral calculation        ...        0.399 sec (=   0.007 min)  11.6 %
SCF iterations                  ...        3.033 sec (=   0.051 min)  88.4 %
                             ****ORCA TERMINATED NORMALLY****
TOTAL RUN TIME: 0 days 0 hours 0 minutes 3 seconds 828 msec
