
                                 *****************
                                 * O   R   C   A *
                                 *****************

           --- An Ab Initio, DFT and Semiempirical electronic structure package ---

                  #######################################################
                  #                        -***-                        #
                  #  Department of molecular theory and spectroscopy    #
                  #              Directorship: Frank Neese              #
                  # Max Planck Institute for Chemical Energy Conversion #
                  #                  D-45470 Muelheim/Ruhr              #
                  #                       Germany                       #
                  #                                                     #
                  #                  All rights reserved                #
                  #                        -***-                        #
                  #######################################################


                         Program Version 4.0.0.2 - RELEASE -


 With contributions from (in alphabetic order):
   Daniel Aravena         : Magnetic Properties
   Michael Atanasov       : Ab Initio Ligand Field Theory
   Ute Becker             : Parallelization
   Martin Brehm           : Molecular dynamics
   Dmytro Bykov           : SCF Hessian
   Vijay G. Chilkuri      : MRCI spin determinant printing
   Dipayan Datta          : RHF DLPNO-CCSD density
   Achintya Kumar Dutta   : EOM-CC, STEOM-CC
   Dmitry Ganyushin       : Spin-Orbit,Spin-Spin,Magnetic field MRCI
   Yang Guo               : DLPNO-NEVPT2, CIM, IAO-localization
   Andreas Hansen         : Spin unrestricted coupled pair/coupled cluster methods
   Lee Huntington         : MR-EOM, pCC
   Robert Izsak           : Overlap fitted RIJCOSX, COSX-SCS-MP3, EOM
   Christian Kollmar      : KDIIS, OOCD, Brueckner-CCSD(T), CCSD density
   Simone Kossmann        : Meta GGA functionals, TD-DFT gradient, OOMP2, MP2 Hessian
   Martin Krupicka        : AUTO-CI
   Dagmar Lenk            : GEPOL surface
   Dimitrios Liakos       : Extrapolation schemes; parallel MDCI
   Dimitrios Manganas     : ROCIS; embedding schemes
   Dimitrios Pantazis     : SARC Basis sets
   Taras Petrenko         : DFT Hessian,TD-DFT gradient, ASA, ECA, R-Raman, ABS, FL, XAS/XES, NRVS
   Peter Pinski           : DLPNO-MP2
   Christoph Reimann      : Effective Core Potentials
   Marius Retegan         : Local ZFS, SOC
   Christoph Riplinger    : Optimizer, TS searches, QM/MM, DLPNO-CCSD(T), (RO)-DLPNO pert. Triples
   Tobias Risthaus        : Range-separated hybrids, TD-DFT gradient, RPA, STAB
   Michael Roemelt        : Restricted open shell CIS
   Masaaki Saitow         : Open-shell DLPNO
   Barbara Sandhoefer     : DKH picture change effects
   Kantharuban Sivalingam : CASSCF convergence, NEVPT2, FIC-MRCI
   Georgi Stoychev        : AutoAux
   Boris Wezisla          : Elementary symmetry handling
   Frank Wennmohs         : Technical directorship


 We gratefully acknowledge several colleagues who have allowed us to
 interface, adapt or use parts of their codes:
   Stefan Grimme, W. Hujo, H. Kruse,             : VdW corrections, initial TS optimization,
                  C. Bannwarth                     DFT functionals, gCP, sTDA/sTD-DF
   Ed Valeev                                     : LibInt (2-el integral package), F12 methods
   Garnet Chan, S. Sharma, J. Yang, R. Olivares  : DMRG
   Ulf Ekstrom                                   : XCFun DFT Library
   Mihaly Kallay                                 : mrcc  (arbitrary order and MRCC methods)
   Jiri Pittner, Ondrej Demel                    : Mk-CCSD
   Frank Weinhold                                : gennbo (NPA and NBO analysis)
   Christopher J. Cramer and Donald G. Truhlar   : smd solvation model


 Your calculation uses the libint2 library for the computation of 2-el integrals
 For citations please refer to: http://libint.valeyev.net

 This ORCA versions uses:
   CBLAS   interface :  Fast vector & matrix operations
   LAPACKE interface :  Fast linear algebra routines
   SCALAPACK package :  Parallel linear algebra routines


Your calculation utilizes the atom-pairwise dispersion correction
with the zero-damping scheme (D30)
Cite in your paper:
S.Grimme, J.Antony, S.Ehrlich and H.Krieg, J.Chem.Phys., 132, (2010), 154104 
   

XCFun DFT library Copyright 2009-2010 Ulf Ekstrom and contributors.
See http://admol.org/xcfun for more information. This is free soft-
ware; see the source code for copying conditions. There is ABSOLUTELY
NO WARRANTY; not even for MERCHANTABILITY or FITNESS FOR A PARTICULAR
PURPOSE. For details see the documentation. Scientific users of this 
library should cite U. Ekstrom, L. Visscher, R. Bast, A. J. Thorvald-
sen and K. Ruud; J.Chem.Theor.Comp. 2010, DOI: 10.1021/ct100117s
XCFun Version 0.99 
Your calculation utilizes the basis: 6-31G(d)
   H-He, Li-Ne : W. J. Hehre, R. Ditchfield and J.A. Pople, J. Chem. Phys. 56, 2257 (1972).
                 Note: He and Ne are unpublished basis sets taken from the Gaussian program.
                 Note: Li and B from J. D. Dill and J. A. Pople, J. Chem. Phys. 62, 2921 (1975).
   Na - Ar     : M. M. Francl, W. J. Pietro, W. J. Hehre, J. S. Binkley, M. S. Gordon, 
                 D. J. DeFrees and J. A. Pople, J. Chem. Phys. 77, 3654 (1982).
   K - Zn      : V. A. Rassolov, J. A. Pople, M. A. Ratner, and T. L. Windus, J. Chem. Phys. 109, 1223 (1998).

================================================================================
                                        WARNINGS
                       Please study these warnings very carefully!
================================================================================

Warning: TCutStore was < 0. Adjusted to Thresh (uncritical)

INFO   : the flag for use of LIBINT has been found!

================================================================================
                                       INPUT FILE
================================================================================
NAME = initial13.inp
|  1> ! WB97X-D3 6-31G(d) VerySlowConv
|  2> ! KDIIS NOSOSCF
|  3> %base "Scan_13"
|  4> 
|  5> %scf
|  6> maxiter 999
|  7> end
|  8> 
|  9> * xyz 0 1
| 10> C         -4.472706011867    1.925923256304    0.000002151385
| 11> H         -2.833410017430    1.925915953646   -0.000004960228
| 12> H         -5.019135243094    2.355340114369    1.484693483135
| 13> H         -5.019142560951    0.425433919101   -0.370448784385
| 14> H         -5.019146166657    2.996986756580   -1.114231889907
| 15> **                         ****END OF INPUT****
================================================================================

                       ****************************
                       * Single Point Calculation *
                       ****************************

---------------------------------
CARTESIAN COORDINATES (ANGSTROEM)
---------------------------------
  C     -4.472706    1.925923    0.000002
  H     -2.833410    1.925916   -0.000005
  H     -5.019135    2.355340    1.484693
  H     -5.019143    0.425434   -0.370449
  H     -5.019146    2.996987   -1.114232

----------------------------
CARTESIAN COORDINATES (A.U.)
----------------------------
  NO LB      ZA    FRAG     MASS         X           Y           Z
   0 C     6.0000    0    12.011   -8.452189    3.639468    0.000004
   1 H     1.0000    0     1.008   -5.354369    3.639454   -0.000009
   2 H     1.0000    0     1.008   -9.484791    4.450948    2.805664
   3 H     1.0000    0     1.008   -9.484805    0.803954   -0.700047
   4 H     1.0000    0     1.008   -9.484812    5.663484   -2.105593

--------------------------------
INTERNAL COORDINATES (ANGSTROEM)
--------------------------------
 C      0   0   0     0.000000000000     0.00000000     0.00000000
 H      1   0   0     1.639295994469     0.00000000     0.00000000
 H      1   2   0     1.639296218901   109.47142498     0.00000000
 H      1   2   3     1.639297120429   109.47106806   240.00032053
 H      1   2   3     1.639295996202   109.47152068   120.00047828

---------------------------
INTERNAL COORDINATES (A.U.)
---------------------------
 C      0   0   0     0.000000000000     0.00000000     0.00000000
 H      1   0   0     3.097820481980     0.00000000     0.00000000
 H      1   2   0     3.097820906096   109.47142498     0.00000000
 H      1   2   3     3.097822609737   109.47106806   240.00032053
 H      1   2   3     3.097820485256   109.47152068   120.00047828

---------------------
BASIS SET INFORMATION
---------------------
There are 2 groups of distinct atoms

 Group   1 Type C   : 10s4p1d contracted to 3s2p1d pattern {631/31/1}
 Group   2 Type H   : 4s contracted to 2s pattern {31}

Atom   0C    basis set group =>   1
Atom   1H    basis set group =>   2
Atom   2H    basis set group =>   2
Atom   3H    basis set group =>   2
Atom   4H    basis set group =>   2
------------------------------------------------------------------------------
                           ORCA GTO INTEGRAL CALCULATION
------------------------------------------------------------------------------

                         BASIS SET STATISTICS AND STARTUP INFO

 # of primitive gaussian shells          ...   31
 # of primitive gaussian functions       ...   43
 # of contracted shells                  ...   14
 # of contracted basis functions         ...   22
 Highest angular momentum                ...    2
 Maximum contraction depth               ...    6
 Integral package used                   ... LIBINT
 Integral threshhold            Thresh   ...  1.000e-10
 Primitive cut-off              TCut     ...  1.000e-11


------------------------------ INTEGRAL EVALUATION ----------------------------


 * One electron integrals 
 Pre-screening matrix                    ... done
 Shell pair data                         ... done (   0.000 sec)

-------------------------------------------------------------------------------
                                 ORCA SCF
-------------------------------------------------------------------------------

------------
SCF SETTINGS
------------
Hamiltonian:
 Density Functional     Method          .... DFT(GTOs)
 Exchange Functional    Exchange        .... WB97X-D3
 Correlation Functional Correlation     .... WB97X-D3
 Gradients option       PostSCFGGA      .... off
 Hybrid DFT is turned on
   Fraction HF Exchange ScalHFX         ....  0.195728
   Scaling of DF-GGA-X  ScalDFX         ....  0.000000
   Scaling of DF-GGA-C  ScalDFC         ....  1.000000
   Scaling of DF-LDA-C  ScalLDAC        ....  1.000000
   Perturbative correction              ....  0.000000
 Long-range corrected/Screened/Range-Separated Hybrid DFT is turned on
   Amount of maximum screened exact exchange              ....  0.804272
   Range separation parameter mu (erf(mu*r12)/r12)        ....  0.250000


General Settings:
 Integral files         IntName         .... Scan_13
 Hartree-Fock type      HFTyp           .... RHF
 Total Charge           Charge          ....    0
 Multiplicity           Mult            ....    1
 Number of Electrons    NEL             ....   10
 Basis Dimension        Dim             ....   22
 Nuclear Repulsion      ENuc            ....      8.9334514600 Eh

Convergence Acceleration:
 DIIS                   CNVDIIS         .... on
   Start iteration      DIISMaxIt       ....     0
   Startup error        DIISStart       ....  0.200000
   # of expansion vecs  DIISMaxEq       ....     5
   Bias factor          DIISBfac        ....   1.050
   Max. coefficient     DIISMaxC        ....  10.000
 Newton-Raphson         CNVNR           .... off
 SOSCF                  CNVSOSCF        .... off
 Level Shifting         CNVShift        .... off
 Zerner damping         CNVZerner       .... off
 Static damping         CNVDamp         .... off
 Fernandez-Rico         CNVRico         .... off

SCF Procedure:
 Maximum # iterations   MaxIter         ....   999
 SCF integral mode      SCFMode         .... Direct
   Integral package                     .... LIBINT
 Reset frequeny         DirectResetFreq ....    20
 Integral Threshold     Thresh          ....  1.000e-10 Eh
 Primitive CutOff       TCut            ....  1.000e-11 Eh

Convergence Tolerance:
 Convergence Check Mode ConvCheckMode   .... All-Criteria
 Convergence forced     ConvForced      .... 0
 Energy Change          TolE            ....  1.000e-06 Eh
 Max Density Change     TolMaxP         ....  1.000e-05
 RMS Density Change     TolRMSP         ....  1.000e-06
 DIIS Error             TolErr          ....  1.000e-06


Diagonalization of the overlap matrix:
Smallest eigenvalue                        ... 7.212e-02
Time for diagonalization                   ...    0.000 sec
Threshold for overlap eigenvalues          ... 1.000e-08
Number of eigenvalues below threshold      ... 0
Time for construction of square roots      ...    0.005 sec
Total time needed                          ...    0.005 sec

-------------------
DFT GRID GENERATION
-------------------

General Integration Accuracy     IntAcc      ...  4.340
Radial Grid Type                 RadialGrid  ... Gauss-Chebyshev
Angular Grid (max. acc.)         AngularGrid ... Lebedev-110
Angular grid pruning method      GridPruning ... 3 (G Style)
Weight generation scheme         WeightScheme... Becke
Basis function cutoff            BFCut       ...    1.0000e-10
Integration weight cutoff        WCut        ...    1.0000e-14
Grids for H and He will be reduced by one unit

# of grid points (after initial pruning)     ...   4832 (   0.0 sec)
# of grid points (after weights+screening)   ...   4743 (   0.0 sec)
nearest neighbour list constructed           ...    0.0 sec
Grid point re-assignment to atoms done       ...    0.0 sec
Grid point division into batches done        ...    0.0 sec
Reduced shell lists constructed in    0.0 sec

Total number of grid points                  ...     4743
Total number of batches                      ...       76
Average number of points per batch           ...       62
Average number of grid points per atom       ...      949
Average number of shells per batch           ...    12.82 (91.56%)
Average number of basis functions per batch  ...    20.25 (92.03%)
Average number of large shells per batch     ...    11.31 (88.25%)
Average number of large basis fcns per batch ...    18.27 (90.25%)
Maximum spatial batch extension              ...  20.58, 25.60, 21.89 au
Average spatial batch extension              ...   5.43,  5.52,  5.07 au

Time for grid setup =    0.027 sec

------------------------------
INITIAL GUESS: MODEL POTENTIAL
------------------------------
Loading Hartree-Fock densities                     ... done
Calculating cut-offs                               ... done
Setting up the integral package                    ... done
Initializing the effective Hamiltonian             ... done
Starting the Coulomb interaction                   ... done (   0.0 sec)
Reading the grid                                   ... done
Mapping shells                                     ... done
Starting the XC term evaluation                    ... done (   0.0 sec)
  promolecular density results
     # of electrons  =      9.998088548
     EX              =     -6.041756898
     EC              =     -0.256547095
     EX+EC           =     -6.298303994
Transforming the Hamiltonian                       ... done (   0.0 sec)
Diagonalizing the Hamiltonian                      ... done (   0.0 sec)
Back transforming the eigenvectors                 ... done (   0.0 sec)
Now organizing SCF variables                       ... done
                      ------------------
                      INITIAL GUESS DONE (   0.1 sec)
                      ------------------
--------------
SCF ITERATIONS
--------------
ITER       Energy         Delta-E        Max-DP      RMS-DP      [F,P]   Gradient Norm
               ***  Starting incremental Fock matrix formation  ***
                             ****Resetting KDIIS****
                             ****Turning on KDIIS(Cayley)****
  0    -40.1681976421   0.000000000000 0.00515762  0.00076004  0.0296460   0.027304435
  1    -40.1697963249  -0.001598682878 0.00930540  0.00084377  0.0244580   0.022596647
  2    -40.1708855720  -0.001089247021 0.01850084  0.00159041  0.0202786   0.018397272
  3    -40.1723118466  -0.001426274653 0.02754632  0.00236636  0.0123569   0.011043040
  4    -40.1731144880  -0.000802641373 0.00056976  0.00006679  0.0000847   0.000088865
                          ***Energy convergence achieved***
  5    -40.1731145670  -0.000000079039 0.00026897  0.00002581  0.0000757   0.000053576
                           ***MAXP convergence achieved***

            ***Energy convergence in two consecutive cycles with***
                    ***'reasonable' density convergence***
                       *** signaling convergence ***

                    *** KDIIS BlockDiag ( 0.000 sec) ***

               *****************************************************
               *                     SUCCESS                       *
               *           SCF CONVERGED AFTER   6 CYCLES          *
               *****************************************************

Setting up the final grid:

General Integration Accuracy     IntAcc      ...  4.670
Radial Grid Type                 RadialGrid  ... Gauss-Chebyshev
Angular Grid (max. acc.)         AngularGrid ... Lebedev-302
Angular grid pruning method      GridPruning ... 3 (G Style)
Weight generation scheme         WeightScheme... Becke
Basis function cutoff            BFCut       ...    1.0000e-10
Integration weight cutoff        WCut        ...    1.0000e-14
Grids for H and He will be reduced by one unit

# of grid points (after initial pruning)     ...  19788 (   0.0 sec)
# of grid points (after weights+screening)   ...  19448 (   0.0 sec)
nearest neighbour list constructed           ...    0.0 sec
Grid point re-assignment to atoms done       ...    0.0 sec
Grid point division into batches done        ...    0.0 sec
Reduced shell lists constructed in    0.1 sec

Total number of grid points                  ...    19448
Total number of batches                      ...      306
Average number of points per batch           ...       63
Average number of grid points per atom       ...     3890
Average number of shells per batch           ...    11.64 (83.18%)
Average number of basis functions per batch  ...    18.53 (84.23%)
Average number of large shells per batch     ...    10.07 (86.49%)
Average number of large basis fcns per batch ...    16.59 (89.51%)
Maximum spatial batch extension              ...  20.64, 20.64, 18.93 au
Average spatial batch extension              ...   3.52,  3.36,  3.25 au

Final grid set up in    0.1 sec
Final integration                            ... done (   0.1 sec)
Change in XC energy                          ...    -0.000372490
Integrated number of electrons               ...     9.999983490
Previous integrated no of electrons          ...     9.999485437

----------------
TOTAL SCF ENERGY
----------------

Total Energy       :          -40.17348709 Eh           -1093.17616 eV

Components:
Nuclear Repulsion  :            8.93345146 Eh             243.09157 eV
Electronic Energy  :          -49.10693855 Eh           -1336.26773 eV
One Electron Energy:          -70.75947979 Eh           -1925.46333 eV
Two Electron Energy:           21.65254124 Eh             589.19560 eV

Virial components:
Potential Energy   :          -78.89614298 Eh           -2146.87320 eV
Kinetic Energy     :           38.72265589 Eh            1053.69704 eV
Virial Ratio       :            2.03746724


DFT components:
N(Alpha)           :        4.999991745026 electrons
N(Beta)            :        4.999991745026 electrons
N(Total)           :        9.999983490051 electrons
E(XC)              :       -4.135915039151 Eh       

---------------
SCF CONVERGENCE
---------------

  Last Energy change         ...   -2.9541e-08  Tolerance :   1.0000e-06
  Last MAX-Density change    ...    7.2939e-06  Tolerance :   1.0000e-05
  Last RMS-Density change    ...    1.0380e-06  Tolerance :   1.0000e-06
  Last DIIS Error            ...    2.0960e-06  Tolerance :   1.0000e-06

             **** THE GBW FILE WAS UPDATED (Scan_13.gbw) ****
             **** DENSITY FILE WAS UPDATED (Scan_13.scfp.tmp) ****
             **** ENERGY FILE WAS UPDATED (Scan_13.en.tmp) ****
----------------
ORBITAL ENERGIES
----------------

  NO   OCC          E(Eh)            E(eV) 
   0   2.0000     -10.438763      -284.0532 
   1   2.0000      -0.695450       -18.9242 
   2   2.0000      -0.409506       -11.1432 
   3   2.0000      -0.409494       -11.1429 
   4   2.0000      -0.409433       -11.1412 
   5   0.0000       0.010682         0.2907 
   6   0.0000       0.101659         2.7663 
   7   0.0000       0.101707         2.7676 
   8   0.0000       0.101739         2.7685 
   9   0.0000       0.708136        19.2693 
  10   0.0000       0.709179        19.2977 
  11   0.0000       0.709323        19.3016 
  12   0.0000       0.795151        21.6372 
  13   0.0000       0.922691        25.1077 
  14   0.0000       0.922781        25.1101 
  15   0.0000       0.922858        25.1122 
  16   0.0000       0.998378        27.1673 
  17   0.0000       1.781806        48.4854 
  18   0.0000       1.781956        48.4895 
  19   0.0000       1.859047        50.5872 
  20   0.0000       1.859694        50.6048 
  21   0.0000       1.859902        50.6105 

                    ********************************
                    * MULLIKEN POPULATION ANALYSIS *
                    ********************************

-----------------------
MULLIKEN ATOMIC CHARGES
-----------------------
   0 C :   -0.324770
   1 H :    0.080934
   2 H :    0.081260
   3 H :    0.081288
   4 H :    0.081288
Sum of atomic charges:   -0.0000000

--------------------------------
MULLIKEN REDUCED ORBITAL CHARGES
--------------------------------
  0 C s       :     3.583302  s :     3.583302
      pz      :     0.910299  p :     2.730083
      px      :     0.909623
      py      :     0.910161
      dz2     :     0.002846  d :     0.011385
      dxz     :     0.001267
      dyz     :     0.002519
      dx2y2   :     0.003484
      dxy     :     0.001268
  1 H s       :     0.919066  s :     0.919066
  2 H s       :     0.918740  s :     0.918740
  3 H s       :     0.918712  s :     0.918712
  4 H s       :     0.918712  s :     0.918712


                     *******************************
                     * LOEWDIN POPULATION ANALYSIS *
                     *******************************

----------------------
LOEWDIN ATOMIC CHARGES
----------------------
   0 C :   -0.356054
   1 H :    0.088823
   2 H :    0.089081
   3 H :    0.089091
   4 H :    0.089060

-------------------------------
LOEWDIN REDUCED ORBITAL CHARGES
-------------------------------
  0 C s       :     3.413636  s :     3.413636
      pz      :     0.975549  p :     2.925993
      px      :     0.974972
      py      :     0.975472
      dz2     :     0.004106  d :     0.016424
      dxz     :     0.001826
      dyz     :     0.003640
      dx2y2   :     0.005024
      dxy     :     0.001828
  1 H s       :     0.911177  s :     0.911177
  2 H s       :     0.910919  s :     0.910919
  3 H s       :     0.910909  s :     0.910909
  4 H s       :     0.910940  s :     0.910940


                      *****************************
                      * MAYER POPULATION ANALYSIS *
                      *****************************

  NA   - Mulliken gross atomic population
  ZA   - Total nuclear charge
  QA   - Mulliken gross atomic charge
  VA   - Mayer's total valence
  BVA  - Mayer's bonded valence
  FA   - Mayer's free valence

  ATOM       NA         ZA         QA         VA         BVA        FA
  0 C      6.3248     6.0000    -0.3248     3.6377     3.6377    -0.0000
  1 H      0.9191     1.0000     0.0809     0.9819     0.9819    -0.0000
  2 H      0.9187     1.0000     0.0813     0.9819     0.9819    -0.0000
  3 H      0.9187     1.0000     0.0813     0.9819     0.9819    -0.0000
  4 H      0.9187     1.0000     0.0813     0.9818     0.9818     0.0000

  Mayer bond orders larger than 0.1
B(  0-C ,  1-H ) :   0.9093 B(  0-C ,  2-H ) :   0.9095 B(  0-C ,  3-H ) :   0.9095 
B(  0-C ,  4-H ) :   0.9093 

-------
TIMINGS
-------

Total SCF time: 0 days 0 hours 0 min 2 sec 

Total time                  ....       2.424 sec
Sum of individual times     ....       2.308 sec  ( 95.2%)

Fock matrix formation       ....       2.010 sec  ( 82.9%)
  XC integration            ....       0.561 sec  ( 27.9% of F)
    Basis function eval.    ....       0.166 sec  ( 29.5% of XC)
    Density eval.           ....       0.022 sec  (  4.0% of XC)
    XC-Functional eval.     ....       0.158 sec  ( 28.1% of XC)
    XC-Potential eval.      ....       0.014 sec  (  2.5% of XC)
Diagonalization             ....       0.005 sec  (  0.2%)
Density matrix formation    ....       0.000 sec  (  0.0%)
Population analysis         ....       0.013 sec  (  0.5%)
Initial guess               ....       0.118 sec  (  4.9%)
Orbital Transformation      ....       0.000 sec  (  0.0%)
Orbital Orthonormalization  ....       0.000 sec  (  0.0%)
DIIS solution               ....       0.000 sec  (  0.0%)
Grid generation             ....       0.162 sec  (  6.7%)


-------------------------------------------------------------------------------
                          DFT DISPERSION CORRECTION                            
                                                                               
                              DFTD3 V3.1  Rev 1                                
                              USING zero damping                               
-------------------------------------------------------------------------------
The omegaB97X-D3 functional is recognized. Fit by Chai et al.
Active option DFTDOPT                   ...         3   

molecular C6(AA) [au] = 307.397031 


            DFT-D V3
 parameters
 s6 scaling factor         :     1.0000 
 rs6 scaling factor        :     1.2810 
 s8 scaling factor         :     1.0000 
 rs8 scaling factor        :     1.0940 
 Damping factor alpha6     :    14.0000 
 Damping factor alpha8     :    16.0000 
 ad hoc parameters k1-k3   :    16.0000     1.3333    -4.0000 

 Edisp/kcal,au: -0.529594641754  -0.000843962692 
 E6   /kcal   :  -0.135131796 
 E8   /kcal   :  -0.394462845 
 % E8         :  74.483919275 

-------------------------   ----------------
Dispersion correction           -0.000843963
-------------------------   ----------------


-------------------------   --------------------
FINAL SINGLE POINT ENERGY       -40.174331049148
-------------------------   --------------------


                            ***************************************
                            *     ORCA property calculations      *
                            ***************************************

                                    ---------------------
                                    Active property flags
                                    ---------------------
   (+) Dipole Moment


------------------------------------------------------------------------------
                       ORCA ELECTRIC PROPERTIES CALCULATION
------------------------------------------------------------------------------

Dipole Moment Calculation                       ... on
Quadrupole Moment Calculation                   ... off
Polarizability Calculation                      ... off
GBWName                                         ... Scan_13.gbw
Electron density file                           ... Scan_13.scfp.tmp

-------------
DIPOLE MOMENT
-------------
                                X             Y             Z
Electronic contribution:     -0.00070      -0.00025       0.00040
Nuclear contribution   :     -0.00001      -0.00001      -0.00000
                        -----------------------------------------
Total Dipole Moment    :     -0.00070      -0.00027       0.00040
                        -----------------------------------------
Magnitude (a.u.)       :      0.00085
Magnitude (Debye)      :      0.00217


Timings for individual modules:

Sum of individual times         ...        2.751 sec (=   0.046 min)
GTO integral calculation        ...        0.302 sec (=   0.005 min)  11.0 %
SCF iterations                  ...        2.449 sec (=   0.041 min)  89.0 %
                             ****ORCA TERMINATED NORMALLY****
TOTAL RUN TIME: 0 days 0 hours 0 minutes 3 seconds 90 msec
