
                                 *****************
                                 * O   R   C   A *
                                 *****************

           --- An Ab Initio, DFT and Semiempirical electronic structure package ---

                  #######################################################
                  #                        -***-                        #
                  #  Department of molecular theory and spectroscopy    #
                  #              Directorship: Frank Neese              #
                  # Max Planck Institute for Chemical Energy Conversion #
                  #                  D-45470 Muelheim/Ruhr              #
                  #                       Germany                       #
                  #                                                     #
                  #                  All rights reserved                #
                  #                        -***-                        #
                  #######################################################


                         Program Version 4.0.0.2 - RELEASE -


 With contributions from (in alphabetic order):
   Daniel Aravena         : Magnetic Properties
   Michael Atanasov       : Ab Initio Ligand Field Theory
   Ute Becker             : Parallelization
   Martin Brehm           : Molecular dynamics
   Dmytro Bykov           : SCF Hessian
   Vijay G. Chilkuri      : MRCI spin determinant printing
   Dipayan Datta          : RHF DLPNO-CCSD density
   Achintya Kumar Dutta   : EOM-CC, STEOM-CC
   Dmitry Ganyushin       : Spin-Orbit,Spin-Spin,Magnetic field MRCI
   Yang Guo               : DLPNO-NEVPT2, CIM, IAO-localization
   Andreas Hansen         : Spin unrestricted coupled pair/coupled cluster methods
   Lee Huntington         : MR-EOM, pCC
   Robert Izsak           : Overlap fitted RIJCOSX, COSX-SCS-MP3, EOM
   Christian Kollmar      : KDIIS, OOCD, Brueckner-CCSD(T), CCSD density
   Simone Kossmann        : Meta GGA functionals, TD-DFT gradient, OOMP2, MP2 Hessian
   Martin Krupicka        : AUTO-CI
   Dagmar Lenk            : GEPOL surface
   Dimitrios Liakos       : Extrapolation schemes; parallel MDCI
   Dimitrios Manganas     : ROCIS; embedding schemes
   Dimitrios Pantazis     : SARC Basis sets
   Taras Petrenko         : DFT Hessian,TD-DFT gradient, ASA, ECA, R-Raman, ABS, FL, XAS/XES, NRVS
   Peter Pinski           : DLPNO-MP2
   Christoph Reimann      : Effective Core Potentials
   Marius Retegan         : Local ZFS, SOC
   Christoph Riplinger    : Optimizer, TS searches, QM/MM, DLPNO-CCSD(T), (RO)-DLPNO pert. Triples
   Tobias Risthaus        : Range-separated hybrids, TD-DFT gradient, RPA, STAB
   Michael Roemelt        : Restricted open shell CIS
   Masaaki Saitow         : Open-shell DLPNO
   Barbara Sandhoefer     : DKH picture change effects
   Kantharuban Sivalingam : CASSCF convergence, NEVPT2, FIC-MRCI
   Georgi Stoychev        : AutoAux
   Boris Wezisla          : Elementary symmetry handling
   Frank Wennmohs         : Technical directorship


 We gratefully acknowledge several colleagues who have allowed us to
 interface, adapt or use parts of their codes:
   Stefan Grimme, W. Hujo, H. Kruse,             : VdW corrections, initial TS optimization,
                  C. Bannwarth                     DFT functionals, gCP, sTDA/sTD-DF
   Ed Valeev                                     : LibInt (2-el integral package), F12 methods
   Garnet Chan, S. Sharma, J. Yang, R. Olivares  : DMRG
   Ulf Ekstrom                                   : XCFun DFT Library
   Mihaly Kallay                                 : mrcc  (arbitrary order and MRCC methods)
   Jiri Pittner, Ondrej Demel                    : Mk-CCSD
   Frank Weinhold                                : gennbo (NPA and NBO analysis)
   Christopher J. Cramer and Donald G. Truhlar   : smd solvation model


 Your calculation uses the libint2 library for the computation of 2-el integrals
 For citations please refer to: http://libint.valeyev.net

 This ORCA versions uses:
   CBLAS   interface :  Fast vector & matrix operations
   LAPACKE interface :  Fast linear algebra routines
   SCALAPACK package :  Parallel linear algebra routines


Your calculation utilizes the atom-pairwise dispersion correction
with the zero-damping scheme (D30)
Cite in your paper:
S.Grimme, J.Antony, S.Ehrlich and H.Krieg, J.Chem.Phys., 132, (2010), 154104 
   

XCFun DFT library Copyright 2009-2010 Ulf Ekstrom and contributors.
See http://admol.org/xcfun for more information. This is free soft-
ware; see the source code for copying conditions. There is ABSOLUTELY
NO WARRANTY; not even for MERCHANTABILITY or FITNESS FOR A PARTICULAR
PURPOSE. For details see the documentation. Scientific users of this 
library should cite U. Ekstrom, L. Visscher, R. Bast, A. J. Thorvald-
sen and K. Ruud; J.Chem.Theor.Comp. 2010, DOI: 10.1021/ct100117s
XCFun Version 0.99 
Your calculation utilizes the basis: 6-31G(d)
   H-He, Li-Ne : W. J. Hehre, R. Ditchfield and J.A. Pople, J. Chem. Phys. 56, 2257 (1972).
                 Note: He and Ne are unpublished basis sets taken from the Gaussian program.
                 Note: Li and B from J. D. Dill and J. A. Pople, J. Chem. Phys. 62, 2921 (1975).
   Na - Ar     : M. M. Francl, W. J. Pietro, W. J. Hehre, J. S. Binkley, M. S. Gordon, 
                 D. J. DeFrees and J. A. Pople, J. Chem. Phys. 77, 3654 (1982).
   K - Zn      : V. A. Rassolov, J. A. Pople, M. A. Ratner, and T. L. Windus, J. Chem. Phys. 109, 1223 (1998).

================================================================================
                                        WARNINGS
                       Please study these warnings very carefully!
================================================================================

Warning: TCutStore was < 0. Adjusted to Thresh (uncritical)

INFO   : the flag for use of LIBINT has been found!

================================================================================
                                       INPUT FILE
================================================================================
NAME = initial16.inp
|  1> ! WB97X-D3 6-31G(d) VerySlowConv
|  2> ! KDIIS NOSOSCF
|  3> %base "Scan_16"
|  4> 
|  5> %scf
|  6> maxiter 999
|  7> end
|  8> 
|  9> * xyz 0 1
| 10> C         -4.472708050657    1.925919946069    0.000001994725
| 11> H         -2.492338001844    1.925917597349   -0.000006318185
| 12> H         -5.132823541215    2.444687658824    1.793599046962
| 13> H         -5.132834183026    0.113240045748   -0.447525874685
| 14> H         -5.132836223258    3.219834752010   -1.346058848817
| 15> **                         ****END OF INPUT****
================================================================================

                       ****************************
                       * Single Point Calculation *
                       ****************************

---------------------------------
CARTESIAN COORDINATES (ANGSTROEM)
---------------------------------
  C     -4.472708    1.925920    0.000002
  H     -2.492338    1.925918   -0.000006
  H     -5.132824    2.444688    1.793599
  H     -5.132834    0.113240   -0.447526
  H     -5.132836    3.219835   -1.346059

----------------------------
CARTESIAN COORDINATES (A.U.)
----------------------------
  NO LB      ZA    FRAG     MASS         X           Y           Z
   0 C     6.0000    0    12.011   -8.452193    3.639461    0.000004
   1 H     1.0000    0     1.008   -4.709836    3.639457   -0.000012
   2 H     1.0000    0     1.008   -9.699631    4.619790    3.389411
   3 H     1.0000    0     1.008   -9.699651    0.213993   -0.845701
   4 H     1.0000    0     1.008   -9.699655    6.084606   -2.543683

--------------------------------
INTERNAL COORDINATES (ANGSTROEM)
--------------------------------
 C      0   0   0     0.000000000000     0.00000000     0.00000000
 H      1   0   0     1.980370048832     0.00000000     0.00000000
 H      1   2   0     1.980369356071   109.47123647     0.00000000
 H      1   2   3     1.980367674338   109.47120670   240.00002726
 H      1   2   3     1.980369794713   109.47124494   120.00004013

---------------------------
INTERNAL COORDINATES (A.U.)
---------------------------
 C      0   0   0     0.000000000000     0.00000000     0.00000000
 H      1   0   0     3.742357036112     0.00000000     0.00000000
 H      1   2   0     3.742355726984   109.47123647     0.00000000
 H      1   2   3     3.742352548969   109.47120670   240.00002726
 H      1   2   3     3.742356555898   109.47124494   120.00004013

---------------------
BASIS SET INFORMATION
---------------------
There are 2 groups of distinct atoms

 Group   1 Type C   : 10s4p1d contracted to 3s2p1d pattern {631/31/1}
 Group   2 Type H   : 4s contracted to 2s pattern {31}

Atom   0C    basis set group =>   1
Atom   1H    basis set group =>   2
Atom   2H    basis set group =>   2
Atom   3H    basis set group =>   2
Atom   4H    basis set group =>   2
------------------------------------------------------------------------------
                           ORCA GTO INTEGRAL CALCULATION
------------------------------------------------------------------------------

                         BASIS SET STATISTICS AND STARTUP INFO

 # of primitive gaussian shells          ...   31
 # of primitive gaussian functions       ...   43
 # of contracted shells                  ...   14
 # of contracted basis functions         ...   22
 Highest angular momentum                ...    2
 Maximum contraction depth               ...    6
 Integral package used                   ... LIBINT
 Integral threshhold            Thresh   ...  1.000e-10
 Primitive cut-off              TCut     ...  1.000e-11


------------------------------ INTEGRAL EVALUATION ----------------------------


 * One electron integrals 
 Pre-screening matrix                    ... done
 Shell pair data                         ... done (   0.000 sec)

-------------------------------------------------------------------------------
                                 ORCA SCF
-------------------------------------------------------------------------------

------------
SCF SETTINGS
------------
Hamiltonian:
 Density Functional     Method          .... DFT(GTOs)
 Exchange Functional    Exchange        .... WB97X-D3
 Correlation Functional Correlation     .... WB97X-D3
 Gradients option       PostSCFGGA      .... off
 Hybrid DFT is turned on
   Fraction HF Exchange ScalHFX         ....  0.195728
   Scaling of DF-GGA-X  ScalDFX         ....  0.000000
   Scaling of DF-GGA-C  ScalDFC         ....  1.000000
   Scaling of DF-LDA-C  ScalLDAC        ....  1.000000
   Perturbative correction              ....  0.000000
 Long-range corrected/Screened/Range-Separated Hybrid DFT is turned on
   Amount of maximum screened exact exchange              ....  0.804272
   Range separation parameter mu (erf(mu*r12)/r12)        ....  0.250000


General Settings:
 Integral files         IntName         .... Scan_16
 Hartree-Fock type      HFTyp           .... RHF
 Total Charge           Charge          ....    0
 Multiplicity           Mult            ....    1
 Number of Electrons    NEL             ....   10
 Basis Dimension        Dim             ....   22
 Nuclear Repulsion      ENuc            ....      7.3948706525 Eh

Convergence Acceleration:
 DIIS                   CNVDIIS         .... on
   Start iteration      DIISMaxIt       ....     0
   Startup error        DIISStart       ....  0.200000
   # of expansion vecs  DIISMaxEq       ....     5
   Bias factor          DIISBfac        ....   1.050
   Max. coefficient     DIISMaxC        ....  10.000
 Newton-Raphson         CNVNR           .... off
 SOSCF                  CNVSOSCF        .... off
 Level Shifting         CNVShift        .... off
 Zerner damping         CNVZerner       .... off
 Static damping         CNVDamp         .... off
 Fernandez-Rico         CNVRico         .... off

SCF Procedure:
 Maximum # iterations   MaxIter         ....   999
 SCF integral mode      SCFMode         .... Direct
   Integral package                     .... LIBINT
 Reset frequeny         DirectResetFreq ....    20
 Integral Threshold     Thresh          ....  1.000e-10 Eh
 Primitive CutOff       TCut            ....  1.000e-11 Eh

Convergence Tolerance:
 Convergence Check Mode ConvCheckMode   .... All-Criteria
 Convergence forced     ConvForced      .... 0
 Energy Change          TolE            ....  1.000e-06 Eh
 Max Density Change     TolMaxP         ....  1.000e-05
 RMS Density Change     TolRMSP         ....  1.000e-06
 DIIS Error             TolErr          ....  1.000e-06


Diagonalization of the overlap matrix:
Smallest eigenvalue                        ... 1.041e-01
Time for diagonalization                   ...    0.000 sec
Threshold for overlap eigenvalues          ... 1.000e-08
Number of eigenvalues below threshold      ... 0
Time for construction of square roots      ...    0.005 sec
Total time needed                          ...    0.005 sec

-------------------
DFT GRID GENERATION
-------------------

General Integration Accuracy     IntAcc      ...  4.340
Radial Grid Type                 RadialGrid  ... Gauss-Chebyshev
Angular Grid (max. acc.)         AngularGrid ... Lebedev-110
Angular grid pruning method      GridPruning ... 3 (G Style)
Weight generation scheme         WeightScheme... Becke
Basis function cutoff            BFCut       ...    1.0000e-10
Integration weight cutoff        WCut        ...    1.0000e-14
Grids for H and He will be reduced by one unit

# of grid points (after initial pruning)     ...   4832 (   0.0 sec)
# of grid points (after weights+screening)   ...   4759 (   0.0 sec)
nearest neighbour list constructed           ...    0.0 sec
Grid point re-assignment to atoms done       ...    0.0 sec
Grid point division into batches done        ...    0.0 sec
Reduced shell lists constructed in    0.0 sec

Total number of grid points                  ...     4759
Total number of batches                      ...       77
Average number of points per batch           ...       61
Average number of grid points per atom       ...      952
Average number of shells per batch           ...    12.51 (89.38%)
Average number of basis functions per batch  ...    19.90 (90.44%)
Average number of large shells per batch     ...    10.56 (84.43%)
Average number of large basis fcns per batch ...    17.46 (87.76%)
Maximum spatial batch extension              ...  21.59, 25.60, 21.59 au
Average spatial batch extension              ...   5.67,  5.40,  5.16 au

Time for grid setup =    0.028 sec

------------------------------
INITIAL GUESS: MODEL POTENTIAL
------------------------------
Loading Hartree-Fock densities                     ... done
Calculating cut-offs                               ... done
Setting up the integral package                    ... done
Initializing the effective Hamiltonian             ... done
Starting the Coulomb interaction                   ... done (   0.0 sec)
Reading the grid                                   ... done
Mapping shells                                     ... done
Starting the XC term evaluation                    ... done (   0.0 sec)
  promolecular density results
     # of electrons  =      9.997776595
     EX              =     -5.987031161
     EC              =     -0.239313094
     EX+EC           =     -6.226344256
Transforming the Hamiltonian                       ... done (   0.0 sec)
Diagonalizing the Hamiltonian                      ... done (   0.0 sec)
Back transforming the eigenvectors                 ... done (   0.0 sec)
Now organizing SCF variables                       ... done
                      ------------------
                      INITIAL GUESS DONE (   0.1 sec)
                      ------------------
--------------
SCF ITERATIONS
--------------
ITER       Energy         Delta-E        Max-DP      RMS-DP      [F,P]   Gradient Norm
               ***  Starting incremental Fock matrix formation  ***
                             ****Resetting KDIIS****
                             ****Turning on KDIIS(Cayley)****
  0    -39.9419504475   0.000000000000 0.00650994  0.00057422  0.0221200   0.023309418
  1    -39.9427928411  -0.000842393612 0.01075285  0.00071810  0.0195865   0.019803217
  2    -39.9435081611  -0.000715319996 0.02141613  0.00142109  0.0157250   0.016156202
  3    -39.9445230561  -0.001014895000 0.03180198  0.00215839  0.0094115   0.009724456
  4    -39.9451296257  -0.000606569612 0.00020005  0.00003170  0.0001079   0.000085979
                          ***Energy convergence achieved***
  5    -39.9451297525  -0.000000126824 0.00002712  0.00000264  0.0000123   0.000009060
                           ***RMSP convergence achieved***
                           ***MAXP convergence achieved***
                    *** KDIIS BlockDiag ( 0.000 sec) ***

               *****************************************************
               *                     SUCCESS                       *
               *           SCF CONVERGED AFTER   6 CYCLES          *
               *****************************************************

Setting up the final grid:

General Integration Accuracy     IntAcc      ...  4.670
Radial Grid Type                 RadialGrid  ... Gauss-Chebyshev
Angular Grid (max. acc.)         AngularGrid ... Lebedev-302
Angular grid pruning method      GridPruning ... 3 (G Style)
Weight generation scheme         WeightScheme... Becke
Basis function cutoff            BFCut       ...    1.0000e-10
Integration weight cutoff        WCut        ...    1.0000e-14
Grids for H and He will be reduced by one unit

# of grid points (after initial pruning)     ...  19788 (   0.0 sec)
# of grid points (after weights+screening)   ...  19524 (   0.0 sec)
nearest neighbour list constructed           ...    0.0 sec
Grid point re-assignment to atoms done       ...    0.0 sec
Grid point division into batches done        ...    0.0 sec
Reduced shell lists constructed in    0.1 sec

Total number of grid points                  ...    19524
Total number of batches                      ...      307
Average number of points per batch           ...       63
Average number of grid points per atom       ...     3905
Average number of shells per batch           ...    11.10 (79.31%)
Average number of basis functions per batch  ...    17.92 (81.43%)
Average number of large shells per batch     ...     9.47 (85.29%)
Average number of large basis fcns per batch ...    15.82 (88.31%)
Maximum spatial batch extension              ...  20.64, 20.64, 18.78 au
Average spatial batch extension              ...   3.63,  3.39,  3.35 au

Final grid set up in    0.1 sec
Final integration                            ... done (   0.1 sec)
Change in XC energy                          ...    -0.000493094
Integrated number of electrons               ...    10.000002051
Previous integrated no of electrons          ...     9.999324135

----------------
TOTAL SCF ENERGY
----------------

Total Energy       :          -39.94562285 Eh           -1086.97566 eV

Components:
Nuclear Repulsion  :            7.39487065 Eh             201.22466 eV
Electronic Energy  :          -47.34049350 Eh           -1288.20032 eV
One Electron Energy:          -67.43214011 Eh           -1834.92182 eV
Two Electron Energy:           20.09164661 Eh             546.72150 eV

Virial components:
Potential Energy   :          -78.54256944 Eh           -2137.25197 eV
Kinetic Energy     :           38.59694659 Eh            1050.27631 eV
Virial Ratio       :            2.03494256


DFT components:
N(Alpha)           :        5.000001025313 electrons
N(Beta)            :        5.000001025313 electrons
N(Total)           :       10.000002050625 electrons
E(XC)              :       -4.022387868491 Eh       

---------------
SCF CONVERGENCE
---------------

  Last Energy change         ...   -1.0928e-09  Tolerance :   1.0000e-06
  Last MAX-Density change    ...    4.5321e-06  Tolerance :   1.0000e-05
  Last RMS-Density change    ...    5.1196e-07  Tolerance :   1.0000e-06
  Last DIIS Error            ...    1.7668e-06  Tolerance :   1.0000e-06

             **** THE GBW FILE WAS UPDATED (Scan_16.gbw) ****
             **** DENSITY FILE WAS UPDATED (Scan_16.scfp.tmp) ****
             **** ENERGY FILE WAS UPDATED (Scan_16.en.tmp) ****
----------------
ORBITAL ENERGIES
----------------

  NO   OCC          E(Eh)            E(eV) 
   0   2.0000     -10.486875      -285.3624 
   1   2.0000      -0.674614       -18.3572 
   2   2.0000      -0.377631       -10.2758 
   3   2.0000      -0.377611       -10.2753 
   4   2.0000      -0.377588       -10.2747 
   5   0.0000      -0.083284        -2.2663 
   6   0.0000       0.024691         0.6719 
   7   0.0000       0.024717         0.6726 
   8   0.0000       0.024757         0.6737 
   9   0.0000       0.692261        18.8374 
  10   0.0000       0.692534        18.8448 
  11   0.0000       0.693043        18.8586 
  12   0.0000       0.829816        22.5804 
  13   0.0000       0.892672        24.2909 
  14   0.0000       0.926367        25.2077 
  15   0.0000       0.926517        25.2118 
  16   0.0000       0.926579        25.2135 
  17   0.0000       1.768441        48.1217 
  18   0.0000       1.768868        48.1333 
  19   0.0000       1.793407        48.8011 
  20   0.0000       1.793746        48.8103 
  21   0.0000       1.794635        48.8345 

                    ********************************
                    * MULLIKEN POPULATION ANALYSIS *
                    ********************************

-----------------------
MULLIKEN ATOMIC CHARGES
-----------------------
   0 C :   -0.141310
   1 H :    0.035561
   2 H :    0.035388
   3 H :    0.035316
   4 H :    0.035045
Sum of atomic charges:    0.0000000

--------------------------------
MULLIKEN REDUCED ORBITAL CHARGES
--------------------------------
  0 C s       :     3.748062  s :     3.748062
      pz      :     0.795979  p :     2.388109
      px      :     0.796201
      py      :     0.795929
      dz2     :     0.001294  d :     0.005140
      dxz     :     0.000576
      dyz     :     0.001136
      dx2y2   :     0.001559
      dxy     :     0.000576
  1 H s       :     0.964439  s :     0.964439
  2 H s       :     0.964612  s :     0.964612
  3 H s       :     0.964684  s :     0.964684
  4 H s       :     0.964955  s :     0.964955


                     *******************************
                     * LOEWDIN POPULATION ANALYSIS *
                     *******************************

----------------------
LOEWDIN ATOMIC CHARGES
----------------------
   0 C :   -0.226697
   1 H :    0.056818
   2 H :    0.056741
   3 H :    0.056688
   4 H :    0.056451

-------------------------------
LOEWDIN REDUCED ORBITAL CHARGES
-------------------------------
  0 C s       :     3.665539  s :     3.665539
      pz      :     0.851073  p :     2.553547
      px      :     0.851426
      py      :     0.851048
      dz2     :     0.001911  d :     0.007611
      dxz     :     0.000850
      dyz     :     0.001685
      dx2y2   :     0.002315
      dxy     :     0.000850
  1 H s       :     0.943182  s :     0.943182
  2 H s       :     0.943259  s :     0.943259
  3 H s       :     0.943312  s :     0.943312
  4 H s       :     0.943549  s :     0.943549


                      *****************************
                      * MAYER POPULATION ANALYSIS *
                      *****************************

  NA   - Mulliken gross atomic population
  ZA   - Total nuclear charge
  QA   - Mulliken gross atomic charge
  VA   - Mayer's total valence
  BVA  - Mayer's bonded valence
  FA   - Mayer's free valence

  ATOM       NA         ZA         QA         VA         BVA        FA
  0 C      6.1413     6.0000    -0.1413     3.3177     3.3177     0.0000
  1 H      0.9644     1.0000     0.0356     0.9942     0.9942    -0.0000
  2 H      0.9646     1.0000     0.0354     0.9942     0.9942     0.0000
  3 H      0.9647     1.0000     0.0353     0.9942     0.9942    -0.0000
  4 H      0.9650     1.0000     0.0350     0.9942     0.9942     0.0000

  Mayer bond orders larger than 0.1
B(  0-C ,  1-H ) :   0.8294 B(  0-C ,  2-H ) :   0.8293 B(  0-C ,  3-H ) :   0.8294 
B(  0-C ,  4-H ) :   0.8296 

-------
TIMINGS
-------

Total SCF time: 0 days 0 hours 0 min 2 sec 

Total time                  ....       2.356 sec
Sum of individual times     ....       2.246 sec  ( 95.3%)

Fock matrix formation       ....       1.947 sec  ( 82.6%)
  XC integration            ....       0.525 sec  ( 27.0% of F)
    Basis function eval.    ....       0.157 sec  ( 29.9% of XC)
    Density eval.           ....       0.021 sec  (  4.0% of XC)
    XC-Functional eval.     ....       0.158 sec  ( 30.1% of XC)
    XC-Potential eval.      ....       0.013 sec  (  2.5% of XC)
Diagonalization             ....       0.004 sec  (  0.2%)
Density matrix formation    ....       0.000 sec  (  0.0%)
Population analysis         ....       0.015 sec  (  0.6%)
Initial guess               ....       0.116 sec  (  4.9%)
Orbital Transformation      ....       0.000 sec  (  0.0%)
Orbital Orthonormalization  ....       0.000 sec  (  0.0%)
DIIS solution               ....       0.000 sec  (  0.0%)
Grid generation             ....       0.164 sec  (  7.0%)


-------------------------------------------------------------------------------
                          DFT DISPERSION CORRECTION                            
                                                                               
                              DFTD3 V3.1  Rev 1                                
                              USING zero damping                               
-------------------------------------------------------------------------------
The omegaB97X-D3 functional is recognized. Fit by Chai et al.
Active option DFTDOPT                   ...         3   

molecular C6(AA) [au] = 318.713005 


            DFT-D V3
 parameters
 s6 scaling factor         :     1.0000 
 rs6 scaling factor        :     1.2810 
 s8 scaling factor         :     1.0000 
 rs8 scaling factor        :     1.0940 
 Damping factor alpha6     :    14.0000 
 Damping factor alpha8     :    16.0000 
 ad hoc parameters k1-k3   :    16.0000     1.3333    -4.0000 

 Edisp/kcal,au: -0.499566483107  -0.000796109781 
 E6   /kcal   :  -0.304116209 
 E8   /kcal   :  -0.195450275 
 % E8         :  39.123976717 

-------------------------   ----------------
Dispersion correction           -0.000796110
-------------------------   ----------------


-------------------------   --------------------
FINAL SINGLE POINT ENERGY       -39.946418957377
-------------------------   --------------------


                            ***************************************
                            *     ORCA property calculations      *
                            ***************************************

                                    ---------------------
                                    Active property flags
                                    ---------------------
   (+) Dipole Moment


------------------------------------------------------------------------------
                       ORCA ELECTRIC PROPERTIES CALCULATION
------------------------------------------------------------------------------

Dipole Moment Calculation                       ... on
Quadrupole Moment Calculation                   ... off
Polarizability Calculation                      ... off
GBWName                                         ... Scan_16.gbw
Electron density file                           ... Scan_16.scfp.tmp

-------------
DIPOLE MOMENT
-------------
                                X             Y             Z
Electronic contribution:      0.00042      -0.00035       0.00062
Nuclear contribution   :      0.00000       0.00000       0.00000
                        -----------------------------------------
Total Dipole Moment    :      0.00042      -0.00035       0.00062
                        -----------------------------------------
Magnitude (a.u.)       :      0.00083
Magnitude (Debye)      :      0.00210


Timings for individual modules:

Sum of individual times         ...        2.679 sec (=   0.045 min)
GTO integral calculation        ...        0.294 sec (=   0.005 min)  11.0 %
SCF iterations                  ...        2.385 sec (=   0.040 min)  89.0 %
                             ****ORCA TERMINATED NORMALLY****
TOTAL RUN TIME: 0 days 0 hours 0 minutes 3 seconds 14 msec
