
                                 *****************
                                 * O   R   C   A *
                                 *****************

           --- An Ab Initio, DFT and Semiempirical electronic structure package ---

                  #######################################################
                  #                        -***-                        #
                  #  Department of molecular theory and spectroscopy    #
                  #              Directorship: Frank Neese              #
                  # Max Planck Institute for Chemical Energy Conversion #
                  #                  D-45470 Muelheim/Ruhr              #
                  #                       Germany                       #
                  #                                                     #
                  #                  All rights reserved                #
                  #                        -***-                        #
                  #######################################################


                         Program Version 4.0.0.2 - RELEASE -


 With contributions from (in alphabetic order):
   Daniel Aravena         : Magnetic Properties
   Michael Atanasov       : Ab Initio Ligand Field Theory
   Ute Becker             : Parallelization
   Martin Brehm           : Molecular dynamics
   Dmytro Bykov           : SCF Hessian
   Vijay G. Chilkuri      : MRCI spin determinant printing
   Dipayan Datta          : RHF DLPNO-CCSD density
   Achintya Kumar Dutta   : EOM-CC, STEOM-CC
   Dmitry Ganyushin       : Spin-Orbit,Spin-Spin,Magnetic field MRCI
   Yang Guo               : DLPNO-NEVPT2, CIM, IAO-localization
   Andreas Hansen         : Spin unrestricted coupled pair/coupled cluster methods
   Lee Huntington         : MR-EOM, pCC
   Robert Izsak           : Overlap fitted RIJCOSX, COSX-SCS-MP3, EOM
   Christian Kollmar      : KDIIS, OOCD, Brueckner-CCSD(T), CCSD density
   Simone Kossmann        : Meta GGA functionals, TD-DFT gradient, OOMP2, MP2 Hessian
   Martin Krupicka        : AUTO-CI
   Dagmar Lenk            : GEPOL surface
   Dimitrios Liakos       : Extrapolation schemes; parallel MDCI
   Dimitrios Manganas     : ROCIS; embedding schemes
   Dimitrios Pantazis     : SARC Basis sets
   Taras Petrenko         : DFT Hessian,TD-DFT gradient, ASA, ECA, R-Raman, ABS, FL, XAS/XES, NRVS
   Peter Pinski           : DLPNO-MP2
   Christoph Reimann      : Effective Core Potentials
   Marius Retegan         : Local ZFS, SOC
   Christoph Riplinger    : Optimizer, TS searches, QM/MM, DLPNO-CCSD(T), (RO)-DLPNO pert. Triples
   Tobias Risthaus        : Range-separated hybrids, TD-DFT gradient, RPA, STAB
   Michael Roemelt        : Restricted open shell CIS
   Masaaki Saitow         : Open-shell DLPNO
   Barbara Sandhoefer     : DKH picture change effects
   Kantharuban Sivalingam : CASSCF convergence, NEVPT2, FIC-MRCI
   Georgi Stoychev        : AutoAux
   Boris Wezisla          : Elementary symmetry handling
   Frank Wennmohs         : Technical directorship


 We gratefully acknowledge several colleagues who have allowed us to
 interface, adapt or use parts of their codes:
   Stefan Grimme, W. Hujo, H. Kruse,             : VdW corrections, initial TS optimization,
                  C. Bannwarth                     DFT functionals, gCP, sTDA/sTD-DF
   Ed Valeev                                     : LibInt (2-el integral package), F12 methods
   Garnet Chan, S. Sharma, J. Yang, R. Olivares  : DMRG
   Ulf Ekstrom                                   : XCFun DFT Library
   Mihaly Kallay                                 : mrcc  (arbitrary order and MRCC methods)
   Jiri Pittner, Ondrej Demel                    : Mk-CCSD
   Frank Weinhold                                : gennbo (NPA and NBO analysis)
   Christopher J. Cramer and Donald G. Truhlar   : smd solvation model


 Your calculation uses the libint2 library for the computation of 2-el integrals
 For citations please refer to: http://libint.valeyev.net

 This ORCA versions uses:
   CBLAS   interface :  Fast vector & matrix operations
   LAPACKE interface :  Fast linear algebra routines
   SCALAPACK package :  Parallel linear algebra routines


Your calculation utilizes the atom-pairwise dispersion correction
with the zero-damping scheme (D30)
Cite in your paper:
S.Grimme, J.Antony, S.Ehrlich and H.Krieg, J.Chem.Phys., 132, (2010), 154104 
   

XCFun DFT library Copyright 2009-2010 Ulf Ekstrom and contributors.
See http://admol.org/xcfun for more information. This is free soft-
ware; see the source code for copying conditions. There is ABSOLUTELY
NO WARRANTY; not even for MERCHANTABILITY or FITNESS FOR A PARTICULAR
PURPOSE. For details see the documentation. Scientific users of this 
library should cite U. Ekstrom, L. Visscher, R. Bast, A. J. Thorvald-
sen and K. Ruud; J.Chem.Theor.Comp. 2010, DOI: 10.1021/ct100117s
XCFun Version 0.99 
Your calculation utilizes the basis: 6-31G(d)
   H-He, Li-Ne : W. J. Hehre, R. Ditchfield and J.A. Pople, J. Chem. Phys. 56, 2257 (1972).
                 Note: He and Ne are unpublished basis sets taken from the Gaussian program.
                 Note: Li and B from J. D. Dill and J. A. Pople, J. Chem. Phys. 62, 2921 (1975).
   Na - Ar     : M. M. Francl, W. J. Pietro, W. J. Hehre, J. S. Binkley, M. S. Gordon, 
                 D. J. DeFrees and J. A. Pople, J. Chem. Phys. 77, 3654 (1982).
   K - Zn      : V. A. Rassolov, J. A. Pople, M. A. Ratner, and T. L. Windus, J. Chem. Phys. 109, 1223 (1998).

================================================================================
                                        WARNINGS
                       Please study these warnings very carefully!
================================================================================

Warning: TCutStore was < 0. Adjusted to Thresh (uncritical)

INFO   : the flag for use of LIBINT has been found!

================================================================================
                                       INPUT FILE
================================================================================
NAME = initial18.inp
|  1> ! WB97X-D3 6-31G(d) VerySlowConv
|  2> ! KDIIS NOSOSCF
|  3> %base "Scan_18"
|  4> 
|  5> %scf
|  6> maxiter 999
|  7> end
|  8> 
|  9> * xyz 0 1
| 10> C         -4.472707927556    1.925920070039    0.000002007457
| 11> H         -2.272377760415    1.925917852116   -0.000007226572
| 12> H         -5.206142636971    2.502307957443    1.992814795752
| 13> H         -5.206155134459   -0.088096552775   -0.497233457081
| 14> H         -5.206156540598    3.363550673177   -1.495566119556
| 15> **                         ****END OF INPUT****
================================================================================

                       ****************************
                       * Single Point Calculation *
                       ****************************

---------------------------------
CARTESIAN COORDINATES (ANGSTROEM)
---------------------------------
  C     -4.472708    1.925920    0.000002
  H     -2.272378    1.925918   -0.000007
  H     -5.206143    2.502308    1.992815
  H     -5.206155   -0.088097   -0.497233
  H     -5.206157    3.363551   -1.495566

----------------------------
CARTESIAN COORDINATES (A.U.)
----------------------------
  NO LB      ZA    FRAG     MASS         X           Y           Z
   0 C     6.0000    0    12.011   -8.452193    3.639461    0.000004
   1 H     1.0000    0     1.008   -4.294172    3.639457   -0.000014
   2 H     1.0000    0     1.008   -9.838184    4.728677    3.765874
   3 H     1.0000    0     1.008   -9.838207   -0.166478   -0.939635
   4 H     1.0000    0     1.008   -9.838210    6.356190   -2.826210

--------------------------------
INTERNAL COORDINATES (ANGSTROEM)
--------------------------------
 C      0   0   0     0.000000000000     0.00000000     0.00000000
 H      1   0   0     2.200330167161     0.00000000     0.00000000
 H      1   2   0     2.200330038633   109.47122912     0.00000000
 H      1   2   3     2.200329718356   109.47121651   240.00001042
 H      1   2   3     2.200330121048   109.47123202   120.00001626

---------------------------
INTERNAL COORDINATES (A.U.)
---------------------------
 C      0   0   0     0.000000000000     0.00000000     0.00000000
 H      1   0   0     4.158021420140     0.00000000     0.00000000
 H      1   2   0     4.158021177258   109.47122912     0.00000000
 H      1   2   3     4.158020572020   109.47121651   240.00001042
 H      1   2   3     4.158021332998   109.47123202   120.00001626

---------------------
BASIS SET INFORMATION
---------------------
There are 2 groups of distinct atoms

 Group   1 Type C   : 10s4p1d contracted to 3s2p1d pattern {631/31/1}
 Group   2 Type H   : 4s contracted to 2s pattern {31}

Atom   0C    basis set group =>   1
Atom   1H    basis set group =>   2
Atom   2H    basis set group =>   2
Atom   3H    basis set group =>   2
Atom   4H    basis set group =>   2
------------------------------------------------------------------------------
                           ORCA GTO INTEGRAL CALCULATION
------------------------------------------------------------------------------

                         BASIS SET STATISTICS AND STARTUP INFO

 # of primitive gaussian shells          ...   31
 # of primitive gaussian functions       ...   43
 # of contracted shells                  ...   14
 # of contracted basis functions         ...   22
 Highest angular momentum                ...    2
 Maximum contraction depth               ...    6
 Integral package used                   ... LIBINT
 Integral threshhold            Thresh   ...  1.000e-10
 Primitive cut-off              TCut     ...  1.000e-11


------------------------------ INTEGRAL EVALUATION ----------------------------


 * One electron integrals 
 Pre-screening matrix                    ... done
 Shell pair data                         ... done (   0.000 sec)

-------------------------------------------------------------------------------
                                 ORCA SCF
-------------------------------------------------------------------------------

------------
SCF SETTINGS
------------
Hamiltonian:
 Density Functional     Method          .... DFT(GTOs)
 Exchange Functional    Exchange        .... WB97X-D3
 Correlation Functional Correlation     .... WB97X-D3
 Gradients option       PostSCFGGA      .... off
 Hybrid DFT is turned on
   Fraction HF Exchange ScalHFX         ....  0.195728
   Scaling of DF-GGA-X  ScalDFX         ....  0.000000
   Scaling of DF-GGA-C  ScalDFC         ....  1.000000
   Scaling of DF-LDA-C  ScalLDAC        ....  1.000000
   Perturbative correction              ....  0.000000
 Long-range corrected/Screened/Range-Separated Hybrid DFT is turned on
   Amount of maximum screened exact exchange              ....  0.804272
   Range separation parameter mu (erf(mu*r12)/r12)        ....  0.250000


General Settings:
 Integral files         IntName         .... Scan_18
 Hartree-Fock type      HFTyp           .... RHF
 Total Charge           Charge          ....    0
 Multiplicity           Mult            ....    1
 Number of Electrons    NEL             ....   10
 Basis Dimension        Dim             ....   22
 Nuclear Repulsion      ENuc            ....      6.6556262650 Eh

Convergence Acceleration:
 DIIS                   CNVDIIS         .... on
   Start iteration      DIISMaxIt       ....     0
   Startup error        DIISStart       ....  0.200000
   # of expansion vecs  DIISMaxEq       ....     5
   Bias factor          DIISBfac        ....   1.050
   Max. coefficient     DIISMaxC        ....  10.000
 Newton-Raphson         CNVNR           .... off
 SOSCF                  CNVSOSCF        .... off
 Level Shifting         CNVShift        .... off
 Zerner damping         CNVZerner       .... off
 Static damping         CNVDamp         .... off
 Fernandez-Rico         CNVRico         .... off

SCF Procedure:
 Maximum # iterations   MaxIter         ....   999
 SCF integral mode      SCFMode         .... Direct
   Integral package                     .... LIBINT
 Reset frequeny         DirectResetFreq ....    20
 Integral Threshold     Thresh          ....  1.000e-10 Eh
 Primitive CutOff       TCut            ....  1.000e-11 Eh

Convergence Tolerance:
 Convergence Check Mode ConvCheckMode   .... All-Criteria
 Convergence forced     ConvForced      .... 0
 Energy Change          TolE            ....  1.000e-06 Eh
 Max Density Change     TolMaxP         ....  1.000e-05
 RMS Density Change     TolRMSP         ....  1.000e-06
 DIIS Error             TolErr          ....  1.000e-06


Diagonalization of the overlap matrix:
Smallest eigenvalue                        ... 1.218e-01
Time for diagonalization                   ...    0.000 sec
Threshold for overlap eigenvalues          ... 1.000e-08
Number of eigenvalues below threshold      ... 0
Time for construction of square roots      ...    0.007 sec
Total time needed                          ...    0.007 sec

-------------------
DFT GRID GENERATION
-------------------

General Integration Accuracy     IntAcc      ...  4.340
Radial Grid Type                 RadialGrid  ... Gauss-Chebyshev
Angular Grid (max. acc.)         AngularGrid ... Lebedev-110
Angular grid pruning method      GridPruning ... 3 (G Style)
Weight generation scheme         WeightScheme... Becke
Basis function cutoff            BFCut       ...    1.0000e-10
Integration weight cutoff        WCut        ...    1.0000e-14
Grids for H and He will be reduced by one unit

# of grid points (after initial pruning)     ...   4832 (   0.0 sec)
# of grid points (after weights+screening)   ...   4767 (   0.0 sec)
nearest neighbour list constructed           ...    0.0 sec
Grid point re-assignment to atoms done       ...    0.0 sec
Grid point division into batches done        ...    0.0 sec
Reduced shell lists constructed in    0.0 sec

Total number of grid points                  ...     4767
Total number of batches                      ...       78
Average number of points per batch           ...       61
Average number of grid points per atom       ...      953
Average number of shells per batch           ...    11.87 (84.81%)
Average number of basis functions per batch  ...    19.11 (86.88%)
Average number of large shells per batch     ...    10.19 (85.82%)
Average number of large basis fcns per batch ...    16.97 (88.81%)
Maximum spatial batch extension              ...  21.59, 25.60, 21.59 au
Average spatial batch extension              ...   5.71,  5.47,  5.16 au

Time for grid setup =    0.027 sec

------------------------------
INITIAL GUESS: MODEL POTENTIAL
------------------------------
Loading Hartree-Fock densities                     ... done
Calculating cut-offs                               ... done
Setting up the integral package                    ... done
Initializing the effective Hamiltonian             ... done
Starting the Coulomb interaction                   ... done (   0.0 sec)
Reading the grid                                   ... done
Mapping shells                                     ... done
Starting the XC term evaluation                    ... done (   0.0 sec)
  promolecular density results
     # of electrons  =      9.997620284
     EX              =     -5.969202672
     EC              =     -0.231546426
     EX+EC           =     -6.200749098
Transforming the Hamiltonian                       ... done (   0.0 sec)
Diagonalizing the Hamiltonian                      ... done (   0.0 sec)
Back transforming the eigenvectors                 ... done (   0.0 sec)
Now organizing SCF variables                       ... done
                      ------------------
                      INITIAL GUESS DONE (   0.1 sec)
                      ------------------
--------------
SCF ITERATIONS
--------------
ITER       Energy         Delta-E        Max-DP      RMS-DP      [F,P]   Gradient Norm
               ***  Starting incremental Fock matrix formation  ***
                             ****Resetting KDIIS****
                             ****Turning on KDIIS(Cayley)****
  0    -39.8153533898   0.000000000000 0.01107498  0.00172986  0.0420317   0.044830681
  1    -39.8220609664  -0.006707576602 0.01255928  0.00103785  0.0303226   0.033663289
  2    -39.8247707000  -0.002709733548 0.02334445  0.00186961  0.0248260   0.027313157
  3    -39.8281807118  -0.003410011838 0.03408876  0.00298852  0.0156949   0.016768756
  4    -39.8303856375  -0.002204925654 0.00232139  0.00024945  0.0005322   0.000447015
  5    -39.8303907050  -0.000005067583 0.00066857  0.00007042  0.0001293   0.000096571
                          ***Energy convergence achieved***
  6    -39.8303908625  -0.000000157486 0.00024292  0.00002574  0.0000786   0.000056443
Warning: badly conditioned DIIS matrix, 1 vectors out of 5 destroyed
                           ***RMSP convergence achieved***
                           ***MAXP convergence achieved***
                    *** KDIIS BlockDiag ( 0.000 sec) ***

               *****************************************************
               *                     SUCCESS                       *
               *           SCF CONVERGED AFTER   7 CYCLES          *
               *****************************************************

Setting up the final grid:

General Integration Accuracy     IntAcc      ...  4.670
Radial Grid Type                 RadialGrid  ... Gauss-Chebyshev
Angular Grid (max. acc.)         AngularGrid ... Lebedev-302
Angular grid pruning method      GridPruning ... 3 (G Style)
Weight generation scheme         WeightScheme... Becke
Basis function cutoff            BFCut       ...    1.0000e-10
Integration weight cutoff        WCut        ...    1.0000e-14
Grids for H and He will be reduced by one unit

# of grid points (after initial pruning)     ...  19788 (   0.0 sec)
# of grid points (after weights+screening)   ...  19559 (   0.0 sec)
nearest neighbour list constructed           ...    0.0 sec
Grid point re-assignment to atoms done       ...    0.0 sec
Grid point division into batches done        ...    0.0 sec
Reduced shell lists constructed in    0.1 sec

Total number of grid points                  ...    19559
Total number of batches                      ...      308
Average number of points per batch           ...       63
Average number of grid points per atom       ...     3912
Average number of shells per batch           ...    10.57 (75.52%)
Average number of basis functions per batch  ...    17.39 (79.04%)
Average number of large shells per batch     ...     9.11 (86.20%)
Average number of large basis fcns per batch ...    15.28 (87.88%)
Maximum spatial batch extension              ...  20.64, 20.64, 18.69 au
Average spatial batch extension              ...   3.69,  3.39,  3.42 au

Final grid set up in    0.1 sec
Final integration                            ... done (   0.2 sec)
Change in XC energy                          ...    -0.000549051
Integrated number of electrons               ...    10.000008803
Previous integrated no of electrons          ...     9.999329358

----------------
TOTAL SCF ENERGY
----------------

Total Energy       :          -39.83094000 Eh           -1083.85498 eV

Components:
Nuclear Repulsion  :            6.65562627 Eh             181.10880 eV
Electronic Energy  :          -46.48656627 Eh           -1264.96378 eV
One Electron Energy:          -65.80659503 Eh           -1790.68849 eV
Two Electron Energy:           19.32002876 Eh             525.72471 eV

Virial components:
Potential Energy   :          -78.47198567 Eh           -2135.33129 eV
Kinetic Energy     :           38.64104567 Eh            1051.47631 eV
Virial Ratio       :            2.03079353


DFT components:
N(Alpha)           :        5.000004401503 electrons
N(Beta)            :        5.000004401503 electrons
N(Total)           :       10.000008803005 electrons
E(XC)              :       -3.983107649481 Eh       

---------------
SCF CONVERGENCE
---------------

  Last Energy change         ...   -8.7249e-08  Tolerance :   1.0000e-06
  Last MAX-Density change    ...    6.3239e-06  Tolerance :   1.0000e-05
  Last RMS-Density change    ...    9.6976e-07  Tolerance :   1.0000e-06
  Last DIIS Error            ...    2.0074e-06  Tolerance :   1.0000e-06

             **** THE GBW FILE WAS UPDATED (Scan_18.gbw) ****
             **** DENSITY FILE WAS UPDATED (Scan_18.scfp.tmp) ****
             **** ENERGY FILE WAS UPDATED (Scan_18.en.tmp) ****
----------------
ORBITAL ENERGIES
----------------

  NO   OCC          E(Eh)            E(eV) 
   0   2.0000     -10.504828      -285.8509 
   1   2.0000      -0.674397       -18.3513 
   2   2.0000      -0.361930        -9.8486 
   3   2.0000      -0.361741        -9.8435 
   4   2.0000      -0.361719        -9.8429 
   5   0.0000      -0.120850        -3.2885 
   6   0.0000      -0.013522        -0.3679 
   7   0.0000      -0.013205        -0.3593 
   8   0.0000      -0.013083        -0.3560 
   9   0.0000       0.680166        18.5083 
  10   0.0000       0.680205        18.5093 
  11   0.0000       0.680789        18.5252 
  12   0.0000       0.761819        20.7301 
  13   0.0000       0.907920        24.7058 
  14   0.0000       0.907973        24.7072 
  15   0.0000       0.907998        24.7079 
  16   0.0000       0.935300        25.4508 
  17   0.0000       1.756271        47.7906 
  18   0.0000       1.756392        47.7939 
  19   0.0000       1.775666        48.3183 
  20   0.0000       1.777165        48.3591 
  21   0.0000       1.778518        48.3959 

                    ********************************
                    * MULLIKEN POPULATION ANALYSIS *
                    ********************************

-----------------------
MULLIKEN ATOMIC CHARGES
-----------------------
   0 C :   -0.061580
   1 H :    0.015555
   2 H :    0.015039
   3 H :    0.015172
   4 H :    0.015814
Sum of atomic charges:   -0.0000000

--------------------------------
MULLIKEN REDUCED ORBITAL CHARGES
--------------------------------
  0 C s       :     3.839931  s :     3.839931
      pz      :     0.739020  p :     2.218497
      px      :     0.740416
      py      :     0.739061
      dz2     :     0.000787  d :     0.003153
      dxz     :     0.000352
      dyz     :     0.000705
      dx2y2   :     0.000957
      dxy     :     0.000352
  1 H s       :     0.984445  s :     0.984445
  2 H s       :     0.984961  s :     0.984961
  3 H s       :     0.984828  s :     0.984828
  4 H s       :     0.984186  s :     0.984186


                     *******************************
                     * LOEWDIN POPULATION ANALYSIS *
                     *******************************

----------------------
LOEWDIN ATOMIC CHARGES
----------------------
   0 C :   -0.147767
   1 H :    0.037126
   2 H :    0.036565
   3 H :    0.036703
   4 H :    0.037373

-------------------------------
LOEWDIN REDUCED ORBITAL CHARGES
-------------------------------
  0 C s       :     3.793247  s :     3.793247
      pz      :     0.782783  p :     2.349829
      px      :     0.784227
      py      :     0.782819
      dz2     :     0.001172  d :     0.004691
      dxz     :     0.000523
      dyz     :     0.001047
      dx2y2   :     0.001427
      dxy     :     0.000523
  1 H s       :     0.962874  s :     0.962874
  2 H s       :     0.963435  s :     0.963435
  3 H s       :     0.963297  s :     0.963297
  4 H s       :     0.962627  s :     0.962627


                      *****************************
                      * MAYER POPULATION ANALYSIS *
                      *****************************

  NA   - Mulliken gross atomic population
  ZA   - Total nuclear charge
  QA   - Mulliken gross atomic charge
  VA   - Mayer's total valence
  BVA  - Mayer's bonded valence
  FA   - Mayer's free valence

  ATOM       NA         ZA         QA         VA         BVA        FA
  0 C      6.0616     6.0000    -0.0616     3.0926     3.0926    -0.0000
  1 H      0.9844     1.0000     0.0156     0.9976     0.9976     0.0000
  2 H      0.9850     1.0000     0.0150     0.9976     0.9976    -0.0000
  3 H      0.9848     1.0000     0.0152     0.9976     0.9976    -0.0000
  4 H      0.9842     1.0000     0.0158     0.9976     0.9976    -0.0000

  Mayer bond orders larger than 0.1
B(  0-C ,  1-H ) :   0.7738 B(  0-C ,  2-H ) :   0.7727 B(  0-C ,  3-H ) :   0.7727 
B(  0-C ,  4-H ) :   0.7734 

-------
TIMINGS
-------

Total SCF time: 0 days 0 hours 0 min 2 sec 

Total time                  ....       2.554 sec
Sum of individual times     ....       2.438 sec  ( 95.4%)

Fock matrix formation       ....       2.148 sec  ( 84.1%)
  XC integration            ....       0.553 sec  ( 25.7% of F)
    Basis function eval.    ....       0.155 sec  ( 28.0% of XC)
    Density eval.           ....       0.022 sec  (  4.0% of XC)
    XC-Functional eval.     ....       0.171 sec  ( 31.0% of XC)
    XC-Potential eval.      ....       0.013 sec  (  2.3% of XC)
Diagonalization             ....       0.005 sec  (  0.2%)
Density matrix formation    ....       0.000 sec  (  0.0%)
Population analysis         ....       0.011 sec  (  0.4%)
Initial guess               ....       0.113 sec  (  4.4%)
Orbital Transformation      ....       0.000 sec  (  0.0%)
Orbital Orthonormalization  ....       0.000 sec  (  0.0%)
DIIS solution               ....       0.000 sec  (  0.0%)
Grid generation             ....       0.161 sec  (  6.3%)


-------------------------------------------------------------------------------
                          DFT DISPERSION CORRECTION                            
                                                                               
                              DFTD3 V3.1  Rev 1                                
                              USING zero damping                               
-------------------------------------------------------------------------------
The omegaB97X-D3 functional is recognized. Fit by Chai et al.
Active option DFTDOPT                   ...         3   

molecular C6(AA) [au] = 319.096403 


            DFT-D V3
 parameters
 s6 scaling factor         :     1.0000 
 rs6 scaling factor        :     1.2810 
 s8 scaling factor         :     1.0000 
 rs8 scaling factor        :     1.0940 
 Damping factor alpha6     :    14.0000 
 Damping factor alpha8     :    16.0000 
 ad hoc parameters k1-k3   :    16.0000     1.3333    -4.0000 

 Edisp/kcal,au: -0.395948617397  -0.000630984219 
 E6   /kcal   :  -0.251564513 
 E8   /kcal   :  -0.144384104 
 % E8         :  36.465363868 

-------------------------   ----------------
Dispersion correction           -0.000630984
-------------------------   ----------------


-------------------------   --------------------
FINAL SINGLE POINT ENERGY       -39.831570984519
-------------------------   --------------------


                            ***************************************
                            *     ORCA property calculations      *
                            ***************************************

                                    ---------------------
                                    Active property flags
                                    ---------------------
   (+) Dipole Moment


------------------------------------------------------------------------------
                       ORCA ELECTRIC PROPERTIES CALCULATION
------------------------------------------------------------------------------

Dipole Moment Calculation                       ... on
Quadrupole Moment Calculation                   ... off
Polarizability Calculation                      ... off
GBWName                                         ... Scan_18.gbw
Electron density file                           ... Scan_18.scfp.tmp

-------------
DIPOLE MOMENT
-------------
                                X             Y             Z
Electronic contribution:      0.00131       0.00173      -0.00240
Nuclear contribution   :     -0.00000      -0.00000      -0.00000
                        -----------------------------------------
Total Dipole Moment    :      0.00131       0.00172      -0.00240
                        -----------------------------------------
Magnitude (a.u.)       :      0.00324
Magnitude (Debye)      :      0.00822


Timings for individual modules:

Sum of individual times         ...        2.881 sec (=   0.048 min)
GTO integral calculation        ...        0.305 sec (=   0.005 min)  10.6 %
SCF iterations                  ...        2.576 sec (=   0.043 min)  89.4 %
                             ****ORCA TERMINATED NORMALLY****
TOTAL RUN TIME: 0 days 0 hours 0 minutes 3 seconds 222 msec
