
                                 *****************
                                 * O   R   C   A *
                                 *****************

           --- An Ab Initio, DFT and Semiempirical electronic structure package ---

                  #######################################################
                  #                        -***-                        #
                  #  Department of molecular theory and spectroscopy    #
                  #              Directorship: Frank Neese              #
                  # Max Planck Institute for Chemical Energy Conversion #
                  #                  D-45470 Muelheim/Ruhr              #
                  #                       Germany                       #
                  #                                                     #
                  #                  All rights reserved                #
                  #                        -***-                        #
                  #######################################################


                         Program Version 4.0.0.2 - RELEASE -


 With contributions from (in alphabetic order):
   Daniel Aravena         : Magnetic Properties
   Michael Atanasov       : Ab Initio Ligand Field Theory
   Ute Becker             : Parallelization
   Martin Brehm           : Molecular dynamics
   Dmytro Bykov           : SCF Hessian
   Vijay G. Chilkuri      : MRCI spin determinant printing
   Dipayan Datta          : RHF DLPNO-CCSD density
   Achintya Kumar Dutta   : EOM-CC, STEOM-CC
   Dmitry Ganyushin       : Spin-Orbit,Spin-Spin,Magnetic field MRCI
   Yang Guo               : DLPNO-NEVPT2, CIM, IAO-localization
   Andreas Hansen         : Spin unrestricted coupled pair/coupled cluster methods
   Lee Huntington         : MR-EOM, pCC
   Robert Izsak           : Overlap fitted RIJCOSX, COSX-SCS-MP3, EOM
   Christian Kollmar      : KDIIS, OOCD, Brueckner-CCSD(T), CCSD density
   Simone Kossmann        : Meta GGA functionals, TD-DFT gradient, OOMP2, MP2 Hessian
   Martin Krupicka        : AUTO-CI
   Dagmar Lenk            : GEPOL surface
   Dimitrios Liakos       : Extrapolation schemes; parallel MDCI
   Dimitrios Manganas     : ROCIS; embedding schemes
   Dimitrios Pantazis     : SARC Basis sets
   Taras Petrenko         : DFT Hessian,TD-DFT gradient, ASA, ECA, R-Raman, ABS, FL, XAS/XES, NRVS
   Peter Pinski           : DLPNO-MP2
   Christoph Reimann      : Effective Core Potentials
   Marius Retegan         : Local ZFS, SOC
   Christoph Riplinger    : Optimizer, TS searches, QM/MM, DLPNO-CCSD(T), (RO)-DLPNO pert. Triples
   Tobias Risthaus        : Range-separated hybrids, TD-DFT gradient, RPA, STAB
   Michael Roemelt        : Restricted open shell CIS
   Masaaki Saitow         : Open-shell DLPNO
   Barbara Sandhoefer     : DKH picture change effects
   Kantharuban Sivalingam : CASSCF convergence, NEVPT2, FIC-MRCI
   Georgi Stoychev        : AutoAux
   Boris Wezisla          : Elementary symmetry handling
   Frank Wennmohs         : Technical directorship


 We gratefully acknowledge several colleagues who have allowed us to
 interface, adapt or use parts of their codes:
   Stefan Grimme, W. Hujo, H. Kruse,             : VdW corrections, initial TS optimization,
                  C. Bannwarth                     DFT functionals, gCP, sTDA/sTD-DF
   Ed Valeev                                     : LibInt (2-el integral package), F12 methods
   Garnet Chan, S. Sharma, J. Yang, R. Olivares  : DMRG
   Ulf Ekstrom                                   : XCFun DFT Library
   Mihaly Kallay                                 : mrcc  (arbitrary order and MRCC methods)
   Jiri Pittner, Ondrej Demel                    : Mk-CCSD
   Frank Weinhold                                : gennbo (NPA and NBO analysis)
   Christopher J. Cramer and Donald G. Truhlar   : smd solvation model


 Your calculation uses the libint2 library for the computation of 2-el integrals
 For citations please refer to: http://libint.valeyev.net

 This ORCA versions uses:
   CBLAS   interface :  Fast vector & matrix operations
   LAPACKE interface :  Fast linear algebra routines
   SCALAPACK package :  Parallel linear algebra routines


Your calculation utilizes the atom-pairwise dispersion correction
with the zero-damping scheme (D30)
Cite in your paper:
S.Grimme, J.Antony, S.Ehrlich and H.Krieg, J.Chem.Phys., 132, (2010), 154104 
   

XCFun DFT library Copyright 2009-2010 Ulf Ekstrom and contributors.
See http://admol.org/xcfun for more information. This is free soft-
ware; see the source code for copying conditions. There is ABSOLUTELY
NO WARRANTY; not even for MERCHANTABILITY or FITNESS FOR A PARTICULAR
PURPOSE. For details see the documentation. Scientific users of this 
library should cite U. Ekstrom, L. Visscher, R. Bast, A. J. Thorvald-
sen and K. Ruud; J.Chem.Theor.Comp. 2010, DOI: 10.1021/ct100117s
XCFun Version 0.99 
Your calculation utilizes the basis: 6-31G(d)
   H-He, Li-Ne : W. J. Hehre, R. Ditchfield and J.A. Pople, J. Chem. Phys. 56, 2257 (1972).
                 Note: He and Ne are unpublished basis sets taken from the Gaussian program.
                 Note: Li and B from J. D. Dill and J. A. Pople, J. Chem. Phys. 62, 2921 (1975).
   Na - Ar     : M. M. Francl, W. J. Pietro, W. J. Hehre, J. S. Binkley, M. S. Gordon, 
                 D. J. DeFrees and J. A. Pople, J. Chem. Phys. 77, 3654 (1982).
   K - Zn      : V. A. Rassolov, J. A. Pople, M. A. Ratner, and T. L. Windus, J. Chem. Phys. 109, 1223 (1998).

================================================================================
                                        WARNINGS
                       Please study these warnings very carefully!
================================================================================

Warning: TCutStore was < 0. Adjusted to Thresh (uncritical)

INFO   : the flag for use of LIBINT has been found!

================================================================================
                                       INPUT FILE
================================================================================
NAME = initial2.inp
|  1> ! WB97X-D3 6-31G(d) VerySlowConv
|  2> ! KDIIS NOSOSCF
|  3> %base "Scan_2"
|  4> 
|  5> %scf
|  6> maxiter 999
|  7> end
|  8> 
|  9> * xyz 0 1
| 10> C         -4.472707999195    1.925920000748    0.000001997644
| 11> H         -3.586307419404    1.925919213424   -0.000001709002
| 12> H         -4.768171290480    2.158117338417    0.802804481962
| 13> H         -4.768176417074    1.114575450152   -0.200308817695
| 14> H         -4.768176873847    2.505067997259   -0.602485952909
| 15> **                         ****END OF INPUT****
================================================================================

                       ****************************
                       * Single Point Calculation *
                       ****************************

---------------------------------
CARTESIAN COORDINATES (ANGSTROEM)
---------------------------------
  C     -4.472708    1.925920    0.000002
  H     -3.586307    1.925919   -0.000002
  H     -4.768171    2.158117    0.802804
  H     -4.768176    1.114575   -0.200309
  H     -4.768177    2.505068   -0.602486

----------------------------
CARTESIAN COORDINATES (A.U.)
----------------------------
  NO LB      ZA    FRAG     MASS         X           Y           Z
   0 C     6.0000    0    12.011   -8.452193    3.639461    0.000004
   1 H     1.0000    0     1.008   -6.777139    3.639460   -0.000003
   2 H     1.0000    0     1.008   -9.010538    4.078251    1.517081
   3 H     1.0000    0     1.008   -9.010548    2.106242   -0.378529
   4 H     1.0000    0     1.008   -9.010548    4.733892   -1.138533

--------------------------------
INTERNAL COORDINATES (ANGSTROEM)
--------------------------------
 C      0   0   0     0.000000000000     0.00000000     0.00000000
 H      1   0   0     0.886400579799     0.00000000     0.00000000
 H      1   2   0     0.886400580406   109.47122025     0.00000000
 H      1   2   3     0.886400580148   109.47122060   240.00000051
 H      1   2   3     0.886400580050   109.47122129   120.00000000

---------------------------
INTERNAL COORDINATES (A.U.)
---------------------------
 C      0   0   0     0.000000000000     0.00000000     0.00000000
 H      1   0   0     1.675054340769     0.00000000     0.00000000
 H      1   2   0     1.675054341917   109.47122025     0.00000000
 H      1   2   3     1.675054341429   109.47122060   240.00000051
 H      1   2   3     1.675054341243   109.47122129   120.00000000

---------------------
BASIS SET INFORMATION
---------------------
There are 2 groups of distinct atoms

 Group   1 Type C   : 10s4p1d contracted to 3s2p1d pattern {631/31/1}
 Group   2 Type H   : 4s contracted to 2s pattern {31}

Atom   0C    basis set group =>   1
Atom   1H    basis set group =>   2
Atom   2H    basis set group =>   2
Atom   3H    basis set group =>   2
Atom   4H    basis set group =>   2
------------------------------------------------------------------------------
                           ORCA GTO INTEGRAL CALCULATION
------------------------------------------------------------------------------

                         BASIS SET STATISTICS AND STARTUP INFO

 # of primitive gaussian shells          ...   31
 # of primitive gaussian functions       ...   43
 # of contracted shells                  ...   14
 # of contracted basis functions         ...   22
 Highest angular momentum                ...    2
 Maximum contraction depth               ...    6
 Integral package used                   ... LIBINT
 Integral threshhold            Thresh   ...  1.000e-10
 Primitive cut-off              TCut     ...  1.000e-11


------------------------------ INTEGRAL EVALUATION ----------------------------


 * One electron integrals 
 Pre-screening matrix                    ... done
 Shell pair data                         ... done (   0.000 sec)

-------------------------------------------------------------------------------
                                 ORCA SCF
-------------------------------------------------------------------------------

------------
SCF SETTINGS
------------
Hamiltonian:
 Density Functional     Method          .... DFT(GTOs)
 Exchange Functional    Exchange        .... WB97X-D3
 Correlation Functional Correlation     .... WB97X-D3
 Gradients option       PostSCFGGA      .... off
 Hybrid DFT is turned on
   Fraction HF Exchange ScalHFX         ....  0.195728
   Scaling of DF-GGA-X  ScalDFX         ....  0.000000
   Scaling of DF-GGA-C  ScalDFC         ....  1.000000
   Scaling of DF-LDA-C  ScalLDAC        ....  1.000000
   Perturbative correction              ....  0.000000
 Long-range corrected/Screened/Range-Separated Hybrid DFT is turned on
   Amount of maximum screened exact exchange              ....  0.804272
   Range separation parameter mu (erf(mu*r12)/r12)        ....  0.250000


General Settings:
 Integral files         IntName         .... Scan_2
 Hartree-Fock type      HFTyp           .... RHF
 Total Charge           Charge          ....    0
 Multiplicity           Mult            ....    1
 Number of Electrons    NEL             ....   10
 Basis Dimension        Dim             ....   22
 Nuclear Repulsion      ENuc            ....     16.5213951161 Eh

Convergence Acceleration:
 DIIS                   CNVDIIS         .... on
   Start iteration      DIISMaxIt       ....     0
   Startup error        DIISStart       ....  0.200000
   # of expansion vecs  DIISMaxEq       ....     5
   Bias factor          DIISBfac        ....   1.050
   Max. coefficient     DIISMaxC        ....  10.000
 Newton-Raphson         CNVNR           .... off
 SOSCF                  CNVSOSCF        .... off
 Level Shifting         CNVShift        .... off
 Zerner damping         CNVZerner       .... off
 Static damping         CNVDamp         .... off
 Fernandez-Rico         CNVRico         .... off

SCF Procedure:
 Maximum # iterations   MaxIter         ....   999
 SCF integral mode      SCFMode         .... Direct
   Integral package                     .... LIBINT
 Reset frequeny         DirectResetFreq ....    20
 Integral Threshold     Thresh          ....  1.000e-10 Eh
 Primitive CutOff       TCut            ....  1.000e-11 Eh

Convergence Tolerance:
 Convergence Check Mode ConvCheckMode   .... All-Criteria
 Convergence forced     ConvForced      .... 0
 Energy Change          TolE            ....  1.000e-06 Eh
 Max Density Change     TolMaxP         ....  1.000e-05
 RMS Density Change     TolRMSP         ....  1.000e-06
 DIIS Error             TolErr          ....  1.000e-06


Diagonalization of the overlap matrix:
Smallest eigenvalue                        ... 9.879e-03
Time for diagonalization                   ...    0.000 sec
Threshold for overlap eigenvalues          ... 1.000e-08
Number of eigenvalues below threshold      ... 0
Time for construction of square roots      ...    0.006 sec
Total time needed                          ...    0.007 sec

-------------------
DFT GRID GENERATION
-------------------

General Integration Accuracy     IntAcc      ...  4.340
Radial Grid Type                 RadialGrid  ... Gauss-Chebyshev
Angular Grid (max. acc.)         AngularGrid ... Lebedev-110
Angular grid pruning method      GridPruning ... 3 (G Style)
Weight generation scheme         WeightScheme... Becke
Basis function cutoff            BFCut       ...    1.0000e-10
Integration weight cutoff        WCut        ...    1.0000e-14
Grids for H and He will be reduced by one unit

# of grid points (after initial pruning)     ...   4832 (   0.0 sec)
# of grid points (after weights+screening)   ...   4687 (   0.0 sec)
nearest neighbour list constructed           ...    0.0 sec
Grid point re-assignment to atoms done       ...    0.0 sec
Grid point division into batches done        ...    0.0 sec
Reduced shell lists constructed in    0.0 sec

Total number of grid points                  ...     4687
Total number of batches                      ...       76
Average number of points per batch           ...       61
Average number of grid points per atom       ...      937
Average number of shells per batch           ...    13.17 (94.06%)
Average number of basis functions per batch  ...    20.73 (94.21%)
Average number of large shells per batch     ...    12.58 (95.56%)
Average number of large basis fcns per batch ...    19.81 (95.55%)
Maximum spatial batch extension              ...  21.05, 25.60, 23.60 au
Average spatial batch extension              ...   5.06,  5.04,  4.69 au

Time for grid setup =    0.029 sec

------------------------------
INITIAL GUESS: MODEL POTENTIAL
------------------------------
Loading Hartree-Fock densities                     ... done
Calculating cut-offs                               ... done
Setting up the integral package                    ... done
Initializing the effective Hamiltonian             ... done
Starting the Coulomb interaction                   ... done (   0.0 sec)
Reading the grid                                   ... done
Mapping shells                                     ... done
Starting the XC term evaluation                    ... done (   0.0 sec)
  promolecular density results
     # of electrons  =      9.999526289
     EX              =     -6.417671468
     EC              =     -0.307747999
     EX+EC           =     -6.725419466
Transforming the Hamiltonian                       ... done (   0.0 sec)
Diagonalizing the Hamiltonian                      ... done (   0.0 sec)
Back transforming the eigenvectors                 ... done (   0.0 sec)
Now organizing SCF variables                       ... done
                      ------------------
                      INITIAL GUESS DONE (   0.2 sec)
                      ------------------
--------------
SCF ITERATIONS
--------------
ITER       Energy         Delta-E        Max-DP      RMS-DP      [F,P]   Gradient Norm
               ***  Starting incremental Fock matrix formation  ***
                             ****Resetting KDIIS****
                             ****Turning on KDIIS(Cayley)****
  0    -40.1902683817   0.000000000000 0.04614657  0.00445568  0.1234196   0.171862307
  1    -40.2375228548  -0.047254473165 0.03538703  0.00362205  0.1039285   0.140985744
  2    -40.2703805672  -0.032857712331 0.05905835  0.00615468  0.0858664   0.115976127
  3    -40.3121375688  -0.041757001596 0.09424518  0.01033342  0.0537980   0.072860160
Warning: badly conditioned DIIS matrix, 1 vectors out of 5 destroyed
  4    -40.3392573915  -0.027119822718 0.00258992  0.00023022  0.0006346   0.000730236
Warning: badly conditioned DIIS matrix, 1 vectors out of 5 destroyed
                          ***Energy convergence achieved***
  5    -40.3392578993  -0.000000507776 0.00141446  0.00027499  0.0005611   0.000620490
Warning: badly conditioned DIIS matrix, 1 vectors out of 5 destroyed
  6    -40.3392595637  -0.000001664422 0.00056859  0.00008543  0.0003254   0.000423703
Warning: badly conditioned DIIS matrix, 1 vectors out of 5 destroyed
                          ***Energy convergence achieved***
  7    -40.3392605144  -0.000000950684 0.00003184  0.00000402  0.0000061   0.000006167
                           ***RMSP convergence achieved***
                           ***MAXP convergence achieved***
                    *** KDIIS BlockDiag ( 0.000 sec) ***

               *****************************************************
               *                     SUCCESS                       *
               *           SCF CONVERGED AFTER   8 CYCLES          *
               *****************************************************

Setting up the final grid:

General Integration Accuracy     IntAcc      ...  4.670
Radial Grid Type                 RadialGrid  ... Gauss-Chebyshev
Angular Grid (max. acc.)         AngularGrid ... Lebedev-302
Angular grid pruning method      GridPruning ... 3 (G Style)
Weight generation scheme         WeightScheme... Becke
Basis function cutoff            BFCut       ...    1.0000e-10
Integration weight cutoff        WCut        ...    1.0000e-14
Grids for H and He will be reduced by one unit

# of grid points (after initial pruning)     ...  19788 (   0.0 sec)
# of grid points (after weights+screening)   ...  19170 (   0.0 sec)
nearest neighbour list constructed           ...    0.0 sec
Grid point re-assignment to atoms done       ...    0.0 sec
Grid point division into batches done        ...    0.0 sec
Reduced shell lists constructed in    0.1 sec

Total number of grid points                  ...    19170
Total number of batches                      ...      302
Average number of points per batch           ...       63
Average number of grid points per atom       ...     3834
Average number of shells per batch           ...    12.12 (86.59%)
Average number of basis functions per batch  ...    19.09 (86.78%)
Average number of large shells per batch     ...    11.58 (95.51%)
Average number of large basis fcns per batch ...    18.22 (95.45%)
Maximum spatial batch extension              ...  20.64, 20.64, 20.64 au
Average spatial batch extension              ...   3.46,  3.20,  3.13 au

Final grid set up in    0.1 sec
Final integration                            ... done (   0.2 sec)
Change in XC energy                          ...     0.000805596
Integrated number of electrons               ...     9.999980812
Previous integrated no of electrons          ...    10.000675290

----------------
TOTAL SCF ENERGY
----------------

Total Energy       :          -40.33845492 Eh           -1097.66516 eV

Components:
Nuclear Repulsion  :           16.52139512 Eh             449.57002 eV
Electronic Energy  :          -56.85985004 Eh           -1547.23518 eV
One Electron Energy:          -85.32696779 Eh           -2321.86484 eV
Two Electron Energy:           28.46711776 Eh             774.62966 eV

Virial components:
Potential Energy   :          -82.02058432 Eh           -2231.89357 eV
Kinetic Energy     :           41.68212940 Eh            1134.22840 eV
Virial Ratio       :            1.96776378


DFT components:
N(Alpha)           :        4.999990405908 electrons
N(Beta)            :        4.999990405908 electrons
N(Total)           :        9.999980811816 electrons
E(XC)              :       -4.814972942190 Eh       

---------------
SCF CONVERGENCE
---------------

  Last Energy change         ...   -2.8166e-10  Tolerance :   1.0000e-06
  Last MAX-Density change    ...    3.2642e-06  Tolerance :   1.0000e-05
  Last RMS-Density change    ...    2.7016e-07  Tolerance :   1.0000e-06
  Last DIIS Error            ...    8.9031e-07  Tolerance :   1.0000e-06

             **** THE GBW FILE WAS UPDATED (Scan_2.gbw) ****
             **** DENSITY FILE WAS UPDATED (Scan_2.scfp.tmp) ****
             **** ENERGY FILE WAS UPDATED (Scan_2.en.tmp) ****
----------------
ORBITAL ENERGIES
----------------

  NO   OCC          E(Eh)            E(eV) 
   0   2.0000     -10.164895      -276.6008 
   1   2.0000      -0.873150       -23.7596 
   2   2.0000      -0.524380       -14.2691 
   3   2.0000      -0.524244       -14.2654 
   4   2.0000      -0.523989       -14.2585 
   5   0.0000       0.253027         6.8852 
   6   0.0000       0.336055         9.1445 
   7   0.0000       0.336417         9.1544 
   8   0.0000       0.337027         9.1710 
   9   0.0000       0.583615        15.8810 
  10   0.0000       0.585226        15.9248 
  11   0.0000       0.586397        15.9567 
  12   0.0000       1.220038        33.1989 
  13   0.0000       1.220082        33.2001 
  14   0.0000       1.220358        33.2076 
  15   0.0000       1.249667        34.0052 
  16   0.0000       1.521663        41.4066 
  17   0.0000       1.697728        46.1975 
  18   0.0000       1.698630        46.2221 
  19   0.0000       2.671946        72.7073 
  20   0.0000       2.672716        72.7283 
  21   0.0000       2.673201        72.7415 

                    ********************************
                    * MULLIKEN POPULATION ANALYSIS *
                    ********************************

-----------------------
MULLIKEN ATOMIC CHARGES
-----------------------
   0 C :   -0.712236
   1 H :    0.179686
   2 H :    0.177235
   3 H :    0.177203
   4 H :    0.178112
Sum of atomic charges:   -0.0000000

--------------------------------
MULLIKEN REDUCED ORBITAL CHARGES
--------------------------------
  0 C s       :     3.151149  s :     3.151149
      pz      :     1.176875  p :     3.529874
      px      :     1.176356
      py      :     1.176643
      dz2     :     0.007813  d :     0.031213
      dxz     :     0.003466
      dyz     :     0.006926
      dx2y2   :     0.009539
      dxy     :     0.003469
  1 H s       :     0.820314  s :     0.820314
  2 H s       :     0.822765  s :     0.822765
  3 H s       :     0.822797  s :     0.822797
  4 H s       :     0.821888  s :     0.821888


                     *******************************
                     * LOEWDIN POPULATION ANALYSIS *
                     *******************************

----------------------
LOEWDIN ATOMIC CHARGES
----------------------
   0 C :   -0.612431
   1 H :    0.153501
   2 H :    0.153099
   3 H :    0.153005
   4 H :    0.152826

-------------------------------
LOEWDIN REDUCED ORBITAL CHARGES
-------------------------------
  0 C s       :     2.877411  s :     2.877411
      pz      :     1.225215  p :     3.675471
      px      :     1.225167
      py      :     1.225089
      dz2     :     0.014880  d :     0.059549
      dxz     :     0.006610
      dyz     :     0.013241
      dx2y2   :     0.018201
      dxy     :     0.006617
  1 H s       :     0.846499  s :     0.846499
  2 H s       :     0.846901  s :     0.846901
  3 H s       :     0.846995  s :     0.846995
  4 H s       :     0.847174  s :     0.847174


                      *****************************
                      * MAYER POPULATION ANALYSIS *
                      *****************************

  NA   - Mulliken gross atomic population
  ZA   - Total nuclear charge
  QA   - Mulliken gross atomic charge
  VA   - Mayer's total valence
  BVA  - Mayer's bonded valence
  FA   - Mayer's free valence

  ATOM       NA         ZA         QA         VA         BVA        FA
  0 C      6.7122     6.0000    -0.7122     3.8729     3.8729     0.0000
  1 H      0.8203     1.0000     0.1797     0.9257     0.9257    -0.0000
  2 H      0.8228     1.0000     0.1772     0.9272     0.9272    -0.0000
  3 H      0.8228     1.0000     0.1772     0.9271     0.9271    -0.0000
  4 H      0.8219     1.0000     0.1781     0.9263     0.9263     0.0000

  Mayer bond orders larger than 0.1
B(  0-C ,  1-H ) :   0.9677 B(  0-C ,  2-H ) :   0.9686 B(  0-C ,  3-H ) :   0.9685 
B(  0-C ,  4-H ) :   0.9682 

-------
TIMINGS
-------

Total SCF time: 0 days 0 hours 0 min 3 sec 

Total time                  ....       3.185 sec
Sum of individual times     ....       3.053 sec  ( 95.9%)

Fock matrix formation       ....       2.718 sec  ( 85.4%)
  XC integration            ....       0.646 sec  ( 23.8% of F)
    Basis function eval.    ....       0.214 sec  ( 33.1% of XC)
    Density eval.           ....       0.027 sec  (  4.2% of XC)
    XC-Functional eval.     ....       0.182 sec  ( 28.2% of XC)
    XC-Potential eval.      ....       0.019 sec  (  2.9% of XC)
Diagonalization             ....       0.022 sec  (  0.7%)
Density matrix formation    ....       0.000 sec  (  0.0%)
Population analysis         ....       0.010 sec  (  0.3%)
Initial guess               ....       0.129 sec  (  4.0%)
Orbital Transformation      ....       0.000 sec  (  0.0%)
Orbital Orthonormalization  ....       0.000 sec  (  0.0%)
DIIS solution               ....       0.000 sec  (  0.0%)
Grid generation             ....       0.173 sec  (  5.4%)


-------------------------------------------------------------------------------
                          DFT DISPERSION CORRECTION                            
                                                                               
                              DFTD3 V3.1  Rev 1                                
                              USING zero damping                               
-------------------------------------------------------------------------------
The omegaB97X-D3 functional is recognized. Fit by Chai et al.
Active option DFTDOPT                   ...         3   

molecular C6(AA) [au] = 127.455538 


            DFT-D V3
 parameters
 s6 scaling factor         :     1.0000 
 rs6 scaling factor        :     1.2810 
 s8 scaling factor         :     1.0000 
 rs8 scaling factor        :     1.0940 
 Damping factor alpha6     :    14.0000 
 Damping factor alpha8     :    16.0000 
 ad hoc parameters k1-k3   :    16.0000     1.3333    -4.0000 

 Edisp/kcal,au: -0.002975027011  -0.000004741007 
 E6   /kcal   :  -0.000463618 
 E8   /kcal   :  -0.002511409 
 % E8         :  84.416345569 

-------------------------   ----------------
Dispersion correction           -0.000004741
-------------------------   ----------------


-------------------------   --------------------
FINAL SINGLE POINT ENERGY       -40.338459659951
-------------------------   --------------------


                            ***************************************
                            *     ORCA property calculations      *
                            ***************************************

                                    ---------------------
                                    Active property flags
                                    ---------------------
   (+) Dipole Moment


------------------------------------------------------------------------------
                       ORCA ELECTRIC PROPERTIES CALCULATION
------------------------------------------------------------------------------

Dipole Moment Calculation                       ... on
Quadrupole Moment Calculation                   ... off
Polarizability Calculation                      ... off
GBWName                                         ... Scan_2.gbw
Electron density file                           ... Scan_2.scfp.tmp

-------------
DIPOLE MOMENT
-------------
                                X             Y             Z
Electronic contribution:     -0.00035      -0.00093       0.00130
Nuclear contribution   :     -0.00000      -0.00000       0.00000
                        -----------------------------------------
Total Dipole Moment    :     -0.00035      -0.00093       0.00130
                        -----------------------------------------
Magnitude (a.u.)       :      0.00164
Magnitude (Debye)      :      0.00416


Timings for individual modules:

Sum of individual times         ...        3.536 sec (=   0.059 min)
GTO integral calculation        ...        0.327 sec (=   0.005 min)   9.2 %
SCF iterations                  ...        3.209 sec (=   0.053 min)  90.8 %
                             ****ORCA TERMINATED NORMALLY****
TOTAL RUN TIME: 0 days 0 hours 0 minutes 3 seconds 892 msec
