
                                 *****************
                                 * O   R   C   A *
                                 *****************

           --- An Ab Initio, DFT and Semiempirical electronic structure package ---

                  #######################################################
                  #                        -***-                        #
                  #  Department of molecular theory and spectroscopy    #
                  #              Directorship: Frank Neese              #
                  # Max Planck Institute for Chemical Energy Conversion #
                  #                  D-45470 Muelheim/Ruhr              #
                  #                       Germany                       #
                  #                                                     #
                  #                  All rights reserved                #
                  #                        -***-                        #
                  #######################################################


                         Program Version 4.0.0.2 - RELEASE -


 With contributions from (in alphabetic order):
   Daniel Aravena         : Magnetic Properties
   Michael Atanasov       : Ab Initio Ligand Field Theory
   Ute Becker             : Parallelization
   Martin Brehm           : Molecular dynamics
   Dmytro Bykov           : SCF Hessian
   Vijay G. Chilkuri      : MRCI spin determinant printing
   Dipayan Datta          : RHF DLPNO-CCSD density
   Achintya Kumar Dutta   : EOM-CC, STEOM-CC
   Dmitry Ganyushin       : Spin-Orbit,Spin-Spin,Magnetic field MRCI
   Yang Guo               : DLPNO-NEVPT2, CIM, IAO-localization
   Andreas Hansen         : Spin unrestricted coupled pair/coupled cluster methods
   Lee Huntington         : MR-EOM, pCC
   Robert Izsak           : Overlap fitted RIJCOSX, COSX-SCS-MP3, EOM
   Christian Kollmar      : KDIIS, OOCD, Brueckner-CCSD(T), CCSD density
   Simone Kossmann        : Meta GGA functionals, TD-DFT gradient, OOMP2, MP2 Hessian
   Martin Krupicka        : AUTO-CI
   Dagmar Lenk            : GEPOL surface
   Dimitrios Liakos       : Extrapolation schemes; parallel MDCI
   Dimitrios Manganas     : ROCIS; embedding schemes
   Dimitrios Pantazis     : SARC Basis sets
   Taras Petrenko         : DFT Hessian,TD-DFT gradient, ASA, ECA, R-Raman, ABS, FL, XAS/XES, NRVS
   Peter Pinski           : DLPNO-MP2
   Christoph Reimann      : Effective Core Potentials
   Marius Retegan         : Local ZFS, SOC
   Christoph Riplinger    : Optimizer, TS searches, QM/MM, DLPNO-CCSD(T), (RO)-DLPNO pert. Triples
   Tobias Risthaus        : Range-separated hybrids, TD-DFT gradient, RPA, STAB
   Michael Roemelt        : Restricted open shell CIS
   Masaaki Saitow         : Open-shell DLPNO
   Barbara Sandhoefer     : DKH picture change effects
   Kantharuban Sivalingam : CASSCF convergence, NEVPT2, FIC-MRCI
   Georgi Stoychev        : AutoAux
   Boris Wezisla          : Elementary symmetry handling
   Frank Wennmohs         : Technical directorship


 We gratefully acknowledge several colleagues who have allowed us to
 interface, adapt or use parts of their codes:
   Stefan Grimme, W. Hujo, H. Kruse,             : VdW corrections, initial TS optimization,
                  C. Bannwarth                     DFT functionals, gCP, sTDA/sTD-DF
   Ed Valeev                                     : LibInt (2-el integral package), F12 methods
   Garnet Chan, S. Sharma, J. Yang, R. Olivares  : DMRG
   Ulf Ekstrom                                   : XCFun DFT Library
   Mihaly Kallay                                 : mrcc  (arbitrary order and MRCC methods)
   Jiri Pittner, Ondrej Demel                    : Mk-CCSD
   Frank Weinhold                                : gennbo (NPA and NBO analysis)
   Christopher J. Cramer and Donald G. Truhlar   : smd solvation model


 Your calculation uses the libint2 library for the computation of 2-el integrals
 For citations please refer to: http://libint.valeyev.net

 This ORCA versions uses:
   CBLAS   interface :  Fast vector & matrix operations
   LAPACKE interface :  Fast linear algebra routines
   SCALAPACK package :  Parallel linear algebra routines


Your calculation utilizes the atom-pairwise dispersion correction
with the zero-damping scheme (D30)
Cite in your paper:
S.Grimme, J.Antony, S.Ehrlich and H.Krieg, J.Chem.Phys., 132, (2010), 154104 
   

XCFun DFT library Copyright 2009-2010 Ulf Ekstrom and contributors.
See http://admol.org/xcfun for more information. This is free soft-
ware; see the source code for copying conditions. There is ABSOLUTELY
NO WARRANTY; not even for MERCHANTABILITY or FITNESS FOR A PARTICULAR
PURPOSE. For details see the documentation. Scientific users of this 
library should cite U. Ekstrom, L. Visscher, R. Bast, A. J. Thorvald-
sen and K. Ruud; J.Chem.Theor.Comp. 2010, DOI: 10.1021/ct100117s
XCFun Version 0.99 
Your calculation utilizes the basis: 6-31G(d)
   H-He, Li-Ne : W. J. Hehre, R. Ditchfield and J.A. Pople, J. Chem. Phys. 56, 2257 (1972).
                 Note: He and Ne are unpublished basis sets taken from the Gaussian program.
                 Note: Li and B from J. D. Dill and J. A. Pople, J. Chem. Phys. 62, 2921 (1975).
   Na - Ar     : M. M. Francl, W. J. Pietro, W. J. Hehre, J. S. Binkley, M. S. Gordon, 
                 D. J. DeFrees and J. A. Pople, J. Chem. Phys. 77, 3654 (1982).
   K - Zn      : V. A. Rassolov, J. A. Pople, M. A. Ratner, and T. L. Windus, J. Chem. Phys. 109, 1223 (1998).

================================================================================
                                        WARNINGS
                       Please study these warnings very carefully!
================================================================================

Warning: TCutStore was < 0. Adjusted to Thresh (uncritical)

INFO   : the flag for use of LIBINT has been found!

================================================================================
                                       INPUT FILE
================================================================================
NAME = initial24.inp
|  1> ! WB97X-D3 6-31G(d) VerySlowConv
|  2> ! KDIIS NOSOSCF
|  3> %base "Scan_24"
|  4> 
|  5> %scf
|  6> maxiter 999
|  7> end
|  8> 
|  9> * xyz 0 1
| 10> C         -4.472707997014    1.925920480460    0.000001959415
| 11> H         -1.628012872651    1.925917090697   -0.000009876072
| 12> H         -5.420928305537    2.671102583659    2.576408805012
| 13> H         -5.420944466974   -0.677900036963   -0.642848441319
| 14> H         -5.420946357825    3.784559882147   -1.933542447035
| 15> **                         ****END OF INPUT****
================================================================================

                       ****************************
                       * Single Point Calculation *
                       ****************************

---------------------------------
CARTESIAN COORDINATES (ANGSTROEM)
---------------------------------
  C     -4.472708    1.925920    0.000002
  H     -1.628013    1.925917   -0.000010
  H     -5.420928    2.671103    2.576409
  H     -5.420944   -0.677900   -0.642848
  H     -5.420946    3.784560   -1.933542

----------------------------
CARTESIAN COORDINATES (A.U.)
----------------------------
  NO LB      ZA    FRAG     MASS         X           Y           Z
   0 C     6.0000    0    12.011   -8.452193    3.639462    0.000004
   1 H     1.0000    0     1.008   -3.076498    3.639456   -0.000019
   2 H     1.0000    0     1.008  -10.244070    5.047652    4.868707
   3 H     1.0000    0     1.008  -10.244100   -1.281045   -1.214807
   4 H     1.0000    0     1.008  -10.244104    7.151782   -3.653866

--------------------------------
INTERNAL COORDINATES (ANGSTROEM)
--------------------------------
 C      0   0   0     0.000000000000     0.00000000     0.00000000
 H      1   0   0     2.844695124390     0.00000000     0.00000000
 H      1   2   0     2.844695125046   109.47122507     0.00000000
 H      1   2   3     2.844695120332   109.47119897   240.00003418
 H      1   2   3     2.844695130613   109.47123817   120.00004318

---------------------------
INTERNAL COORDINATES (A.U.)
---------------------------
 C      0   0   0     0.000000000000     0.00000000     0.00000000
 H      1   0   0     5.375694719597     0.00000000     0.00000000
 H      1   2   0     5.375694720839   109.47122507     0.00000000
 H      1   2   3     5.375694711929   109.47119897   240.00003418
 H      1   2   3     5.375694731357   109.47123817   120.00004318

---------------------
BASIS SET INFORMATION
---------------------
There are 2 groups of distinct atoms

 Group   1 Type C   : 10s4p1d contracted to 3s2p1d pattern {631/31/1}
 Group   2 Type H   : 4s contracted to 2s pattern {31}

Atom   0C    basis set group =>   1
Atom   1H    basis set group =>   2
Atom   2H    basis set group =>   2
Atom   3H    basis set group =>   2
Atom   4H    basis set group =>   2
------------------------------------------------------------------------------
                           ORCA GTO INTEGRAL CALCULATION
------------------------------------------------------------------------------

                         BASIS SET STATISTICS AND STARTUP INFO

 # of primitive gaussian shells          ...   31
 # of primitive gaussian functions       ...   43
 # of contracted shells                  ...   14
 # of contracted basis functions         ...   22
 Highest angular momentum                ...    2
 Maximum contraction depth               ...    6
 Integral package used                   ... LIBINT
 Integral threshhold            Thresh   ...  1.000e-10
 Primitive cut-off              TCut     ...  1.000e-11


------------------------------ INTEGRAL EVALUATION ----------------------------


 * One electron integrals 
 Pre-screening matrix                    ... done
 Shell pair data                         ... done (   0.000 sec)

-------------------------------------------------------------------------------
                                 ORCA SCF
-------------------------------------------------------------------------------

------------
SCF SETTINGS
------------
Hamiltonian:
 Density Functional     Method          .... DFT(GTOs)
 Exchange Functional    Exchange        .... WB97X-D3
 Correlation Functional Correlation     .... WB97X-D3
 Gradients option       PostSCFGGA      .... off
 Hybrid DFT is turned on
   Fraction HF Exchange ScalHFX         ....  0.195728
   Scaling of DF-GGA-X  ScalDFX         ....  0.000000
   Scaling of DF-GGA-C  ScalDFC         ....  1.000000
   Scaling of DF-LDA-C  ScalLDAC        ....  1.000000
   Perturbative correction              ....  0.000000
 Long-range corrected/Screened/Range-Separated Hybrid DFT is turned on
   Amount of maximum screened exact exchange              ....  0.804272
   Range separation parameter mu (erf(mu*r12)/r12)        ....  0.250000


General Settings:
 Integral files         IntName         .... Scan_24
 Hartree-Fock type      HFTyp           .... RHF
 Total Charge           Charge          ....    0
 Multiplicity           Mult            ....    1
 Number of Electrons    NEL             ....   10
 Basis Dimension        Dim             ....   22
 Nuclear Repulsion      ENuc            ....      5.1480294270 Eh

Convergence Acceleration:
 DIIS                   CNVDIIS         .... on
   Start iteration      DIISMaxIt       ....     0
   Startup error        DIISStart       ....  0.200000
   # of expansion vecs  DIISMaxEq       ....     5
   Bias factor          DIISBfac        ....   1.050
   Max. coefficient     DIISMaxC        ....  10.000
 Newton-Raphson         CNVNR           .... off
 SOSCF                  CNVSOSCF        .... off
 Level Shifting         CNVShift        .... off
 Zerner damping         CNVZerner       .... off
 Static damping         CNVDamp         .... off
 Fernandez-Rico         CNVRico         .... off

SCF Procedure:
 Maximum # iterations   MaxIter         ....   999
 SCF integral mode      SCFMode         .... Direct
   Integral package                     .... LIBINT
 Reset frequeny         DirectResetFreq ....    20
 Integral Threshold     Thresh          ....  1.000e-10 Eh
 Primitive CutOff       TCut            ....  1.000e-11 Eh

Convergence Tolerance:
 Convergence Check Mode ConvCheckMode   .... All-Criteria
 Convergence forced     ConvForced      .... 0
 Energy Change          TolE            ....  1.000e-06 Eh
 Max Density Change     TolMaxP         ....  1.000e-05
 RMS Density Change     TolRMSP         ....  1.000e-06
 DIIS Error             TolErr          ....  1.000e-06


Diagonalization of the overlap matrix:
Smallest eigenvalue                        ... 1.645e-01
Time for diagonalization                   ...    0.001 sec
Threshold for overlap eigenvalues          ... 1.000e-08
Number of eigenvalues below threshold      ... 0
Time for construction of square roots      ...    0.005 sec
Total time needed                          ...    0.006 sec

-------------------
DFT GRID GENERATION
-------------------

General Integration Accuracy     IntAcc      ...  4.340
Radial Grid Type                 RadialGrid  ... Gauss-Chebyshev
Angular Grid (max. acc.)         AngularGrid ... Lebedev-110
Angular grid pruning method      GridPruning ... 3 (G Style)
Weight generation scheme         WeightScheme... Becke
Basis function cutoff            BFCut       ...    1.0000e-10
Integration weight cutoff        WCut        ...    1.0000e-14
Grids for H and He will be reduced by one unit

# of grid points (after initial pruning)     ...   4832 (   0.0 sec)
# of grid points (after weights+screening)   ...   4788 (   0.0 sec)
nearest neighbour list constructed           ...    0.0 sec
Grid point re-assignment to atoms done       ...    0.0 sec
Grid point division into batches done        ...    0.0 sec
Reduced shell lists constructed in    0.0 sec

Total number of grid points                  ...     4788
Total number of batches                      ...       77
Average number of points per batch           ...       62
Average number of grid points per atom       ...      958
Average number of shells per batch           ...    10.60 (75.73%)
Average number of basis functions per batch  ...    17.50 (79.55%)
Average number of large shells per batch     ...     8.04 (75.82%)
Average number of large basis fcns per batch ...    13.47 (77.00%)
Maximum spatial batch extension              ...  21.59, 25.60, 21.59 au
Average spatial batch extension              ...   5.82,  5.62,  5.31 au

Time for grid setup =    0.028 sec

------------------------------
INITIAL GUESS: MODEL POTENTIAL
------------------------------
Loading Hartree-Fock densities                     ... done
Calculating cut-offs                               ... done
Setting up the integral package                    ... done
Initializing the effective Hamiltonian             ... done
Starting the Coulomb interaction                   ... done (   0.0 sec)
Reading the grid                                   ... done
Mapping shells                                     ... done
Starting the XC term evaluation                    ... done (   0.0 sec)
  promolecular density results
     # of electrons  =      9.997671113
     EX              =     -5.949925081
     EC              =     -0.220049520
     EX+EC           =     -6.169974602
Transforming the Hamiltonian                       ... done (   0.0 sec)
Diagonalizing the Hamiltonian                      ... done (   0.0 sec)
Back transforming the eigenvectors                 ... done (   0.0 sec)
Now organizing SCF variables                       ... done
                      ------------------
                      INITIAL GUESS DONE (   0.1 sec)
                      ------------------
--------------
SCF ITERATIONS
--------------
ITER       Energy         Delta-E        Max-DP      RMS-DP      [F,P]   Gradient Norm
               ***  Starting incremental Fock matrix formation  ***
                             ****Resetting KDIIS****
                             ****Turning on KDIIS(Cayley)****
  0    -39.3982935788   0.000000000000 0.03222500  0.00325187  0.1302787   0.126018061
  1    -39.4389030633  -0.040609484545 0.05561815  0.00954527  0.1218109   0.114212455
  2    -39.5445322236  -0.105629160305 0.09735247  0.01620390  0.0818886   0.074391208
  3    -39.5980053690  -0.053473145402 0.03755435  0.00535849  0.0251265   0.025301852
  4    -39.6033847533  -0.005379384305 0.01632316  0.00171720  0.0047361   0.003922176
  5    -39.6026176154   0.000767137890 0.00852650  0.00116004  0.0119380   0.009301352
  6    -39.6020501895   0.000567425931 0.02291917  0.00398611  0.0157038   0.012645536
  7    -39.6038935283  -0.001843338807 0.00781618  0.00102198  0.0023167   0.001724671
  8    -39.6039543558  -0.000060827483 0.00111434  0.00016611  0.0004202   0.000343779
  9    -39.6039566197  -0.000002263953 0.00019350  0.00002328  0.0000577   0.000062414
                          ***Energy convergence achieved***
 10    -39.6039566912  -0.000000071492 0.00005773  0.00001038  0.0000358   0.000028617

            ***Energy convergence in two consecutive cycles with***
                    ***'reasonable' density convergence***
                       *** signaling convergence ***

                    *** KDIIS BlockDiag ( 0.000 sec) ***

               *****************************************************
               *                     SUCCESS                       *
               *           SCF CONVERGED AFTER  11 CYCLES          *
               *****************************************************

Setting up the final grid:

General Integration Accuracy     IntAcc      ...  4.670
Radial Grid Type                 RadialGrid  ... Gauss-Chebyshev
Angular Grid (max. acc.)         AngularGrid ... Lebedev-302
Angular grid pruning method      GridPruning ... 3 (G Style)
Weight generation scheme         WeightScheme... Becke
Basis function cutoff            BFCut       ...    1.0000e-10
Integration weight cutoff        WCut        ...    1.0000e-14
Grids for H and He will be reduced by one unit

# of grid points (after initial pruning)     ...  19788 (   0.0 sec)
# of grid points (after weights+screening)   ...  19645 (   0.0 sec)
nearest neighbour list constructed           ...    0.0 sec
Grid point re-assignment to atoms done       ...    0.0 sec
Grid point division into batches done        ...    0.0 sec
Reduced shell lists constructed in    0.1 sec

Total number of grid points                  ...    19645
Total number of batches                      ...      309
Average number of points per batch           ...       63
Average number of grid points per atom       ...     3929
Average number of shells per batch           ...     9.68 (69.12%)
Average number of basis functions per batch  ...    16.25 (73.84%)
Average number of large shells per batch     ...     6.77 (69.97%)
Average number of large basis fcns per batch ...    11.32 (69.68%)
Maximum spatial batch extension              ...  20.64, 19.63, 17.61 au
Average spatial batch extension              ...   3.77,  3.52,  3.50 au

Final grid set up in    0.1 sec
Final integration                            ... done (   0.1 sec)
Change in XC energy                          ...    -0.000558001
Integrated number of electrons               ...     9.999999155
Previous integrated no of electrons          ...    10.000334752

----------------
TOTAL SCF ENERGY
----------------

Total Energy       :          -39.60451472 Eh           -1077.69363 eV

Components:
Nuclear Repulsion  :            5.14802943 Eh             140.08500 eV
Electronic Energy  :          -44.75254414 Eh           -1217.77864 eV
One Electron Energy:          -62.46121398 Eh           -1699.65604 eV
Two Electron Energy:           17.70866984 Eh             481.87740 eV

Virial components:
Potential Energy   :          -78.46075090 Eh           -2135.02557 eV
Kinetic Energy     :           38.85623618 Eh            1057.33194 eV
Virial Ratio       :            2.01925762


DFT components:
N(Alpha)           :        4.999999577406 electrons
N(Beta)            :        4.999999577406 electrons
N(Total)           :        9.999999154812 electrons
E(XC)              :       -3.940244270524 Eh       

---------------
SCF CONVERGENCE
---------------

  Last Energy change         ...   -2.4257e-08  Tolerance :   1.0000e-06
  Last MAX-Density change    ...    5.7533e-05  Tolerance :   1.0000e-05
  Last RMS-Density change    ...    8.5396e-06  Tolerance :   1.0000e-06
  Last DIIS Error            ...    1.2606e-05  Tolerance :   1.0000e-06

             **** THE GBW FILE WAS UPDATED (Scan_24.gbw) ****
             **** DENSITY FILE WAS UPDATED (Scan_24.scfp.tmp) ****
             **** ENERGY FILE WAS UPDATED (Scan_24.en.tmp) ****
----------------
ORBITAL ENERGIES
----------------

  NO   OCC          E(Eh)            E(eV) 
   0   2.0000     -10.535281      -286.6796 
   1   2.0000      -0.695132       -18.9155 
   2   2.0000      -0.328972        -8.9518 
   3   2.0000      -0.328520        -8.9395 
   4   2.0000      -0.328355        -8.9350 
   5   0.0000      -0.170330        -4.6349 
   6   0.0000      -0.088270        -2.4020 
   7   0.0000      -0.087553        -2.3824 
   8   0.0000      -0.087367        -2.3774 
   9   0.0000       0.609253        16.5786 
  10   0.0000       0.609303        16.5800 
  11   0.0000       0.610082        16.6012 
  12   0.0000       0.636921        17.3315 
  13   0.0000       0.900625        24.5072 
  14   0.0000       0.900781        24.5115 
  15   0.0000       0.901102        24.5202 
  16   0.0000       0.949727        25.8434 
  17   0.0000       1.720618        46.8204 
  18   0.0000       1.720833        46.8262 
  19   0.0000       1.724897        46.9368 
  20   0.0000       1.726050        46.9682 
  21   0.0000       1.726191        46.9720 

                    ********************************
                    * MULLIKEN POPULATION ANALYSIS *
                    ********************************

-----------------------
MULLIKEN ATOMIC CHARGES
-----------------------
   0 C :    0.071224
   1 H :   -0.017553
   2 H :   -0.017746
   3 H :   -0.017762
   4 H :   -0.018164
Sum of atomic charges:    0.0000000

--------------------------------
MULLIKEN REDUCED ORBITAL CHARGES
--------------------------------
  0 C s       :     3.966425  s :     3.966425
      pz      :     0.651692  p :     1.961459
      px      :     0.658326
      py      :     0.651441
      dz2     :     0.000222  d :     0.000892
      dxz     :     0.000098
      dyz     :     0.000198
      dx2y2   :     0.000276
      dxy     :     0.000098
  1 H s       :     1.017553  s :     1.017553
  2 H s       :     1.017746  s :     1.017746
  3 H s       :     1.017762  s :     1.017762
  4 H s       :     1.018164  s :     1.018164


                     *******************************
                     * LOEWDIN POPULATION ANALYSIS *
                     *******************************

----------------------
LOEWDIN ATOMIC CHARGES
----------------------
   0 C :    0.030622
   1 H :   -0.007359
   2 H :   -0.007621
   3 H :   -0.007636
   4 H :   -0.008007

-------------------------------
LOEWDIN REDUCED ORBITAL CHARGES
-------------------------------
  0 C s       :     3.960956  s :     3.960956
      pz      :     0.666983  p :     2.007319
      px      :     0.673605
      py      :     0.666730
      dz2     :     0.000274  d :     0.001102
      dxz     :     0.000121
      dyz     :     0.000245
      dx2y2   :     0.000340
      dxy     :     0.000121
  1 H s       :     1.007359  s :     1.007359
  2 H s       :     1.007621  s :     1.007621
  3 H s       :     1.007636  s :     1.007636
  4 H s       :     1.008007  s :     1.008007


                      *****************************
                      * MAYER POPULATION ANALYSIS *
                      *****************************

  NA   - Mulliken gross atomic population
  ZA   - Total nuclear charge
  QA   - Mulliken gross atomic charge
  VA   - Mayer's total valence
  BVA  - Mayer's bonded valence
  FA   - Mayer's free valence

  ATOM       NA         ZA         QA         VA         BVA        FA
  0 C      5.9288     6.0000     0.0712     2.7071     2.7071    -0.0000
  1 H      1.0176     1.0000    -0.0176     0.9997     0.9997    -0.0000
  2 H      1.0177     1.0000    -0.0177     0.9996     0.9996     0.0000
  3 H      1.0178     1.0000    -0.0178     0.9996     0.9996     0.0000
  4 H      1.0182     1.0000    -0.0182     0.9996     0.9996     0.0000

  Mayer bond orders larger than 0.1
B(  0-C ,  1-H ) :   0.6811 B(  0-C ,  2-H ) :   0.6742 B(  0-C ,  3-H ) :   0.6745 
B(  0-C ,  4-H ) :   0.6773 B(  1-H ,  2-H ) :   0.1070 B(  1-H ,  3-H ) :   0.1066 
B(  1-H ,  4-H ) :   0.1050 B(  2-H ,  3-H ) :   0.1099 B(  2-H ,  4-H ) :   0.1086 
B(  3-H ,  4-H ) :   0.1087 

-------
TIMINGS
-------

Total SCF time: 0 days 0 hours 0 min 3 sec 

Total time                  ....       3.686 sec
Sum of individual times     ....       3.535 sec  ( 95.9%)

Fock matrix formation       ....       3.243 sec  ( 88.0%)
  XC integration            ....       0.746 sec  ( 23.0% of F)
    Basis function eval.    ....       0.189 sec  ( 25.3% of XC)
    Density eval.           ....       0.032 sec  (  4.3% of XC)
    XC-Functional eval.     ....       0.245 sec  ( 32.9% of XC)
    XC-Potential eval.      ....       0.015 sec  (  2.0% of XC)
Diagonalization             ....       0.006 sec  (  0.2%)
Density matrix formation    ....       0.000 sec  (  0.0%)
Population analysis         ....       0.010 sec  (  0.3%)
Initial guess               ....       0.114 sec  (  3.1%)
Orbital Transformation      ....       0.000 sec  (  0.0%)
Orbital Orthonormalization  ....       0.000 sec  (  0.0%)
DIIS solution               ....       0.000 sec  (  0.0%)
Grid generation             ....       0.162 sec  (  4.4%)


-------------------------------------------------------------------------------
                          DFT DISPERSION CORRECTION                            
                                                                               
                              DFTD3 V3.1  Rev 1                                
                              USING zero damping                               
-------------------------------------------------------------------------------
The omegaB97X-D3 functional is recognized. Fit by Chai et al.
Active option DFTDOPT                   ...         3   

molecular C6(AA) [au] = 319.248122 


            DFT-D V3
 parameters
 s6 scaling factor         :     1.0000 
 rs6 scaling factor        :     1.2810 
 s8 scaling factor         :     1.0000 
 rs8 scaling factor        :     1.0940 
 Damping factor alpha6     :    14.0000 
 Damping factor alpha8     :    16.0000 
 ad hoc parameters k1-k3   :    16.0000     1.3333    -4.0000 

 Edisp/kcal,au: -0.537265101687  -0.000856186347 
 E6   /kcal   :  -0.140708181 
 E8   /kcal   :  -0.396556921 
 % E8         :  73.810288380 

-------------------------   ----------------
Dispersion correction           -0.000856186
-------------------------   ----------------


-------------------------   --------------------
FINAL SINGLE POINT ENERGY       -39.605370902974
-------------------------   --------------------


                            ***************************************
                            *     ORCA property calculations      *
                            ***************************************

                                    ---------------------
                                    Active property flags
                                    ---------------------
   (+) Dipole Moment


------------------------------------------------------------------------------
                       ORCA ELECTRIC PROPERTIES CALCULATION
------------------------------------------------------------------------------

Dipole Moment Calculation                       ... on
Quadrupole Moment Calculation                   ... off
Polarizability Calculation                      ... off
GBWName                                         ... Scan_24.gbw
Electron density file                           ... Scan_24.scfp.tmp

-------------
DIPOLE MOMENT
-------------
                                X             Y             Z
Electronic contribution:      0.00229      -0.00142       0.00166
Nuclear contribution   :     -0.00000      -0.00000       0.00000
                        -----------------------------------------
Total Dipole Moment    :      0.00229      -0.00142       0.00166
                        -----------------------------------------
Magnitude (a.u.)       :      0.00317
Magnitude (Debye)      :      0.00805


Timings for individual modules:

Sum of individual times         ...        4.026 sec (=   0.067 min)
GTO integral calculation        ...        0.315 sec (=   0.005 min)   7.8 %
SCF iterations                  ...        3.711 sec (=   0.062 min)  92.2 %
                             ****ORCA TERMINATED NORMALLY****
TOTAL RUN TIME: 0 days 0 hours 0 minutes 4 seconds 360 msec
