
                                 *****************
                                 * O   R   C   A *
                                 *****************

           --- An Ab Initio, DFT and Semiempirical electronic structure package ---

                  #######################################################
                  #                        -***-                        #
                  #  Department of molecular theory and spectroscopy    #
                  #              Directorship: Frank Neese              #
                  # Max Planck Institute for Chemical Energy Conversion #
                  #                  D-45470 Muelheim/Ruhr              #
                  #                       Germany                       #
                  #                                                     #
                  #                  All rights reserved                #
                  #                        -***-                        #
                  #######################################################


                         Program Version 4.0.0.2 - RELEASE -


 With contributions from (in alphabetic order):
   Daniel Aravena         : Magnetic Properties
   Michael Atanasov       : Ab Initio Ligand Field Theory
   Ute Becker             : Parallelization
   Martin Brehm           : Molecular dynamics
   Dmytro Bykov           : SCF Hessian
   Vijay G. Chilkuri      : MRCI spin determinant printing
   Dipayan Datta          : RHF DLPNO-CCSD density
   Achintya Kumar Dutta   : EOM-CC, STEOM-CC
   Dmitry Ganyushin       : Spin-Orbit,Spin-Spin,Magnetic field MRCI
   Yang Guo               : DLPNO-NEVPT2, CIM, IAO-localization
   Andreas Hansen         : Spin unrestricted coupled pair/coupled cluster methods
   Lee Huntington         : MR-EOM, pCC
   Robert Izsak           : Overlap fitted RIJCOSX, COSX-SCS-MP3, EOM
   Christian Kollmar      : KDIIS, OOCD, Brueckner-CCSD(T), CCSD density
   Simone Kossmann        : Meta GGA functionals, TD-DFT gradient, OOMP2, MP2 Hessian
   Martin Krupicka        : AUTO-CI
   Dagmar Lenk            : GEPOL surface
   Dimitrios Liakos       : Extrapolation schemes; parallel MDCI
   Dimitrios Manganas     : ROCIS; embedding schemes
   Dimitrios Pantazis     : SARC Basis sets
   Taras Petrenko         : DFT Hessian,TD-DFT gradient, ASA, ECA, R-Raman, ABS, FL, XAS/XES, NRVS
   Peter Pinski           : DLPNO-MP2
   Christoph Reimann      : Effective Core Potentials
   Marius Retegan         : Local ZFS, SOC
   Christoph Riplinger    : Optimizer, TS searches, QM/MM, DLPNO-CCSD(T), (RO)-DLPNO pert. Triples
   Tobias Risthaus        : Range-separated hybrids, TD-DFT gradient, RPA, STAB
   Michael Roemelt        : Restricted open shell CIS
   Masaaki Saitow         : Open-shell DLPNO
   Barbara Sandhoefer     : DKH picture change effects
   Kantharuban Sivalingam : CASSCF convergence, NEVPT2, FIC-MRCI
   Georgi Stoychev        : AutoAux
   Boris Wezisla          : Elementary symmetry handling
   Frank Wennmohs         : Technical directorship


 We gratefully acknowledge several colleagues who have allowed us to
 interface, adapt or use parts of their codes:
   Stefan Grimme, W. Hujo, H. Kruse,             : VdW corrections, initial TS optimization,
                  C. Bannwarth                     DFT functionals, gCP, sTDA/sTD-DF
   Ed Valeev                                     : LibInt (2-el integral package), F12 methods
   Garnet Chan, S. Sharma, J. Yang, R. Olivares  : DMRG
   Ulf Ekstrom                                   : XCFun DFT Library
   Mihaly Kallay                                 : mrcc  (arbitrary order and MRCC methods)
   Jiri Pittner, Ondrej Demel                    : Mk-CCSD
   Frank Weinhold                                : gennbo (NPA and NBO analysis)
   Christopher J. Cramer and Donald G. Truhlar   : smd solvation model


 Your calculation uses the libint2 library for the computation of 2-el integrals
 For citations please refer to: http://libint.valeyev.net

 This ORCA versions uses:
   CBLAS   interface :  Fast vector & matrix operations
   LAPACKE interface :  Fast linear algebra routines
   SCALAPACK package :  Parallel linear algebra routines


Your calculation utilizes the atom-pairwise dispersion correction
with the zero-damping scheme (D30)
Cite in your paper:
S.Grimme, J.Antony, S.Ehrlich and H.Krieg, J.Chem.Phys., 132, (2010), 154104 
   

XCFun DFT library Copyright 2009-2010 Ulf Ekstrom and contributors.
See http://admol.org/xcfun for more information. This is free soft-
ware; see the source code for copying conditions. There is ABSOLUTELY
NO WARRANTY; not even for MERCHANTABILITY or FITNESS FOR A PARTICULAR
PURPOSE. For details see the documentation. Scientific users of this 
library should cite U. Ekstrom, L. Visscher, R. Bast, A. J. Thorvald-
sen and K. Ruud; J.Chem.Theor.Comp. 2010, DOI: 10.1021/ct100117s
XCFun Version 0.99 
Your calculation utilizes the basis: 6-31G(d)
   H-He, Li-Ne : W. J. Hehre, R. Ditchfield and J.A. Pople, J. Chem. Phys. 56, 2257 (1972).
                 Note: He and Ne are unpublished basis sets taken from the Gaussian program.
                 Note: Li and B from J. D. Dill and J. A. Pople, J. Chem. Phys. 62, 2921 (1975).
   Na - Ar     : M. M. Francl, W. J. Pietro, W. J. Hehre, J. S. Binkley, M. S. Gordon, 
                 D. J. DeFrees and J. A. Pople, J. Chem. Phys. 77, 3654 (1982).
   K - Zn      : V. A. Rassolov, J. A. Pople, M. A. Ratner, and T. L. Windus, J. Chem. Phys. 109, 1223 (1998).

================================================================================
                                        WARNINGS
                       Please study these warnings very carefully!
================================================================================

Warning: TCutStore was < 0. Adjusted to Thresh (uncritical)

INFO   : the flag for use of LIBINT has been found!

================================================================================
                                       INPUT FILE
================================================================================
NAME = initial25.inp
|  1> ! WB97X-D3 6-31G(d) VerySlowConv
|  2> ! KDIIS NOSOSCF
|  3> %base "Scan_25"
|  4> 
|  5> %scf
|  6> maxiter 999
|  7> end
|  8> 
|  9> * xyz 0 1
| 10> C         -4.472707995063    1.925920486751    0.000001959135
| 11> H         -1.523449368141    1.925917006845   -0.000010314716
| 12> H         -5.455782384822    2.698493533292    2.671110733644
| 13> H         -5.455799162098   -0.773609609582   -0.666477933950
| 14> H         -5.455801089876    3.852878582694   -2.004614444114
| 15> **                         ****END OF INPUT****
================================================================================

                       ****************************
                       * Single Point Calculation *
                       ****************************

---------------------------------
CARTESIAN COORDINATES (ANGSTROEM)
---------------------------------
  C     -4.472708    1.925920    0.000002
  H     -1.523449    1.925917   -0.000010
  H     -5.455782    2.698494    2.671111
  H     -5.455799   -0.773610   -0.666478
  H     -5.455801    3.852879   -2.004614

----------------------------
CARTESIAN COORDINATES (A.U.)
----------------------------
  NO LB      ZA    FRAG     MASS         X           Y           Z
   0 C     6.0000    0    12.011   -8.452193    3.639462    0.000004
   1 H     1.0000    0     1.008   -2.878902    3.639456   -0.000019
   2 H     1.0000    0     1.008  -10.309935    5.099414    5.047668
   3 H     1.0000    0     1.008  -10.309966   -1.461910   -1.259461
   4 H     1.0000    0     1.008  -10.309970    7.280885   -3.788172

--------------------------------
INTERNAL COORDINATES (ANGSTROEM)
--------------------------------
 C      0   0   0     0.000000000000     0.00000000     0.00000000
 H      1   0   0     2.949258626950     0.00000000     0.00000000
 H      1   2   0     2.949258627740   109.47122493     0.00000000
 H      1   2   3     2.949258624061   109.47120003   240.00003351
 H      1   2   3     2.949258629006   109.47123745   120.00004243

---------------------------
INTERNAL COORDINATES (A.U.)
---------------------------
 C      0   0   0     0.000000000000     0.00000000     0.00000000
 H      1   0   0     5.573291103039     0.00000000     0.00000000
 H      1   2   0     5.573291104534   109.47122493     0.00000000
 H      1   2   3     5.573291097580   109.47120003   240.00003351
 H      1   2   3     5.573291106925   109.47123745   120.00004243

---------------------
BASIS SET INFORMATION
---------------------
There are 2 groups of distinct atoms

 Group   1 Type C   : 10s4p1d contracted to 3s2p1d pattern {631/31/1}
 Group   2 Type H   : 4s contracted to 2s pattern {31}

Atom   0C    basis set group =>   1
Atom   1H    basis set group =>   2
Atom   2H    basis set group =>   2
Atom   3H    basis set group =>   2
Atom   4H    basis set group =>   2
------------------------------------------------------------------------------
                           ORCA GTO INTEGRAL CALCULATION
------------------------------------------------------------------------------

                         BASIS SET STATISTICS AND STARTUP INFO

 # of primitive gaussian shells          ...   31
 # of primitive gaussian functions       ...   43
 # of contracted shells                  ...   14
 # of contracted basis functions         ...   22
 Highest angular momentum                ...    2
 Maximum contraction depth               ...    6
 Integral package used                   ... LIBINT
 Integral threshhold            Thresh   ...  1.000e-10
 Primitive cut-off              TCut     ...  1.000e-11


------------------------------ INTEGRAL EVALUATION ----------------------------


 * One electron integrals 
 Pre-screening matrix                    ... done
 Shell pair data                         ... done (   0.000 sec)

-------------------------------------------------------------------------------
                                 ORCA SCF
-------------------------------------------------------------------------------

------------
SCF SETTINGS
------------
Hamiltonian:
 Density Functional     Method          .... DFT(GTOs)
 Exchange Functional    Exchange        .... WB97X-D3
 Correlation Functional Correlation     .... WB97X-D3
 Gradients option       PostSCFGGA      .... off
 Hybrid DFT is turned on
   Fraction HF Exchange ScalHFX         ....  0.195728
   Scaling of DF-GGA-X  ScalDFX         ....  0.000000
   Scaling of DF-GGA-C  ScalDFC         ....  1.000000
   Scaling of DF-LDA-C  ScalLDAC        ....  1.000000
   Perturbative correction              ....  0.000000
 Long-range corrected/Screened/Range-Separated Hybrid DFT is turned on
   Amount of maximum screened exact exchange              ....  0.804272
   Range separation parameter mu (erf(mu*r12)/r12)        ....  0.250000


General Settings:
 Integral files         IntName         .... Scan_25
 Hartree-Fock type      HFTyp           .... RHF
 Total Charge           Charge          ....    0
 Multiplicity           Mult            ....    1
 Number of Electrons    NEL             ....   10
 Basis Dimension        Dim             ....   22
 Nuclear Repulsion      ENuc            ....      4.9655103426 Eh

Convergence Acceleration:
 DIIS                   CNVDIIS         .... on
   Start iteration      DIISMaxIt       ....     0
   Startup error        DIISStart       ....  0.200000
   # of expansion vecs  DIISMaxEq       ....     5
   Bias factor          DIISBfac        ....   1.050
   Max. coefficient     DIISMaxC        ....  10.000
 Newton-Raphson         CNVNR           .... off
 SOSCF                  CNVSOSCF        .... off
 Level Shifting         CNVShift        .... off
 Zerner damping         CNVZerner       .... off
 Static damping         CNVDamp         .... off
 Fernandez-Rico         CNVRico         .... off

SCF Procedure:
 Maximum # iterations   MaxIter         ....   999
 SCF integral mode      SCFMode         .... Direct
   Integral package                     .... LIBINT
 Reset frequeny         DirectResetFreq ....    20
 Integral Threshold     Thresh          ....  1.000e-10 Eh
 Primitive CutOff       TCut            ....  1.000e-11 Eh

Convergence Tolerance:
 Convergence Check Mode ConvCheckMode   .... All-Criteria
 Convergence forced     ConvForced      .... 0
 Energy Change          TolE            ....  1.000e-06 Eh
 Max Density Change     TolMaxP         ....  1.000e-05
 RMS Density Change     TolRMSP         ....  1.000e-06
 DIIS Error             TolErr          ....  1.000e-06


Diagonalization of the overlap matrix:
Smallest eigenvalue                        ... 1.694e-01
Time for diagonalization                   ...    0.000 sec
Threshold for overlap eigenvalues          ... 1.000e-08
Number of eigenvalues below threshold      ... 0
Time for construction of square roots      ...    0.005 sec
Total time needed                          ...    0.006 sec

-------------------
DFT GRID GENERATION
-------------------

General Integration Accuracy     IntAcc      ...  4.340
Radial Grid Type                 RadialGrid  ... Gauss-Chebyshev
Angular Grid (max. acc.)         AngularGrid ... Lebedev-110
Angular grid pruning method      GridPruning ... 3 (G Style)
Weight generation scheme         WeightScheme... Becke
Basis function cutoff            BFCut       ...    1.0000e-10
Integration weight cutoff        WCut        ...    1.0000e-14
Grids for H and He will be reduced by one unit

# of grid points (after initial pruning)     ...   4832 (   0.0 sec)
# of grid points (after weights+screening)   ...   4790 (   0.0 sec)
nearest neighbour list constructed           ...    0.0 sec
Grid point re-assignment to atoms done       ...    0.0 sec
Grid point division into batches done        ...    0.0 sec
Reduced shell lists constructed in    0.0 sec

Total number of grid points                  ...     4790
Total number of batches                      ...       78
Average number of points per batch           ...       61
Average number of grid points per atom       ...      958
Average number of shells per batch           ...    10.52 (75.14%)
Average number of basis functions per batch  ...    17.43 (79.23%)
Average number of large shells per batch     ...     7.80 (74.13%)
Average number of large basis fcns per batch ...    13.09 (75.09%)
Maximum spatial batch extension              ...  21.59, 25.60, 21.59 au
Average spatial batch extension              ...   6.02,  5.62,  5.37 au

Time for grid setup =    0.027 sec

------------------------------
INITIAL GUESS: MODEL POTENTIAL
------------------------------
Loading Hartree-Fock densities                     ... done
Calculating cut-offs                               ... done
Setting up the integral package                    ... done
Initializing the effective Hamiltonian             ... done
Starting the Coulomb interaction                   ... done (   0.0 sec)
Reading the grid                                   ... done
Mapping shells                                     ... done
Starting the XC term evaluation                    ... done (   0.0 sec)
  promolecular density results
     # of electrons  =      9.997515097
     EX              =     -5.948791562
     EC              =     -0.219282295
     EX+EC           =     -6.168073857
Transforming the Hamiltonian                       ... done (   0.0 sec)
Diagonalizing the Hamiltonian                      ... done (   0.0 sec)
Back transforming the eigenvectors                 ... done (   0.0 sec)
Now organizing SCF variables                       ... done
                      ------------------
                      INITIAL GUESS DONE (   0.1 sec)
                      ------------------
--------------
SCF ITERATIONS
--------------
ITER       Energy         Delta-E        Max-DP      RMS-DP      [F,P]   Gradient Norm
               ***  Starting incremental Fock matrix formation  ***
                             ****Resetting KDIIS****
                             ****Turning on KDIIS(Cayley)****
  0    -39.3179595458   0.000000000000 0.03532724  0.00347919  0.1362230   0.133989760
  1    -39.3635895719  -0.045630026133 0.04805394  0.00855880  0.1299269   0.123436844
  2    -39.4701020602  -0.106512488263 0.11091456  0.01873506  0.1033858   0.093094799
  3    -39.5752438861  -0.105141825908 0.03700653  0.00378153  0.0112258   0.012528614
  4    -39.5762371340  -0.000993247908 0.01475407  0.00209770  0.0081388   0.006366239
  5    -39.5750949069   0.001142227089 0.04482533  0.00483506  0.0166512   0.012990438
  6    -39.5735875048   0.001507402156 0.03852504  0.00418166  0.0156368   0.011324383
  7    -39.5764240531  -0.002836548319 0.05191132  0.00591870  0.0091164   0.006417413
  8    -39.5775605462  -0.001136493135 0.01390033  0.00149170  0.0024357   0.002138822
  9    -39.5776272554  -0.000066709181 0.00298958  0.00034349  0.0010694   0.000900578
 10    -39.5776384796  -0.000011224148 0.00065443  0.00008306  0.0000871   0.000082487
                          ***Energy convergence achieved***
 11    -39.5776384193   0.000000060286 0.00065485  0.00006950  0.0001321   0.000111207
 12    -39.5776387407  -0.000000321388 0.00040270  0.00005723  0.0000343   0.000026811
 13    -39.5776388727  -0.000000132022 0.00015736  0.00002354  0.0000227   0.000020419
 14    -39.5776389034  -0.000000030755 0.00008738  0.00001216  0.0000094   0.000008287

            ***Energy convergence in two consecutive cycles with***
                    ***'reasonable' density convergence***
                       *** signaling convergence ***

                    *** KDIIS BlockDiag ( 0.000 sec) ***

               *****************************************************
               *                     SUCCESS                       *
               *           SCF CONVERGED AFTER  15 CYCLES          *
               *****************************************************

Setting up the final grid:

General Integration Accuracy     IntAcc      ...  4.670
Radial Grid Type                 RadialGrid  ... Gauss-Chebyshev
Angular Grid (max. acc.)         AngularGrid ... Lebedev-302
Angular grid pruning method      GridPruning ... 3 (G Style)
Weight generation scheme         WeightScheme... Becke
Basis function cutoff            BFCut       ...    1.0000e-10
Integration weight cutoff        WCut        ...    1.0000e-14
Grids for H and He will be reduced by one unit

# of grid points (after initial pruning)     ...  19788 (   0.0 sec)
# of grid points (after weights+screening)   ...  19652 (   0.0 sec)
nearest neighbour list constructed           ...    0.0 sec
Grid point re-assignment to atoms done       ...    0.0 sec
Grid point division into batches done        ...    0.0 sec
Reduced shell lists constructed in    0.1 sec

Total number of grid points                  ...    19652
Total number of batches                      ...      310
Average number of points per batch           ...       63
Average number of grid points per atom       ...     3930
Average number of shells per batch           ...     9.53 (68.10%)
Average number of basis functions per batch  ...    15.88 (72.19%)
Average number of large shells per batch     ...     6.46 (67.79%)
Average number of large basis fcns per batch ...    10.77 (67.83%)
Maximum spatial batch extension              ...  20.64, 19.63, 20.64 au
Average spatial batch extension              ...   3.76,  3.56,  3.49 au

Final grid set up in    0.1 sec
Final integration                            ... done (   0.1 sec)
Change in XC energy                          ...    -0.000554524
Integrated number of electrons               ...    10.000010063
Previous integrated no of electrons          ...    10.000313375

----------------
TOTAL SCF ENERGY
----------------

Total Energy       :          -39.57819343 Eh           -1076.97740 eV

Components:
Nuclear Repulsion  :            4.96551034 Eh             135.11841 eV
Electronic Energy  :          -44.54370377 Eh           -1212.09580 eV
One Electron Energy:          -62.05969108 Eh           -1688.73005 eV
Two Electron Energy:           17.51598730 Eh             476.63425 eV

Virial components:
Potential Energy   :          -78.46896672 Eh           -2135.24914 eV
Kinetic Energy     :           38.89077329 Eh            1058.27174 eV
Virial Ratio       :            2.01767566


DFT components:
N(Alpha)           :        5.000005031432 electrons
N(Beta)            :        5.000005031432 electrons
N(Total)           :       10.000010062864 electrons
E(XC)              :       -3.939196540247 Eh       

---------------
SCF CONVERGENCE
---------------

  Last Energy change         ...   -5.2049e-09  Tolerance :   1.0000e-06
  Last MAX-Density change    ...    1.5171e-05  Tolerance :   1.0000e-05
  Last RMS-Density change    ...    2.4017e-06  Tolerance :   1.0000e-06
  Last DIIS Error            ...    2.9460e-06  Tolerance :   1.0000e-06

             **** THE GBW FILE WAS UPDATED (Scan_25.gbw) ****
             **** DENSITY FILE WAS UPDATED (Scan_25.scfp.tmp) ****
             **** ENERGY FILE WAS UPDATED (Scan_25.en.tmp) ****
----------------
ORBITAL ENERGIES
----------------

  NO   OCC          E(Eh)            E(eV) 
   0   2.0000     -10.537670      -286.7446 
   1   2.0000      -0.698492       -19.0069 
   2   2.0000      -0.324533        -8.8310 
   3   2.0000      -0.324014        -8.8169 
   4   2.0000      -0.323855        -8.8126 
   5   0.0000      -0.173788        -4.7290 
   6   0.0000      -0.096458        -2.6248 
   7   0.0000      -0.095614        -2.6018 
   8   0.0000      -0.095429        -2.5968 
   9   0.0000       0.600731        16.3467 
  10   0.0000       0.600825        16.3493 
  11   0.0000       0.601340        16.3633 
  12   0.0000       0.629887        17.1401 
  13   0.0000       0.898431        24.4476 
  14   0.0000       0.898832        24.4585 
  15   0.0000       0.898996        24.4629 
  16   0.0000       0.938851        25.5474 
  17   0.0000       1.716289        46.7026 
  18   0.0000       1.716472        46.7076 
  19   0.0000       1.719190        46.7815 
  20   0.0000       1.720112        46.8066 
  21   0.0000       1.720190        46.8088 

                    ********************************
                    * MULLIKEN POPULATION ANALYSIS *
                    ********************************

-----------------------
MULLIKEN ATOMIC CHARGES
-----------------------
   0 C :    0.084965
   1 H :   -0.020562
   2 H :   -0.021294
   3 H :   -0.021351
   4 H :   -0.021758
Sum of atomic charges:   -0.0000000

--------------------------------
MULLIKEN REDUCED ORBITAL CHARGES
--------------------------------
  0 C s       :     3.973875  s :     3.973875
      pz      :     0.644134  p :     1.940446
      px      :     0.652595
      py      :     0.643717
      dz2     :     0.000178  d :     0.000714
      dxz     :     0.000078
      dyz     :     0.000158
      dx2y2   :     0.000221
      dxy     :     0.000078
  1 H s       :     1.020562  s :     1.020562
  2 H s       :     1.021294  s :     1.021294
  3 H s       :     1.021351  s :     1.021351
  4 H s       :     1.021758  s :     1.021758


                     *******************************
                     * LOEWDIN POPULATION ANALYSIS *
                     *******************************

----------------------
LOEWDIN ATOMIC CHARGES
----------------------
   0 C :    0.050995
   1 H :   -0.012044
   2 H :   -0.012820
   3 H :   -0.012874
   4 H :   -0.013257

-------------------------------
LOEWDIN REDUCED ORBITAL CHARGES
-------------------------------
  0 C s       :     3.970258  s :     3.970258
      pz      :     0.656623  p :     1.977896
      px      :     0.665067
      py      :     0.656206
      dz2     :     0.000212  d :     0.000852
      dxz     :     0.000094
      dyz     :     0.000189
      dx2y2   :     0.000263
      dxy     :     0.000094
  1 H s       :     1.012044  s :     1.012044
  2 H s       :     1.012820  s :     1.012820
  3 H s       :     1.012874  s :     1.012874
  4 H s       :     1.013257  s :     1.013257


                      *****************************
                      * MAYER POPULATION ANALYSIS *
                      *****************************

  NA   - Mulliken gross atomic population
  ZA   - Total nuclear charge
  QA   - Mulliken gross atomic charge
  VA   - Mayer's total valence
  BVA  - Mayer's bonded valence
  FA   - Mayer's free valence

  ATOM       NA         ZA         QA         VA         BVA        FA
  0 C      5.9150     6.0000     0.0850     2.6778     2.6778    -0.0000
  1 H      1.0206     1.0000    -0.0206     0.9996     0.9996    -0.0000
  2 H      1.0213     1.0000    -0.0213     0.9996     0.9996    -0.0000
  3 H      1.0214     1.0000    -0.0214     0.9996     0.9996    -0.0000
  4 H      1.0218     1.0000    -0.0218     0.9995     0.9995     0.0000

  Mayer bond orders larger than 0.1
B(  0-C ,  1-H ) :   0.6748 B(  0-C ,  2-H ) :   0.6668 B(  0-C ,  3-H ) :   0.6668 
B(  0-C ,  4-H ) :   0.6695 B(  1-H ,  2-H ) :   0.1089 B(  1-H ,  3-H ) :   0.1087 
B(  1-H ,  4-H ) :   0.1072 B(  2-H ,  3-H ) :   0.1125 B(  2-H ,  4-H ) :   0.1114 
B(  3-H ,  4-H ) :   0.1115 

-------
TIMINGS
-------

Total SCF time: 0 days 0 hours 0 min 4 sec 

Total time                  ....       4.638 sec
Sum of individual times     ....       4.453 sec  ( 96.0%)

Fock matrix formation       ....       4.156 sec  ( 89.6%)
  XC integration            ....       0.910 sec  ( 21.9% of F)
    Basis function eval.    ....       0.221 sec  ( 24.3% of XC)
    Density eval.           ....       0.039 sec  (  4.3% of XC)
    XC-Functional eval.     ....       0.309 sec  ( 33.9% of XC)
    XC-Potential eval.      ....       0.017 sec  (  1.9% of XC)
Diagonalization             ....       0.018 sec  (  0.4%)
Density matrix formation    ....       0.000 sec  (  0.0%)
Population analysis         ....       0.011 sec  (  0.2%)
Initial guess               ....       0.109 sec  (  2.4%)
Orbital Transformation      ....       0.000 sec  (  0.0%)
Orbital Orthonormalization  ....       0.000 sec  (  0.0%)
DIIS solution               ....       0.000 sec  (  0.0%)
Grid generation             ....       0.159 sec  (  3.4%)


-------------------------------------------------------------------------------
                          DFT DISPERSION CORRECTION                            
                                                                               
                              DFTD3 V3.1  Rev 1                                
                              USING zero damping                               
-------------------------------------------------------------------------------
The omegaB97X-D3 functional is recognized. Fit by Chai et al.
Active option DFTDOPT                   ...         3   

molecular C6(AA) [au] = 319.252033 


            DFT-D V3
 parameters
 s6 scaling factor         :     1.0000 
 rs6 scaling factor        :     1.2810 
 s8 scaling factor         :     1.0000 
 rs8 scaling factor        :     1.0940 
 Damping factor alpha6     :    14.0000 
 Damping factor alpha8     :    16.0000 
 ad hoc parameters k1-k3   :    16.0000     1.3333    -4.0000 

 Edisp/kcal,au: -0.577949906988  -0.000921021704 
 E6   /kcal   :  -0.153074578 
 E8   /kcal   :  -0.424875329 
 % E8         :  73.514213549 

-------------------------   ----------------
Dispersion correction           -0.000921022
-------------------------   ----------------


-------------------------   --------------------
FINAL SINGLE POINT ENERGY       -39.579114453867
-------------------------   --------------------


                            ***************************************
                            *     ORCA property calculations      *
                            ***************************************

                                    ---------------------
                                    Active property flags
                                    ---------------------
   (+) Dipole Moment


------------------------------------------------------------------------------
                       ORCA ELECTRIC PROPERTIES CALCULATION
------------------------------------------------------------------------------

Dipole Moment Calculation                       ... on
Quadrupole Moment Calculation                   ... off
Polarizability Calculation                      ... off
GBWName                                         ... Scan_25.gbw
Electron density file                           ... Scan_25.scfp.tmp

-------------
DIPOLE MOMENT
-------------
                                X             Y             Z
Electronic contribution:      0.00499      -0.00157       0.00208
Nuclear contribution   :     -0.00000      -0.00000       0.00000
                        -----------------------------------------
Total Dipole Moment    :      0.00499      -0.00157       0.00208
                        -----------------------------------------
Magnitude (a.u.)       :      0.00563
Magnitude (Debye)      :      0.01430


Timings for individual modules:

Sum of individual times         ...        4.959 sec (=   0.083 min)
GTO integral calculation        ...        0.297 sec (=   0.005 min)   6.0 %
SCF iterations                  ...        4.662 sec (=   0.078 min)  94.0 %
                             ****ORCA TERMINATED NORMALLY****
TOTAL RUN TIME: 0 days 0 hours 0 minutes 5 seconds 282 msec
