
                                 *****************
                                 * O   R   C   A *
                                 *****************

           --- An Ab Initio, DFT and Semiempirical electronic structure package ---

                  #######################################################
                  #                        -***-                        #
                  #  Department of molecular theory and spectroscopy    #
                  #              Directorship: Frank Neese              #
                  # Max Planck Institute for Chemical Energy Conversion #
                  #                  D-45470 Muelheim/Ruhr              #
                  #                       Germany                       #
                  #                                                     #
                  #                  All rights reserved                #
                  #                        -***-                        #
                  #######################################################


                         Program Version 4.0.0.2 - RELEASE -


 With contributions from (in alphabetic order):
   Daniel Aravena         : Magnetic Properties
   Michael Atanasov       : Ab Initio Ligand Field Theory
   Ute Becker             : Parallelization
   Martin Brehm           : Molecular dynamics
   Dmytro Bykov           : SCF Hessian
   Vijay G. Chilkuri      : MRCI spin determinant printing
   Dipayan Datta          : RHF DLPNO-CCSD density
   Achintya Kumar Dutta   : EOM-CC, STEOM-CC
   Dmitry Ganyushin       : Spin-Orbit,Spin-Spin,Magnetic field MRCI
   Yang Guo               : DLPNO-NEVPT2, CIM, IAO-localization
   Andreas Hansen         : Spin unrestricted coupled pair/coupled cluster methods
   Lee Huntington         : MR-EOM, pCC
   Robert Izsak           : Overlap fitted RIJCOSX, COSX-SCS-MP3, EOM
   Christian Kollmar      : KDIIS, OOCD, Brueckner-CCSD(T), CCSD density
   Simone Kossmann        : Meta GGA functionals, TD-DFT gradient, OOMP2, MP2 Hessian
   Martin Krupicka        : AUTO-CI
   Dagmar Lenk            : GEPOL surface
   Dimitrios Liakos       : Extrapolation schemes; parallel MDCI
   Dimitrios Manganas     : ROCIS; embedding schemes
   Dimitrios Pantazis     : SARC Basis sets
   Taras Petrenko         : DFT Hessian,TD-DFT gradient, ASA, ECA, R-Raman, ABS, FL, XAS/XES, NRVS
   Peter Pinski           : DLPNO-MP2
   Christoph Reimann      : Effective Core Potentials
   Marius Retegan         : Local ZFS, SOC
   Christoph Riplinger    : Optimizer, TS searches, QM/MM, DLPNO-CCSD(T), (RO)-DLPNO pert. Triples
   Tobias Risthaus        : Range-separated hybrids, TD-DFT gradient, RPA, STAB
   Michael Roemelt        : Restricted open shell CIS
   Masaaki Saitow         : Open-shell DLPNO
   Barbara Sandhoefer     : DKH picture change effects
   Kantharuban Sivalingam : CASSCF convergence, NEVPT2, FIC-MRCI
   Georgi Stoychev        : AutoAux
   Boris Wezisla          : Elementary symmetry handling
   Frank Wennmohs         : Technical directorship


 We gratefully acknowledge several colleagues who have allowed us to
 interface, adapt or use parts of their codes:
   Stefan Grimme, W. Hujo, H. Kruse,             : VdW corrections, initial TS optimization,
                  C. Bannwarth                     DFT functionals, gCP, sTDA/sTD-DF
   Ed Valeev                                     : LibInt (2-el integral package), F12 methods
   Garnet Chan, S. Sharma, J. Yang, R. Olivares  : DMRG
   Ulf Ekstrom                                   : XCFun DFT Library
   Mihaly Kallay                                 : mrcc  (arbitrary order and MRCC methods)
   Jiri Pittner, Ondrej Demel                    : Mk-CCSD
   Frank Weinhold                                : gennbo (NPA and NBO analysis)
   Christopher J. Cramer and Donald G. Truhlar   : smd solvation model


 Your calculation uses the libint2 library for the computation of 2-el integrals
 For citations please refer to: http://libint.valeyev.net

 This ORCA versions uses:
   CBLAS   interface :  Fast vector & matrix operations
   LAPACKE interface :  Fast linear algebra routines
   SCALAPACK package :  Parallel linear algebra routines


Your calculation utilizes the atom-pairwise dispersion correction
with the zero-damping scheme (D30)
Cite in your paper:
S.Grimme, J.Antony, S.Ehrlich and H.Krieg, J.Chem.Phys., 132, (2010), 154104 
   

XCFun DFT library Copyright 2009-2010 Ulf Ekstrom and contributors.
See http://admol.org/xcfun for more information. This is free soft-
ware; see the source code for copying conditions. There is ABSOLUTELY
NO WARRANTY; not even for MERCHANTABILITY or FITNESS FOR A PARTICULAR
PURPOSE. For details see the documentation. Scientific users of this 
library should cite U. Ekstrom, L. Visscher, R. Bast, A. J. Thorvald-
sen and K. Ruud; J.Chem.Theor.Comp. 2010, DOI: 10.1021/ct100117s
XCFun Version 0.99 
Your calculation utilizes the basis: 6-31G(d)
   H-He, Li-Ne : W. J. Hehre, R. Ditchfield and J.A. Pople, J. Chem. Phys. 56, 2257 (1972).
                 Note: He and Ne are unpublished basis sets taken from the Gaussian program.
                 Note: Li and B from J. D. Dill and J. A. Pople, J. Chem. Phys. 62, 2921 (1975).
   Na - Ar     : M. M. Francl, W. J. Pietro, W. J. Hehre, J. S. Binkley, M. S. Gordon, 
                 D. J. DeFrees and J. A. Pople, J. Chem. Phys. 77, 3654 (1982).
   K - Zn      : V. A. Rassolov, J. A. Pople, M. A. Ratner, and T. L. Windus, J. Chem. Phys. 109, 1223 (1998).

================================================================================
                                        WARNINGS
                       Please study these warnings very carefully!
================================================================================

Warning: TCutStore was < 0. Adjusted to Thresh (uncritical)

INFO   : the flag for use of LIBINT has been found!

================================================================================
                                       INPUT FILE
================================================================================
NAME = initial26.inp
|  1> ! WB97X-D3 6-31G(d) VerySlowConv
|  2> ! KDIIS NOSOSCF
|  3> %base "Scan_26"
|  4> 
|  5> %scf
|  6> maxiter 999
|  7> end
|  8> 
|  9> * xyz 0 1
| 10> C         -4.472707994882    1.925920511386    0.000001953259
| 11> H         -1.419518347041    1.925916904123   -0.000010746377
| 12> H         -5.490425639491    2.725718788245    2.765239835914
| 13> H         -5.490443014794   -0.868740246303   -0.689964487039
| 14> H         -5.490445003792    3.920784042549   -2.075256555757
| 15> **                         ****END OF INPUT****
================================================================================

                       ****************************
                       * Single Point Calculation *
                       ****************************

---------------------------------
CARTESIAN COORDINATES (ANGSTROEM)
---------------------------------
  C     -4.472708    1.925921    0.000002
  H     -1.419518    1.925917   -0.000011
  H     -5.490426    2.725719    2.765240
  H     -5.490443   -0.868740   -0.689964
  H     -5.490445    3.920784   -2.075257

----------------------------
CARTESIAN COORDINATES (A.U.)
----------------------------
  NO LB      ZA    FRAG     MASS         X           Y           Z
   0 C     6.0000    0    12.011   -8.452193    3.639462    0.000004
   1 H     1.0000    0     1.008   -2.682501    3.639456   -0.000020
   2 H     1.0000    0     1.008  -10.375401    5.150862    5.225546
   3 H     1.0000    0     1.008  -10.375434   -1.641681   -1.303844
   4 H     1.0000    0     1.008  -10.375437    7.409208   -3.921667

--------------------------------
INTERNAL COORDINATES (ANGSTROEM)
--------------------------------
 C      0   0   0     0.000000000000     0.00000000     0.00000000
 H      1   0   0     3.053189647870     0.00000000     0.00000000
 H      1   2   0     3.053189649446   109.47122478     0.00000000
 H      1   2   3     3.053189645282   109.47120006   240.00003426
 H      1   2   3     3.053189644702   109.47123760   120.00004310

---------------------------
INTERNAL COORDINATES (A.U.)
---------------------------
 C      0   0   0     0.000000000000     0.00000000     0.00000000
 H      1   0   0     5.769692269397     0.00000000     0.00000000
 H      1   2   0     5.769692272376   109.47122478     0.00000000
 H      1   2   3     5.769692264508   109.47120006   240.00003426
 H      1   2   3     5.769692263410   109.47123760   120.00004310

---------------------
BASIS SET INFORMATION
---------------------
There are 2 groups of distinct atoms

 Group   1 Type C   : 10s4p1d contracted to 3s2p1d pattern {631/31/1}
 Group   2 Type H   : 4s contracted to 2s pattern {31}

Atom   0C    basis set group =>   1
Atom   1H    basis set group =>   2
Atom   2H    basis set group =>   2
Atom   3H    basis set group =>   2
Atom   4H    basis set group =>   2
------------------------------------------------------------------------------
                           ORCA GTO INTEGRAL CALCULATION
------------------------------------------------------------------------------

                         BASIS SET STATISTICS AND STARTUP INFO

 # of primitive gaussian shells          ...   31
 # of primitive gaussian functions       ...   43
 # of contracted shells                  ...   14
 # of contracted basis functions         ...   22
 Highest angular momentum                ...    2
 Maximum contraction depth               ...    6
 Integral package used                   ... LIBINT
 Integral threshhold            Thresh   ...  1.000e-10
 Primitive cut-off              TCut     ...  1.000e-11


------------------------------ INTEGRAL EVALUATION ----------------------------


 * One electron integrals 
 Pre-screening matrix                    ... done
 Shell pair data                         ... done (   0.000 sec)

-------------------------------------------------------------------------------
                                 ORCA SCF
-------------------------------------------------------------------------------

------------
SCF SETTINGS
------------
Hamiltonian:
 Density Functional     Method          .... DFT(GTOs)
 Exchange Functional    Exchange        .... WB97X-D3
 Correlation Functional Correlation     .... WB97X-D3
 Gradients option       PostSCFGGA      .... off
 Hybrid DFT is turned on
   Fraction HF Exchange ScalHFX         ....  0.195728
   Scaling of DF-GGA-X  ScalDFX         ....  0.000000
   Scaling of DF-GGA-C  ScalDFC         ....  1.000000
   Scaling of DF-LDA-C  ScalLDAC        ....  1.000000
   Perturbative correction              ....  0.000000
 Long-range corrected/Screened/Range-Separated Hybrid DFT is turned on
   Amount of maximum screened exact exchange              ....  0.804272
   Range separation parameter mu (erf(mu*r12)/r12)        ....  0.250000


General Settings:
 Integral files         IntName         .... Scan_26
 Hartree-Fock type      HFTyp           .... RHF
 Total Charge           Charge          ....    0
 Multiplicity           Mult            ....    1
 Number of Electrons    NEL             ....   10
 Basis Dimension        Dim             ....   22
 Nuclear Repulsion      ENuc            ....      4.7964836479 Eh

Convergence Acceleration:
 DIIS                   CNVDIIS         .... on
   Start iteration      DIISMaxIt       ....     0
   Startup error        DIISStart       ....  0.200000
   # of expansion vecs  DIISMaxEq       ....     5
   Bias factor          DIISBfac        ....   1.050
   Max. coefficient     DIISMaxC        ....  10.000
 Newton-Raphson         CNVNR           .... off
 SOSCF                  CNVSOSCF        .... off
 Level Shifting         CNVShift        .... off
 Zerner damping         CNVZerner       .... off
 Static damping         CNVDamp         .... off
 Fernandez-Rico         CNVRico         .... off

SCF Procedure:
 Maximum # iterations   MaxIter         ....   999
 SCF integral mode      SCFMode         .... Direct
   Integral package                     .... LIBINT
 Reset frequeny         DirectResetFreq ....    20
 Integral Threshold     Thresh          ....  1.000e-10 Eh
 Primitive CutOff       TCut            ....  1.000e-11 Eh

Convergence Tolerance:
 Convergence Check Mode ConvCheckMode   .... All-Criteria
 Convergence forced     ConvForced      .... 0
 Energy Change          TolE            ....  1.000e-06 Eh
 Max Density Change     TolMaxP         ....  1.000e-05
 RMS Density Change     TolRMSP         ....  1.000e-06
 DIIS Error             TolErr          ....  1.000e-06


Diagonalization of the overlap matrix:
Smallest eigenvalue                        ... 1.735e-01
Time for diagonalization                   ...    0.000 sec
Threshold for overlap eigenvalues          ... 1.000e-08
Number of eigenvalues below threshold      ... 0
Time for construction of square roots      ...    0.005 sec
Total time needed                          ...    0.005 sec

-------------------
DFT GRID GENERATION
-------------------

General Integration Accuracy     IntAcc      ...  4.340
Radial Grid Type                 RadialGrid  ... Gauss-Chebyshev
Angular Grid (max. acc.)         AngularGrid ... Lebedev-110
Angular grid pruning method      GridPruning ... 3 (G Style)
Weight generation scheme         WeightScheme... Becke
Basis function cutoff            BFCut       ...    1.0000e-10
Integration weight cutoff        WCut        ...    1.0000e-14
Grids for H and He will be reduced by one unit

# of grid points (after initial pruning)     ...   4832 (   0.0 sec)
# of grid points (after weights+screening)   ...   4794 (   0.0 sec)
nearest neighbour list constructed           ...    0.0 sec
Grid point re-assignment to atoms done       ...    0.0 sec
Grid point division into batches done        ...    0.0 sec
Reduced shell lists constructed in    0.0 sec

Total number of grid points                  ...     4794
Total number of batches                      ...       78
Average number of points per batch           ...       61
Average number of grid points per atom       ...      959
Average number of shells per batch           ...    10.34 (73.87%)
Average number of basis functions per batch  ...    17.15 (77.96%)
Average number of large shells per batch     ...     7.65 (73.93%)
Average number of large basis fcns per batch ...    12.91 (75.28%)
Maximum spatial batch extension              ...  21.59, 25.60, 21.59 au
Average spatial batch extension              ...   6.11,  5.71,  5.46 au

Time for grid setup =    0.028 sec

------------------------------
INITIAL GUESS: MODEL POTENTIAL
------------------------------
Loading Hartree-Fock densities                     ... done
Calculating cut-offs                               ... done
Setting up the integral package                    ... done
Initializing the effective Hamiltonian             ... done
Starting the Coulomb interaction                   ... done (   0.0 sec)
Reading the grid                                   ... done
Mapping shells                                     ... done
Starting the XC term evaluation                    ... done (   0.0 sec)
  promolecular density results
     # of electrons  =      9.997404551
     EX              =     -5.947942566
     EC              =     -0.218637376
     EX+EC           =     -6.166579942
Transforming the Hamiltonian                       ... done (   0.0 sec)
Diagonalizing the Hamiltonian                      ... done (   0.0 sec)
Back transforming the eigenvectors                 ... done (   0.0 sec)
Now organizing SCF variables                       ... done
                      ------------------
                      INITIAL GUESS DONE (   0.2 sec)
                      ------------------
--------------
SCF ITERATIONS
--------------
ITER       Energy         Delta-E        Max-DP      RMS-DP      [F,P]   Gradient Norm
               ***  Starting incremental Fock matrix formation  ***
                             ****Resetting KDIIS****
                             ****Turning on KDIIS(Cayley)****
  0    -39.2385176397   0.000000000000 0.03811167  0.00367300  0.1450783   0.139241905
  1    -39.2880350218  -0.049517382173 0.05430804  0.00906051  0.1342558   0.130042742
  2    -39.4087863568  -0.120751334954 0.13555497  0.02055493  0.1134333   0.103504401
  3    -39.5476045804  -0.138818223628 0.06053277  0.00803211  0.0113551   0.014405064
  4    -39.5399847856   0.007619794792 0.01807460  0.00202283  0.0375232   0.030310082
  5    -39.5370455748   0.002939210841 0.14198899  0.01644375  0.0402411   0.032591571
  6    -39.5518688252  -0.014823250385 0.01514373  0.00191484  0.0051926   0.005337675
  7    -39.5526097089  -0.000740883708 0.02307364  0.00256277  0.0028924   0.003390237
  8    -39.5533096575  -0.000699948655 0.02909045  0.00322590  0.0020896   0.001982315
  9    -39.5535831763  -0.000273518742 0.00219077  0.00029545  0.0006931   0.000717987
 10    -39.5535912638  -0.000008087483 0.00110422  0.00012403  0.0003038   0.000252516
 11    -39.5535924247  -0.000001160970 0.00038467  0.00004347  0.0000602   0.000047248
                          ***Energy convergence achieved***
 12    -39.5535926479  -0.000000223182 0.00032992  0.00003589  0.0000383   0.000032696
 13    -39.5535927526  -0.000000104672 0.00018744  0.00002368  0.0000202   0.000021329

            ***Energy convergence in two consecutive cycles with***
                    ***'reasonable' density convergence***
                       *** signaling convergence ***

                    *** KDIIS BlockDiag ( 0.000 sec) ***

               *****************************************************
               *                     SUCCESS                       *
               *           SCF CONVERGED AFTER  14 CYCLES          *
               *****************************************************

Setting up the final grid:

General Integration Accuracy     IntAcc      ...  4.670
Radial Grid Type                 RadialGrid  ... Gauss-Chebyshev
Angular Grid (max. acc.)         AngularGrid ... Lebedev-302
Angular grid pruning method      GridPruning ... 3 (G Style)
Weight generation scheme         WeightScheme... Becke
Basis function cutoff            BFCut       ...    1.0000e-10
Integration weight cutoff        WCut        ...    1.0000e-14
Grids for H and He will be reduced by one unit

# of grid points (after initial pruning)     ...  19788 (   0.0 sec)
# of grid points (after weights+screening)   ...  19660 (   0.0 sec)
nearest neighbour list constructed           ...    0.0 sec
Grid point re-assignment to atoms done       ...    0.0 sec
Grid point division into batches done        ...    0.1 sec
Reduced shell lists constructed in    0.1 sec

Total number of grid points                  ...    19660
Total number of batches                      ...      310
Average number of points per batch           ...       63
Average number of grid points per atom       ...     3932
Average number of shells per batch           ...     9.41 (67.25%)
Average number of basis functions per batch  ...    15.61 (70.97%)
Average number of large shells per batch     ...     6.29 (66.80%)
Average number of large basis fcns per batch ...    10.50 (67.22%)
Maximum spatial batch extension              ...  20.64, 19.63, 20.64 au
Average spatial batch extension              ...   3.81,  3.59,  3.59 au

Final grid set up in    0.1 sec
Final integration                            ... done (   0.1 sec)
Change in XC energy                          ...    -0.000490079
Integrated number of electrons               ...    10.000016007
Previous integrated no of electrons          ...    10.000316434

----------------
TOTAL SCF ENERGY
----------------

Total Energy       :          -39.55408286 Eh           -1076.32131 eV

Components:
Nuclear Repulsion  :            4.79648365 Eh             130.51896 eV
Electronic Energy  :          -44.35056651 Eh           -1206.84027 eV
One Electron Energy:          -61.68947818 Eh           -1678.65604 eV
Two Electron Energy:           17.33891167 Eh             471.81577 eV

Virial components:
Potential Energy   :          -78.47853337 Eh           -2135.50946 eV
Kinetic Energy     :           38.92445050 Eh            1059.18815 eV
Virial Ratio       :            2.01617575


DFT components:
N(Alpha)           :        5.000008003565 electrons
N(Beta)            :        5.000008003565 electrons
N(Total)           :       10.000016007129 electrons
E(XC)              :       -3.939137418851 Eh       

---------------
SCF CONVERGENCE
---------------

  Last Energy change         ...   -3.3018e-08  Tolerance :   1.0000e-06
  Last MAX-Density change    ...    6.5215e-05  Tolerance :   1.0000e-05
  Last RMS-Density change    ...    7.6685e-06  Tolerance :   1.0000e-06
  Last DIIS Error            ...    9.4054e-06  Tolerance :   1.0000e-06

             **** THE GBW FILE WAS UPDATED (Scan_26.gbw) ****
             **** DENSITY FILE WAS UPDATED (Scan_26.scfp.tmp) ****
             **** ENERGY FILE WAS UPDATED (Scan_26.en.tmp) ****
----------------
ORBITAL ENERGIES
----------------

  NO   OCC          E(Eh)            E(eV) 
   0   2.0000     -10.539520      -286.7949 
   1   2.0000      -0.701558       -19.0904 
   2   2.0000      -0.320342        -8.7170 
   3   2.0000      -0.319704        -8.6996 
   4   2.0000      -0.319540        -8.6951 
   5   0.0000      -0.176585        -4.8051 
   6   0.0000      -0.103730        -2.8226 
   7   0.0000      -0.102775        -2.7967 
   8   0.0000      -0.102581        -2.7914 
   9   0.0000       0.594061        16.1652 
  10   0.0000       0.594139        16.1674 
  11   0.0000       0.594222        16.1696 
  12   0.0000       0.625532        17.0216 
  13   0.0000       0.895249        24.3610 
  14   0.0000       0.895813        24.3763 
  15   0.0000       0.895850        24.3773 
  16   0.0000       0.927322        25.2337 
  17   0.0000       1.712414        46.5972 
  18   0.0000       1.712564        46.6012 
  19   0.0000       1.714325        46.6492 
  20   0.0000       1.715052        46.6689 
  21   0.0000       1.715085        46.6698 

                    ********************************
                    * MULLIKEN POPULATION ANALYSIS *
                    ********************************

-----------------------
MULLIKEN ATOMIC CHARGES
-----------------------
   0 C :    0.097719
   1 H :   -0.023438
   2 H :   -0.024626
   3 H :   -0.024703
   4 H :   -0.024952
Sum of atomic charges:    0.0000000

--------------------------------
MULLIKEN REDUCED ORBITAL CHARGES
--------------------------------
  0 C s       :     3.979516  s :     3.979516
      pz      :     0.637193  p :     1.922201
      px      :     0.648342
      py      :     0.636667
      dz2     :     0.000141  d :     0.000564
      dxz     :     0.000062
      dyz     :     0.000125
      dx2y2   :     0.000175
      dxy     :     0.000062
  1 H s       :     1.023438  s :     1.023438
  2 H s       :     1.024626  s :     1.024626
  3 H s       :     1.024703  s :     1.024703
  4 H s       :     1.024952  s :     1.024952


                     *******************************
                     * LOEWDIN POPULATION ANALYSIS *
                     *******************************

----------------------
LOEWDIN ATOMIC CHARGES
----------------------
   0 C :    0.069505
   1 H :   -0.016375
   2 H :   -0.017582
   3 H :   -0.017658
   4 H :   -0.017890

-------------------------------
LOEWDIN REDUCED ORBITAL CHARGES
-------------------------------
  0 C s       :     3.977168  s :     3.977168
      pz      :     0.647359  p :     1.952675
      px      :     0.658482
      py      :     0.646834
      dz2     :     0.000162  d :     0.000652
      dxz     :     0.000072
      dyz     :     0.000144
      dx2y2   :     0.000201
      dxy     :     0.000072
  1 H s       :     1.016375  s :     1.016375
  2 H s       :     1.017582  s :     1.017582
  3 H s       :     1.017658  s :     1.017658
  4 H s       :     1.017890  s :     1.017890


                      *****************************
                      * MAYER POPULATION ANALYSIS *
                      *****************************

  NA   - Mulliken gross atomic population
  ZA   - Total nuclear charge
  QA   - Mulliken gross atomic charge
  VA   - Mayer's total valence
  BVA  - Mayer's bonded valence
  FA   - Mayer's free valence

  ATOM       NA         ZA         QA         VA         BVA        FA
  0 C      5.9023     6.0000     0.0977     2.6536     2.6536     0.0000
  1 H      1.0234     1.0000    -0.0234     0.9995     0.9995     0.0000
  2 H      1.0246     1.0000    -0.0246     0.9994     0.9994    -0.0000
  3 H      1.0247     1.0000    -0.0247     0.9994     0.9994    -0.0000
  4 H      1.0250     1.0000    -0.0250     0.9994     0.9994     0.0000

  Mayer bond orders larger than 0.1
B(  0-C ,  1-H ) :   0.6705 B(  0-C ,  2-H ) :   0.6602 B(  0-C ,  3-H ) :   0.6601 
B(  0-C ,  4-H ) :   0.6629 B(  1-H ,  2-H ) :   0.1103 B(  1-H ,  3-H ) :   0.1101 
B(  1-H ,  4-H ) :   0.1086 B(  2-H ,  3-H ) :   0.1151 B(  2-H ,  4-H ) :   0.1139 
B(  3-H ,  4-H ) :   0.1141 

-------
TIMINGS
-------

Total SCF time: 0 days 0 hours 0 min 5 sec 

Total time                  ....       5.566 sec
Sum of individual times     ....       5.380 sec  ( 96.6%)

Fock matrix formation       ....       5.042 sec  ( 90.6%)
  XC integration            ....       0.899 sec  ( 17.8% of F)
    Basis function eval.    ....       0.210 sec  ( 23.4% of XC)
    Density eval.           ....       0.039 sec  (  4.3% of XC)
    XC-Functional eval.     ....       0.288 sec  ( 32.0% of XC)
    XC-Potential eval.      ....       0.016 sec  (  1.7% of XC)
Diagonalization             ....       0.035 sec  (  0.6%)
Density matrix formation    ....       0.000 sec  (  0.0%)
Population analysis         ....       0.011 sec  (  0.2%)
Initial guess               ....       0.129 sec  (  2.3%)
Orbital Transformation      ....       0.000 sec  (  0.0%)
Orbital Orthonormalization  ....       0.000 sec  (  0.0%)
DIIS solution               ....       0.000 sec  (  0.0%)
Grid generation             ....       0.163 sec  (  2.9%)


-------------------------------------------------------------------------------
                          DFT DISPERSION CORRECTION                            
                                                                               
                              DFTD3 V3.1  Rev 1                                
                              USING zero damping                               
-------------------------------------------------------------------------------
The omegaB97X-D3 functional is recognized. Fit by Chai et al.
Active option DFTDOPT                   ...         3   

molecular C6(AA) [au] = 319.254787 


            DFT-D V3
 parameters
 s6 scaling factor         :     1.0000 
 rs6 scaling factor        :     1.2810 
 s8 scaling factor         :     1.0000 
 rs8 scaling factor        :     1.0940 
 Damping factor alpha6     :    14.0000 
 Damping factor alpha8     :    16.0000 
 ad hoc parameters k1-k3   :    16.0000     1.3333    -4.0000 

 Edisp/kcal,au: -0.593800853434  -0.000946281793 
 E6   /kcal   :  -0.171830982 
 E8   /kcal   :  -0.421969871 
 % E8         :  71.062523548 

-------------------------   ----------------
Dispersion correction           -0.000946282
-------------------------   ----------------


-------------------------   --------------------
FINAL SINGLE POINT ENERGY       -39.555029146748
-------------------------   --------------------


                            ***************************************
                            *     ORCA property calculations      *
                            ***************************************

                                    ---------------------
                                    Active property flags
                                    ---------------------
   (+) Dipole Moment


------------------------------------------------------------------------------
                       ORCA ELECTRIC PROPERTIES CALCULATION
------------------------------------------------------------------------------

Dipole Moment Calculation                       ... on
Quadrupole Moment Calculation                   ... off
Polarizability Calculation                      ... off
GBWName                                         ... Scan_26.gbw
Electron density file                           ... Scan_26.scfp.tmp

-------------
DIPOLE MOMENT
-------------
                                X             Y             Z
Electronic contribution:      0.00712      -0.00111       0.00178
Nuclear contribution   :     -0.00000      -0.00000       0.00000
                        -----------------------------------------
Total Dipole Moment    :      0.00712      -0.00112       0.00178
                        -----------------------------------------
Magnitude (a.u.)       :      0.00742
Magnitude (Debye)      :      0.01887


Timings for individual modules:

Sum of individual times         ...        6.005 sec (=   0.100 min)
GTO integral calculation        ...        0.412 sec (=   0.007 min)   6.9 %
SCF iterations                  ...        5.592 sec (=   0.093 min)  93.1 %
                             ****ORCA TERMINATED NORMALLY****
TOTAL RUN TIME: 0 days 0 hours 0 minutes 6 seconds 391 msec
