
                                 *****************
                                 * O   R   C   A *
                                 *****************

           --- An Ab Initio, DFT and Semiempirical electronic structure package ---

                  #######################################################
                  #                        -***-                        #
                  #  Department of molecular theory and spectroscopy    #
                  #              Directorship: Frank Neese              #
                  # Max Planck Institute for Chemical Energy Conversion #
                  #                  D-45470 Muelheim/Ruhr              #
                  #                       Germany                       #
                  #                                                     #
                  #                  All rights reserved                #
                  #                        -***-                        #
                  #######################################################


                         Program Version 4.0.0.2 - RELEASE -


 With contributions from (in alphabetic order):
   Daniel Aravena         : Magnetic Properties
   Michael Atanasov       : Ab Initio Ligand Field Theory
   Ute Becker             : Parallelization
   Martin Brehm           : Molecular dynamics
   Dmytro Bykov           : SCF Hessian
   Vijay G. Chilkuri      : MRCI spin determinant printing
   Dipayan Datta          : RHF DLPNO-CCSD density
   Achintya Kumar Dutta   : EOM-CC, STEOM-CC
   Dmitry Ganyushin       : Spin-Orbit,Spin-Spin,Magnetic field MRCI
   Yang Guo               : DLPNO-NEVPT2, CIM, IAO-localization
   Andreas Hansen         : Spin unrestricted coupled pair/coupled cluster methods
   Lee Huntington         : MR-EOM, pCC
   Robert Izsak           : Overlap fitted RIJCOSX, COSX-SCS-MP3, EOM
   Christian Kollmar      : KDIIS, OOCD, Brueckner-CCSD(T), CCSD density
   Simone Kossmann        : Meta GGA functionals, TD-DFT gradient, OOMP2, MP2 Hessian
   Martin Krupicka        : AUTO-CI
   Dagmar Lenk            : GEPOL surface
   Dimitrios Liakos       : Extrapolation schemes; parallel MDCI
   Dimitrios Manganas     : ROCIS; embedding schemes
   Dimitrios Pantazis     : SARC Basis sets
   Taras Petrenko         : DFT Hessian,TD-DFT gradient, ASA, ECA, R-Raman, ABS, FL, XAS/XES, NRVS
   Peter Pinski           : DLPNO-MP2
   Christoph Reimann      : Effective Core Potentials
   Marius Retegan         : Local ZFS, SOC
   Christoph Riplinger    : Optimizer, TS searches, QM/MM, DLPNO-CCSD(T), (RO)-DLPNO pert. Triples
   Tobias Risthaus        : Range-separated hybrids, TD-DFT gradient, RPA, STAB
   Michael Roemelt        : Restricted open shell CIS
   Masaaki Saitow         : Open-shell DLPNO
   Barbara Sandhoefer     : DKH picture change effects
   Kantharuban Sivalingam : CASSCF convergence, NEVPT2, FIC-MRCI
   Georgi Stoychev        : AutoAux
   Boris Wezisla          : Elementary symmetry handling
   Frank Wennmohs         : Technical directorship


 We gratefully acknowledge several colleagues who have allowed us to
 interface, adapt or use parts of their codes:
   Stefan Grimme, W. Hujo, H. Kruse,             : VdW corrections, initial TS optimization,
                  C. Bannwarth                     DFT functionals, gCP, sTDA/sTD-DF
   Ed Valeev                                     : LibInt (2-el integral package), F12 methods
   Garnet Chan, S. Sharma, J. Yang, R. Olivares  : DMRG
   Ulf Ekstrom                                   : XCFun DFT Library
   Mihaly Kallay                                 : mrcc  (arbitrary order and MRCC methods)
   Jiri Pittner, Ondrej Demel                    : Mk-CCSD
   Frank Weinhold                                : gennbo (NPA and NBO analysis)
   Christopher J. Cramer and Donald G. Truhlar   : smd solvation model


 Your calculation uses the libint2 library for the computation of 2-el integrals
 For citations please refer to: http://libint.valeyev.net

 This ORCA versions uses:
   CBLAS   interface :  Fast vector & matrix operations
   LAPACKE interface :  Fast linear algebra routines
   SCALAPACK package :  Parallel linear algebra routines


Your calculation utilizes the atom-pairwise dispersion correction
with the zero-damping scheme (D30)
Cite in your paper:
S.Grimme, J.Antony, S.Ehrlich and H.Krieg, J.Chem.Phys., 132, (2010), 154104 
   

XCFun DFT library Copyright 2009-2010 Ulf Ekstrom and contributors.
See http://admol.org/xcfun for more information. This is free soft-
ware; see the source code for copying conditions. There is ABSOLUTELY
NO WARRANTY; not even for MERCHANTABILITY or FITNESS FOR A PARTICULAR
PURPOSE. For details see the documentation. Scientific users of this 
library should cite U. Ekstrom, L. Visscher, R. Bast, A. J. Thorvald-
sen and K. Ruud; J.Chem.Theor.Comp. 2010, DOI: 10.1021/ct100117s
XCFun Version 0.99 
Your calculation utilizes the basis: 6-31G(d)
   H-He, Li-Ne : W. J. Hehre, R. Ditchfield and J.A. Pople, J. Chem. Phys. 56, 2257 (1972).
                 Note: He and Ne are unpublished basis sets taken from the Gaussian program.
                 Note: Li and B from J. D. Dill and J. A. Pople, J. Chem. Phys. 62, 2921 (1975).
   Na - Ar     : M. M. Francl, W. J. Pietro, W. J. Hehre, J. S. Binkley, M. S. Gordon, 
                 D. J. DeFrees and J. A. Pople, J. Chem. Phys. 77, 3654 (1982).
   K - Zn      : V. A. Rassolov, J. A. Pople, M. A. Ratner, and T. L. Windus, J. Chem. Phys. 109, 1223 (1998).

================================================================================
                                        WARNINGS
                       Please study these warnings very carefully!
================================================================================

Warning: TCutStore was < 0. Adjusted to Thresh (uncritical)

INFO   : the flag for use of LIBINT has been found!

================================================================================
                                       INPUT FILE
================================================================================
NAME = initial27.inp
|  1> ! WB97X-D3 6-31G(d) VerySlowConv
|  2> ! KDIIS NOSOSCF
|  3> %base "Scan_27"
|  4> 
|  5> %scf
|  6> maxiter 999
|  7> end
|  8> 
|  9> * xyz 0 1
| 10> C         -4.472707991198    1.925920541856    0.000001957996
| 11> H         -1.316076180366    1.925916792948   -0.000011182875
| 12> H         -5.524905951597    2.752815983974    2.858926191819
| 13> H         -5.524923908570   -0.963423411128   -0.713340570775
| 14> H         -5.524925968269    3.988370092350   -2.145566396165
| 15> **                         ****END OF INPUT****
================================================================================

                       ****************************
                       * Single Point Calculation *
                       ****************************

---------------------------------
CARTESIAN COORDINATES (ANGSTROEM)
---------------------------------
  C     -4.472708    1.925921    0.000002
  H     -1.316076    1.925917   -0.000011
  H     -5.524906    2.752816    2.858926
  H     -5.524924   -0.963423   -0.713341
  H     -5.524926    3.988370   -2.145566

----------------------------
CARTESIAN COORDINATES (A.U.)
----------------------------
  NO LB      ZA    FRAG     MASS         X           Y           Z
   0 C     6.0000    0    12.011   -8.452193    3.639462    0.000004
   1 H     1.0000    0     1.008   -2.487024    3.639455   -0.000021
   2 H     1.0000    0     1.008  -10.440559    5.202068    5.402588
   3 H     1.0000    0     1.008  -10.440593   -1.820606   -1.348018
   4 H     1.0000    0     1.008  -10.440597    7.536927   -4.054533

--------------------------------
INTERNAL COORDINATES (ANGSTROEM)
--------------------------------
 C      0   0   0     0.000000000000     0.00000000     0.00000000
 H      1   0   0     3.156631810862     0.00000000     0.00000000
 H      1   2   0     3.156631811727   109.47122526     0.00000000
 H      1   2   3     3.156631809187   109.47119971   240.00003475
 H      1   2   3     3.156631809695   109.47123780   120.00004440

---------------------------
INTERNAL COORDINATES (A.U.)
---------------------------
 C      0   0   0     0.000000000000     0.00000000     0.00000000
 H      1   0   0     5.965169628152     0.00000000     0.00000000
 H      1   2   0     5.965169629787   109.47122526     0.00000000
 H      1   2   3     5.965169624987   109.47119971   240.00003475
 H      1   2   3     5.965169625949   109.47123780   120.00004440

---------------------
BASIS SET INFORMATION
---------------------
There are 2 groups of distinct atoms

 Group   1 Type C   : 10s4p1d contracted to 3s2p1d pattern {631/31/1}
 Group   2 Type H   : 4s contracted to 2s pattern {31}

Atom   0C    basis set group =>   1
Atom   1H    basis set group =>   2
Atom   2H    basis set group =>   2
Atom   3H    basis set group =>   2
Atom   4H    basis set group =>   2
------------------------------------------------------------------------------
                           ORCA GTO INTEGRAL CALCULATION
------------------------------------------------------------------------------

                         BASIS SET STATISTICS AND STARTUP INFO

 # of primitive gaussian shells          ...   31
 # of primitive gaussian functions       ...   43
 # of contracted shells                  ...   14
 # of contracted basis functions         ...   22
 Highest angular momentum                ...    2
 Maximum contraction depth               ...    6
 Integral package used                   ... LIBINT
 Integral threshhold            Thresh   ...  1.000e-10
 Primitive cut-off              TCut     ...  1.000e-11


------------------------------ INTEGRAL EVALUATION ----------------------------


 * One electron integrals 
 Pre-screening matrix                    ... done
 Shell pair data                         ... done (   0.000 sec)

-------------------------------------------------------------------------------
                                 ORCA SCF
-------------------------------------------------------------------------------

------------
SCF SETTINGS
------------
Hamiltonian:
 Density Functional     Method          .... DFT(GTOs)
 Exchange Functional    Exchange        .... WB97X-D3
 Correlation Functional Correlation     .... WB97X-D3
 Gradients option       PostSCFGGA      .... off
 Hybrid DFT is turned on
   Fraction HF Exchange ScalHFX         ....  0.195728
   Scaling of DF-GGA-X  ScalDFX         ....  0.000000
   Scaling of DF-GGA-C  ScalDFC         ....  1.000000
   Scaling of DF-LDA-C  ScalLDAC        ....  1.000000
   Perturbative correction              ....  0.000000
 Long-range corrected/Screened/Range-Separated Hybrid DFT is turned on
   Amount of maximum screened exact exchange              ....  0.804272
   Range separation parameter mu (erf(mu*r12)/r12)        ....  0.250000


General Settings:
 Integral files         IntName         .... Scan_27
 Hartree-Fock type      HFTyp           .... RHF
 Total Charge           Charge          ....    0
 Multiplicity           Mult            ....    1
 Number of Electrons    NEL             ....   10
 Basis Dimension        Dim             ....   22
 Nuclear Repulsion      ENuc            ....      4.6393038830 Eh

Convergence Acceleration:
 DIIS                   CNVDIIS         .... on
   Start iteration      DIISMaxIt       ....     0
   Startup error        DIISStart       ....  0.200000
   # of expansion vecs  DIISMaxEq       ....     5
   Bias factor          DIISBfac        ....   1.050
   Max. coefficient     DIISMaxC        ....  10.000
 Newton-Raphson         CNVNR           .... off
 SOSCF                  CNVSOSCF        .... off
 Level Shifting         CNVShift        .... off
 Zerner damping         CNVZerner       .... off
 Static damping         CNVDamp         .... off
 Fernandez-Rico         CNVRico         .... off

SCF Procedure:
 Maximum # iterations   MaxIter         ....   999
 SCF integral mode      SCFMode         .... Direct
   Integral package                     .... LIBINT
 Reset frequeny         DirectResetFreq ....    20
 Integral Threshold     Thresh          ....  1.000e-10 Eh
 Primitive CutOff       TCut            ....  1.000e-11 Eh

Convergence Tolerance:
 Convergence Check Mode ConvCheckMode   .... All-Criteria
 Convergence forced     ConvForced      .... 0
 Energy Change          TolE            ....  1.000e-06 Eh
 Max Density Change     TolMaxP         ....  1.000e-05
 RMS Density Change     TolRMSP         ....  1.000e-06
 DIIS Error             TolErr          ....  1.000e-06


Diagonalization of the overlap matrix:
Smallest eigenvalue                        ... 1.768e-01
Time for diagonalization                   ...    0.000 sec
Threshold for overlap eigenvalues          ... 1.000e-08
Number of eigenvalues below threshold      ... 0
Time for construction of square roots      ...    0.005 sec
Total time needed                          ...    0.005 sec

-------------------
DFT GRID GENERATION
-------------------

General Integration Accuracy     IntAcc      ...  4.340
Radial Grid Type                 RadialGrid  ... Gauss-Chebyshev
Angular Grid (max. acc.)         AngularGrid ... Lebedev-110
Angular grid pruning method      GridPruning ... 3 (G Style)
Weight generation scheme         WeightScheme... Becke
Basis function cutoff            BFCut       ...    1.0000e-10
Integration weight cutoff        WCut        ...    1.0000e-14
Grids for H and He will be reduced by one unit

# of grid points (after initial pruning)     ...   4832 (   0.0 sec)
# of grid points (after weights+screening)   ...   4796 (   0.0 sec)
nearest neighbour list constructed           ...    0.0 sec
Grid point re-assignment to atoms done       ...    0.0 sec
Grid point division into batches done        ...    0.0 sec
Reduced shell lists constructed in    0.0 sec

Total number of grid points                  ...     4796
Total number of batches                      ...       78
Average number of points per batch           ...       61
Average number of grid points per atom       ...      959
Average number of shells per batch           ...    10.19 (72.78%)
Average number of basis functions per batch  ...    16.92 (76.93%)
Average number of large shells per batch     ...     7.34 (72.05%)
Average number of large basis fcns per batch ...    12.51 (73.90%)
Maximum spatial batch extension              ...  21.59, 25.60, 21.59 au
Average spatial batch extension              ...   6.09,  5.76,  5.38 au

Time for grid setup =    0.027 sec

------------------------------
INITIAL GUESS: MODEL POTENTIAL
------------------------------
Loading Hartree-Fock densities                     ... done
Calculating cut-offs                               ... done
Setting up the integral package                    ... done
Initializing the effective Hamiltonian             ... done
Starting the Coulomb interaction                   ... done (   0.0 sec)
Reading the grid                                   ... done
Mapping shells                                     ... done
Starting the XC term evaluation                    ... done (   0.0 sec)
  promolecular density results
     # of electrons  =      9.997424922
     EX              =     -5.947348000
     EC              =     -0.218091811
     EX+EC           =     -6.165439811
Transforming the Hamiltonian                       ... done (   0.0 sec)
Diagonalizing the Hamiltonian                      ... done (   0.0 sec)
Back transforming the eigenvectors                 ... done (   0.0 sec)
Now organizing SCF variables                       ... done
                      ------------------
                      INITIAL GUESS DONE (   0.2 sec)
                      ------------------
--------------
SCF ITERATIONS
--------------
ITER       Energy         Delta-E        Max-DP      RMS-DP      [F,P]   Gradient Norm
               ***  Starting incremental Fock matrix formation  ***
                             ****Resetting KDIIS****
                             ****Turning on KDIIS(Cayley)****
  0    -39.1622975778   0.000000000000 0.04062296  0.00377993  0.1564554   0.141984046
  1    -39.2142254494  -0.051927871606 0.06208068  0.00876359  0.1356518   0.134104689
  2    -39.3377592461  -0.123533796731 0.13232641  0.02020715  0.1220359   0.113261646
  3    -39.5198116919  -0.182052445789 0.05303706  0.00873473  0.0317791   0.025214634
  4    -39.5208433066  -0.001031614667 0.02824804  0.00447757  0.0345197   0.028867896
  5    -39.5282929666  -0.007449660071 0.02813186  0.00327013  0.0181172   0.015792578
  6    -39.5306451031  -0.002352136464 0.02001109  0.00311470  0.0078453   0.007833843
  7    -39.5304962662   0.000148836937 0.01515390  0.00238940  0.0102137   0.007563125
  8    -39.5313437952  -0.000847529081 0.01015667  0.00128620  0.0011795   0.000952927
  9    -39.5314441407  -0.000100345456 0.00494164  0.00061645  0.0005010   0.000491800
 10    -39.5314602003  -0.000016059634 0.00108105  0.00013917  0.0001221   0.000134318
                          ***Energy convergence achieved***
 11    -39.5314608771  -0.000000676774 0.00010047  0.00001732  0.0000325   0.000030915

            ***Energy convergence in two consecutive cycles with***
                    ***'reasonable' density convergence***
                       *** signaling convergence ***

                    *** KDIIS BlockDiag ( 0.000 sec) ***

               *****************************************************
               *                     SUCCESS                       *
               *           SCF CONVERGED AFTER  12 CYCLES          *
               *****************************************************

Setting up the final grid:

General Integration Accuracy     IntAcc      ...  4.670
Radial Grid Type                 RadialGrid  ... Gauss-Chebyshev
Angular Grid (max. acc.)         AngularGrid ... Lebedev-302
Angular grid pruning method      GridPruning ... 3 (G Style)
Weight generation scheme         WeightScheme... Becke
Basis function cutoff            BFCut       ...    1.0000e-10
Integration weight cutoff        WCut        ...    1.0000e-14
Grids for H and He will be reduced by one unit

# of grid points (after initial pruning)     ...  19788 (   0.0 sec)
# of grid points (after weights+screening)   ...  19673 (   0.0 sec)
nearest neighbour list constructed           ...    0.0 sec
Grid point re-assignment to atoms done       ...    0.0 sec
Grid point division into batches done        ...    0.1 sec
Reduced shell lists constructed in    0.1 sec

Total number of grid points                  ...    19673
Total number of batches                      ...      309
Average number of points per batch           ...       63
Average number of grid points per atom       ...     3935
Average number of shells per batch           ...     9.22 (65.88%)
Average number of basis functions per batch  ...    15.18 (69.02%)
Average number of large shells per batch     ...     6.11 (66.25%)
Average number of large basis fcns per batch ...    10.19 (67.13%)
Maximum spatial batch extension              ...  20.64, 19.63, 20.64 au
Average spatial batch extension              ...   3.78,  3.62,  3.60 au

Final grid set up in    0.1 sec
Final integration                            ... done (   0.1 sec)
Change in XC energy                          ...    -0.000502443
Integrated number of electrons               ...    10.000012547
Previous integrated no of electrons          ...    10.000316531

----------------
TOTAL SCF ENERGY
----------------

Total Energy       :          -39.53196336 Eh           -1075.71941 eV

Components:
Nuclear Repulsion  :            4.63930388 Eh             126.24188 eV
Electronic Energy  :          -44.17126724 Eh           -1201.96129 eV
One Electron Energy:          -61.34653609 Eh           -1669.32411 eV
Two Electron Energy:           17.17526885 Eh             467.36283 eV

Virial components:
Potential Energy   :          -78.49003756 Eh           -2135.82251 eV
Kinetic Energy     :           38.95807420 Eh            1060.10309 eV
Virial Ratio       :            2.01473094


DFT components:
N(Alpha)           :        5.000006273513 electrons
N(Beta)            :        5.000006273513 electrons
N(Total)           :       10.000012547025 electrons
E(XC)              :       -3.939993295102 Eh       

---------------
SCF CONVERGENCE
---------------

  Last Energy change         ...   -3.6462e-08  Tolerance :   1.0000e-06
  Last MAX-Density change    ...    5.4376e-05  Tolerance :   1.0000e-05
  Last RMS-Density change    ...    6.8288e-06  Tolerance :   1.0000e-06
  Last DIIS Error            ...    1.9084e-05  Tolerance :   1.0000e-06

             **** THE GBW FILE WAS UPDATED (Scan_27.gbw) ****
             **** DENSITY FILE WAS UPDATED (Scan_27.scfp.tmp) ****
             **** ENERGY FILE WAS UPDATED (Scan_27.en.tmp) ****
----------------
ORBITAL ENERGIES
----------------

  NO   OCC          E(Eh)            E(eV) 
   0   2.0000     -10.540916      -286.8329 
   1   2.0000      -0.704410       -19.1680 
   2   2.0000      -0.316194        -8.6041 
   3   2.0000      -0.315648        -8.5892 
   4   2.0000      -0.315469        -8.5844 
   5   0.0000      -0.178869        -4.8673 
   6   0.0000      -0.110123        -2.9966 
   7   0.0000      -0.109280        -2.9737 
   8   0.0000      -0.109042        -2.9672 
   9   0.0000       0.588946        16.0260 
  10   0.0000       0.588985        16.0271 
  11   0.0000       0.589339        16.0367 
  12   0.0000       0.623427        16.9643 
  13   0.0000       0.891390        24.2560 
  14   0.0000       0.891860        24.2687 
  15   0.0000       0.892010        24.2728 
  16   0.0000       0.915886        24.9225 
  17   0.0000       1.708854        46.5003 
  18   0.0000       1.708978        46.5037 
  19   0.0000       1.710049        46.5328 
  20   0.0000       1.710652        46.5492 
  21   0.0000       1.710673        46.5498 

                    ********************************
                    * MULLIKEN POPULATION ANALYSIS *
                    ********************************

-----------------------
MULLIKEN ATOMIC CHARGES
-----------------------
   0 C :    0.110355
   1 H :   -0.027125
   2 H :   -0.027637
   3 H :   -0.027657
   4 H :   -0.027936
Sum of atomic charges:    0.0000000

--------------------------------
MULLIKEN REDUCED ORBITAL CHARGES
--------------------------------
  0 C s       :     3.983868  s :     3.983868
      pz      :     0.632383  p :     1.905336
      px      :     0.642554
      py      :     0.630398
      dz2     :     0.000110  d :     0.000441
      dxz     :     0.000048
      dyz     :     0.000098
      dx2y2   :     0.000137
      dxy     :     0.000048
  1 H s       :     1.027125  s :     1.027125
  2 H s       :     1.027637  s :     1.027637
  3 H s       :     1.027657  s :     1.027657
  4 H s       :     1.027936  s :     1.027936


                     *******************************
                     * LOEWDIN POPULATION ANALYSIS *
                     *******************************

----------------------
LOEWDIN ATOMIC CHARGES
----------------------
   0 C :    0.087046
   1 H :   -0.021274
   2 H :   -0.021822
   3 H :   -0.021844
   4 H :   -0.022105

-------------------------------
LOEWDIN REDUCED ORBITAL CHARGES
-------------------------------
  0 C s       :     3.982377  s :     3.982377
      pz      :     0.640632  p :     1.930082
      px      :     0.650803
      py      :     0.638647
      dz2     :     0.000123  d :     0.000495
      dxz     :     0.000054
      dyz     :     0.000110
      dx2y2   :     0.000153
      dxy     :     0.000054
  1 H s       :     1.021274  s :     1.021274
  2 H s       :     1.021822  s :     1.021822
  3 H s       :     1.021844  s :     1.021844
  4 H s       :     1.022105  s :     1.022105


                      *****************************
                      * MAYER POPULATION ANALYSIS *
                      *****************************

  NA   - Mulliken gross atomic population
  ZA   - Total nuclear charge
  QA   - Mulliken gross atomic charge
  VA   - Mayer's total valence
  BVA  - Mayer's bonded valence
  FA   - Mayer's free valence

  ATOM       NA         ZA         QA         VA         BVA        FA
  0 C      5.8896     6.0000     0.1104     2.6328     2.6328    -0.0000
  1 H      1.0271     1.0000    -0.0271     0.9993     0.9993     0.0000
  2 H      1.0276     1.0000    -0.0276     0.9993     0.9993     0.0000
  3 H      1.0277     1.0000    -0.0277     0.9993     0.9993     0.0000
  4 H      1.0279     1.0000    -0.0279     0.9993     0.9993     0.0000

  Mayer bond orders larger than 0.1
B(  0-C ,  1-H ) :   0.6655 B(  0-C ,  2-H ) :   0.6552 B(  0-C ,  3-H ) :   0.6537 
B(  0-C ,  4-H ) :   0.6584 B(  1-H ,  2-H ) :   0.1119 B(  1-H ,  3-H ) :   0.1123 
B(  1-H ,  4-H ) :   0.1097 B(  2-H ,  3-H ) :   0.1172 B(  2-H ,  4-H ) :   0.1150 
B(  3-H ,  4-H ) :   0.1161 

-------
TIMINGS
-------

Total SCF time: 0 days 0 hours 0 min 4 sec 

Total time                  ....       4.892 sec
Sum of individual times     ....       4.724 sec  ( 96.6%)

Fock matrix formation       ....       4.404 sec  ( 90.0%)
  XC integration            ....       0.797 sec  ( 18.1% of F)
    Basis function eval.    ....       0.183 sec  ( 23.0% of XC)
    Density eval.           ....       0.034 sec  (  4.3% of XC)
    XC-Functional eval.     ....       0.257 sec  ( 32.2% of XC)
    XC-Potential eval.      ....       0.014 sec  (  1.7% of XC)
Diagonalization             ....       0.017 sec  (  0.4%)
Density matrix formation    ....       0.000 sec  (  0.0%)
Population analysis         ....       0.010 sec  (  0.2%)
Initial guess               ....       0.129 sec  (  2.6%)
Orbital Transformation      ....       0.000 sec  (  0.0%)
Orbital Orthonormalization  ....       0.000 sec  (  0.0%)
DIIS solution               ....       0.000 sec  (  0.0%)
Grid generation             ....       0.164 sec  (  3.4%)


-------------------------------------------------------------------------------
                          DFT DISPERSION CORRECTION                            
                                                                               
                              DFTD3 V3.1  Rev 1                                
                              USING zero damping                               
-------------------------------------------------------------------------------
The omegaB97X-D3 functional is recognized. Fit by Chai et al.
Active option DFTDOPT                   ...         3   

molecular C6(AA) [au] = 319.256773 


            DFT-D V3
 parameters
 s6 scaling factor         :     1.0000 
 rs6 scaling factor        :     1.2810 
 s8 scaling factor         :     1.0000 
 rs8 scaling factor        :     1.0940 
 Damping factor alpha6     :    14.0000 
 Damping factor alpha8     :    16.0000 
 ad hoc parameters k1-k3   :    16.0000     1.3333    -4.0000 

 Edisp/kcal,au: -0.586565568937  -0.000934751634 
 E6   /kcal   :  -0.195130304 
 E8   /kcal   :  -0.391435265 
 % E8         :  66.733420013 

-------------------------   ----------------
Dispersion correction           -0.000934752
-------------------------   ----------------


-------------------------   --------------------
FINAL SINGLE POINT ENERGY       -39.532898108707
-------------------------   --------------------


                            ***************************************
                            *     ORCA property calculations      *
                            ***************************************

                                    ---------------------
                                    Active property flags
                                    ---------------------
   (+) Dipole Moment


------------------------------------------------------------------------------
                       ORCA ELECTRIC PROPERTIES CALCULATION
------------------------------------------------------------------------------

Dipole Moment Calculation                       ... on
Quadrupole Moment Calculation                   ... off
Polarizability Calculation                      ... off
GBWName                                         ... Scan_27.gbw
Electron density file                           ... Scan_27.scfp.tmp

-------------
DIPOLE MOMENT
-------------
                                X             Y             Z
Electronic contribution:      0.00374      -0.00135       0.00172
Nuclear contribution   :     -0.00000      -0.00000       0.00000
                        -----------------------------------------
Total Dipole Moment    :      0.00374      -0.00135       0.00172
                        -----------------------------------------
Magnitude (a.u.)       :      0.00433
Magnitude (Debye)      :      0.01101


Timings for individual modules:

Sum of individual times         ...        5.330 sec (=   0.089 min)
GTO integral calculation        ...        0.412 sec (=   0.007 min)   7.7 %
SCF iterations                  ...        4.918 sec (=   0.082 min)  92.3 %
                             ****ORCA TERMINATED NORMALLY****
TOTAL RUN TIME: 0 days 0 hours 0 minutes 5 seconds 726 msec
