
                                 *****************
                                 * O   R   C   A *
                                 *****************

           --- An Ab Initio, DFT and Semiempirical electronic structure package ---

                  #######################################################
                  #                        -***-                        #
                  #  Department of molecular theory and spectroscopy    #
                  #              Directorship: Frank Neese              #
                  # Max Planck Institute for Chemical Energy Conversion #
                  #                  D-45470 Muelheim/Ruhr              #
                  #                       Germany                       #
                  #                                                     #
                  #                  All rights reserved                #
                  #                        -***-                        #
                  #######################################################


                         Program Version 4.0.0.2 - RELEASE -


 With contributions from (in alphabetic order):
   Daniel Aravena         : Magnetic Properties
   Michael Atanasov       : Ab Initio Ligand Field Theory
   Ute Becker             : Parallelization
   Martin Brehm           : Molecular dynamics
   Dmytro Bykov           : SCF Hessian
   Vijay G. Chilkuri      : MRCI spin determinant printing
   Dipayan Datta          : RHF DLPNO-CCSD density
   Achintya Kumar Dutta   : EOM-CC, STEOM-CC
   Dmitry Ganyushin       : Spin-Orbit,Spin-Spin,Magnetic field MRCI
   Yang Guo               : DLPNO-NEVPT2, CIM, IAO-localization
   Andreas Hansen         : Spin unrestricted coupled pair/coupled cluster methods
   Lee Huntington         : MR-EOM, pCC
   Robert Izsak           : Overlap fitted RIJCOSX, COSX-SCS-MP3, EOM
   Christian Kollmar      : KDIIS, OOCD, Brueckner-CCSD(T), CCSD density
   Simone Kossmann        : Meta GGA functionals, TD-DFT gradient, OOMP2, MP2 Hessian
   Martin Krupicka        : AUTO-CI
   Dagmar Lenk            : GEPOL surface
   Dimitrios Liakos       : Extrapolation schemes; parallel MDCI
   Dimitrios Manganas     : ROCIS; embedding schemes
   Dimitrios Pantazis     : SARC Basis sets
   Taras Petrenko         : DFT Hessian,TD-DFT gradient, ASA, ECA, R-Raman, ABS, FL, XAS/XES, NRVS
   Peter Pinski           : DLPNO-MP2
   Christoph Reimann      : Effective Core Potentials
   Marius Retegan         : Local ZFS, SOC
   Christoph Riplinger    : Optimizer, TS searches, QM/MM, DLPNO-CCSD(T), (RO)-DLPNO pert. Triples
   Tobias Risthaus        : Range-separated hybrids, TD-DFT gradient, RPA, STAB
   Michael Roemelt        : Restricted open shell CIS
   Masaaki Saitow         : Open-shell DLPNO
   Barbara Sandhoefer     : DKH picture change effects
   Kantharuban Sivalingam : CASSCF convergence, NEVPT2, FIC-MRCI
   Georgi Stoychev        : AutoAux
   Boris Wezisla          : Elementary symmetry handling
   Frank Wennmohs         : Technical directorship


 We gratefully acknowledge several colleagues who have allowed us to
 interface, adapt or use parts of their codes:
   Stefan Grimme, W. Hujo, H. Kruse,             : VdW corrections, initial TS optimization,
                  C. Bannwarth                     DFT functionals, gCP, sTDA/sTD-DF
   Ed Valeev                                     : LibInt (2-el integral package), F12 methods
   Garnet Chan, S. Sharma, J. Yang, R. Olivares  : DMRG
   Ulf Ekstrom                                   : XCFun DFT Library
   Mihaly Kallay                                 : mrcc  (arbitrary order and MRCC methods)
   Jiri Pittner, Ondrej Demel                    : Mk-CCSD
   Frank Weinhold                                : gennbo (NPA and NBO analysis)
   Christopher J. Cramer and Donald G. Truhlar   : smd solvation model


 Your calculation uses the libint2 library for the computation of 2-el integrals
 For citations please refer to: http://libint.valeyev.net

 This ORCA versions uses:
   CBLAS   interface :  Fast vector & matrix operations
   LAPACKE interface :  Fast linear algebra routines
   SCALAPACK package :  Parallel linear algebra routines


Your calculation utilizes the atom-pairwise dispersion correction
with the zero-damping scheme (D30)
Cite in your paper:
S.Grimme, J.Antony, S.Ehrlich and H.Krieg, J.Chem.Phys., 132, (2010), 154104 
   

XCFun DFT library Copyright 2009-2010 Ulf Ekstrom and contributors.
See http://admol.org/xcfun for more information. This is free soft-
ware; see the source code for copying conditions. There is ABSOLUTELY
NO WARRANTY; not even for MERCHANTABILITY or FITNESS FOR A PARTICULAR
PURPOSE. For details see the documentation. Scientific users of this 
library should cite U. Ekstrom, L. Visscher, R. Bast, A. J. Thorvald-
sen and K. Ruud; J.Chem.Theor.Comp. 2010, DOI: 10.1021/ct100117s
XCFun Version 0.99 
Your calculation utilizes the basis: 6-31G(d)
   H-He, Li-Ne : W. J. Hehre, R. Ditchfield and J.A. Pople, J. Chem. Phys. 56, 2257 (1972).
                 Note: He and Ne are unpublished basis sets taken from the Gaussian program.
                 Note: Li and B from J. D. Dill and J. A. Pople, J. Chem. Phys. 62, 2921 (1975).
   Na - Ar     : M. M. Francl, W. J. Pietro, W. J. Hehre, J. S. Binkley, M. S. Gordon, 
                 D. J. DeFrees and J. A. Pople, J. Chem. Phys. 77, 3654 (1982).
   K - Zn      : V. A. Rassolov, J. A. Pople, M. A. Ratner, and T. L. Windus, J. Chem. Phys. 109, 1223 (1998).

================================================================================
                                        WARNINGS
                       Please study these warnings very carefully!
================================================================================

Warning: TCutStore was < 0. Adjusted to Thresh (uncritical)

INFO   : the flag for use of LIBINT has been found!

================================================================================
                                       INPUT FILE
================================================================================
NAME = initial29.inp
|  1> ! WB97X-D3 6-31G(d) VerySlowConv
|  2> ! KDIIS NOSOSCF
|  3> %base "Scan_29"
|  4> 
|  5> %scf
|  6> maxiter 999
|  7> end
|  8> 
|  9> * xyz 0 1
| 10> C         -4.472707990723    1.925920637189    0.000001862676
| 11> H         -1.110178367349    1.925916537141   -0.000011941564
| 12> H         -5.593537668058    2.806751893877    3.045405383842
| 13> H         -5.593556847402   -1.151886774397   -0.759869730631
| 14> H         -5.593559126468    4.122897706190   -2.285515574323
| 15> **                         ****END OF INPUT****
================================================================================

                       ****************************
                       * Single Point Calculation *
                       ****************************

---------------------------------
CARTESIAN COORDINATES (ANGSTROEM)
---------------------------------
  C     -4.472708    1.925921    0.000002
  H     -1.110178    1.925917   -0.000012
  H     -5.593538    2.806752    3.045405
  H     -5.593557   -1.151887   -0.759870
  H     -5.593559    4.122898   -2.285516

----------------------------
CARTESIAN COORDINATES (A.U.)
----------------------------
  NO LB      ZA    FRAG     MASS         X           Y           Z
   0 C     6.0000    0    12.011   -8.452193    3.639463    0.000004
   1 H     1.0000    0     1.008   -2.097933    3.639455   -0.000023
   2 H     1.0000    0     1.008  -10.570254    5.303992    5.754982
   3 H     1.0000    0     1.008  -10.570291   -2.176751   -1.435946
   4 H     1.0000    0     1.008  -10.570295    7.791148   -4.318999

--------------------------------
INTERNAL COORDINATES (ANGSTROEM)
--------------------------------
 C      0   0   0     0.000000000000     0.00000000     0.00000000
 H      1   0   0     3.362529623405     0.00000000     0.00000000
 H      1   2   0     3.362529624417   109.47122146     0.00000000
 H      1   2   3     3.362529622271   109.47119853   240.00004302
 H      1   2   3     3.362529622924   109.47124276   120.00004743

---------------------------
INTERNAL COORDINATES (A.U.)
---------------------------
 C      0   0   0     0.000000000000     0.00000000     0.00000000
 H      1   0   0     6.354260105433     0.00000000     0.00000000
 H      1   2   0     6.354260107346   109.47122146     0.00000000
 H      1   2   3     6.354260103289   109.47119853   240.00004302
 H      1   2   3     6.354260104524   109.47124276   120.00004743

---------------------
BASIS SET INFORMATION
---------------------
There are 2 groups of distinct atoms

 Group   1 Type C   : 10s4p1d contracted to 3s2p1d pattern {631/31/1}
 Group   2 Type H   : 4s contracted to 2s pattern {31}

Atom   0C    basis set group =>   1
Atom   1H    basis set group =>   2
Atom   2H    basis set group =>   2
Atom   3H    basis set group =>   2
Atom   4H    basis set group =>   2
------------------------------------------------------------------------------
                           ORCA GTO INTEGRAL CALCULATION
------------------------------------------------------------------------------

                         BASIS SET STATISTICS AND STARTUP INFO

 # of primitive gaussian shells          ...   31
 # of primitive gaussian functions       ...   43
 # of contracted shells                  ...   14
 # of contracted basis functions         ...   22
 Highest angular momentum                ...    2
 Maximum contraction depth               ...    6
 Integral package used                   ... LIBINT
 Integral threshhold            Thresh   ...  1.000e-10
 Primitive cut-off              TCut     ...  1.000e-11


------------------------------ INTEGRAL EVALUATION ----------------------------


 * One electron integrals 
 Pre-screening matrix                    ... done
 Shell pair data                         ... done (   0.000 sec)

-------------------------------------------------------------------------------
                                 ORCA SCF
-------------------------------------------------------------------------------

------------
SCF SETTINGS
------------
Hamiltonian:
 Density Functional     Method          .... DFT(GTOs)
 Exchange Functional    Exchange        .... WB97X-D3
 Correlation Functional Correlation     .... WB97X-D3
 Gradients option       PostSCFGGA      .... off
 Hybrid DFT is turned on
   Fraction HF Exchange ScalHFX         ....  0.195728
   Scaling of DF-GGA-X  ScalDFX         ....  0.000000
   Scaling of DF-GGA-C  ScalDFC         ....  1.000000
   Scaling of DF-LDA-C  ScalLDAC        ....  1.000000
   Perturbative correction              ....  0.000000
 Long-range corrected/Screened/Range-Separated Hybrid DFT is turned on
   Amount of maximum screened exact exchange              ....  0.804272
   Range separation parameter mu (erf(mu*r12)/r12)        ....  0.250000


General Settings:
 Integral files         IntName         .... Scan_29
 Hartree-Fock type      HFTyp           .... RHF
 Total Charge           Charge          ....    0
 Multiplicity           Mult            ....    1
 Number of Electrons    NEL             ....   10
 Basis Dimension        Dim             ....   22
 Nuclear Repulsion      ENuc            ....      4.3552253380 Eh

Convergence Acceleration:
 DIIS                   CNVDIIS         .... on
   Start iteration      DIISMaxIt       ....     0
   Startup error        DIISStart       ....  0.200000
   # of expansion vecs  DIISMaxEq       ....     5
   Bias factor          DIISBfac        ....   1.050
   Max. coefficient     DIISMaxC        ....  10.000
 Newton-Raphson         CNVNR           .... off
 SOSCF                  CNVSOSCF        .... off
 Level Shifting         CNVShift        .... off
 Zerner damping         CNVZerner       .... off
 Static damping         CNVDamp         .... off
 Fernandez-Rico         CNVRico         .... off

SCF Procedure:
 Maximum # iterations   MaxIter         ....   999
 SCF integral mode      SCFMode         .... Direct
   Integral package                     .... LIBINT
 Reset frequeny         DirectResetFreq ....    20
 Integral Threshold     Thresh          ....  1.000e-10 Eh
 Primitive CutOff       TCut            ....  1.000e-11 Eh

Convergence Tolerance:
 Convergence Check Mode ConvCheckMode   .... All-Criteria
 Convergence forced     ConvForced      .... 0
 Energy Change          TolE            ....  1.000e-06 Eh
 Max Density Change     TolMaxP         ....  1.000e-05
 RMS Density Change     TolRMSP         ....  1.000e-06
 DIIS Error             TolErr          ....  1.000e-06


Diagonalization of the overlap matrix:
Smallest eigenvalue                        ... 1.816e-01
Time for diagonalization                   ...    0.001 sec
Threshold for overlap eigenvalues          ... 1.000e-08
Number of eigenvalues below threshold      ... 0
Time for construction of square roots      ...    0.004 sec
Total time needed                          ...    0.005 sec

-------------------
DFT GRID GENERATION
-------------------

General Integration Accuracy     IntAcc      ...  4.340
Radial Grid Type                 RadialGrid  ... Gauss-Chebyshev
Angular Grid (max. acc.)         AngularGrid ... Lebedev-110
Angular grid pruning method      GridPruning ... 3 (G Style)
Weight generation scheme         WeightScheme... Becke
Basis function cutoff            BFCut       ...    1.0000e-10
Integration weight cutoff        WCut        ...    1.0000e-14
Grids for H and He will be reduced by one unit

# of grid points (after initial pruning)     ...   4832 (   0.0 sec)
# of grid points (after weights+screening)   ...   4800 (   0.0 sec)
nearest neighbour list constructed           ...    0.0 sec
Grid point re-assignment to atoms done       ...    0.0 sec
Grid point division into batches done        ...    0.0 sec
Reduced shell lists constructed in    0.0 sec

Total number of grid points                  ...     4800
Total number of batches                      ...       78
Average number of points per batch           ...       61
Average number of grid points per atom       ...      960
Average number of shells per batch           ...     9.84 (70.25%)
Average number of basis functions per batch  ...    16.06 (73.01%)
Average number of large shells per batch     ...     7.05 (71.69%)
Average number of large basis fcns per batch ...    12.16 (75.73%)
Maximum spatial batch extension              ...  21.59, 25.60, 18.77 au
Average spatial batch extension              ...   6.10,  5.71,  5.35 au

Time for grid setup =    0.028 sec

------------------------------
INITIAL GUESS: MODEL POTENTIAL
------------------------------
Loading Hartree-Fock densities                     ... done
Calculating cut-offs                               ... done
Setting up the integral package                    ... done
Initializing the effective Hamiltonian             ... done
Starting the Coulomb interaction                   ... done (   0.0 sec)
Reading the grid                                   ... done
Mapping shells                                     ... done
Starting the XC term evaluation                    ... done (   0.0 sec)
  promolecular density results
     # of electrons  =      9.997783979
     EX              =     -5.946572105
     EC              =     -0.217398810
     EX+EC           =     -6.163970914
Transforming the Hamiltonian                       ... done (   0.0 sec)
Diagonalizing the Hamiltonian                      ... done (   0.0 sec)
Back transforming the eigenvectors                 ... done (   0.0 sec)
Now organizing SCF variables                       ... done
                      ------------------
                      INITIAL GUESS DONE (   0.2 sec)
                      ------------------
--------------
SCF ITERATIONS
--------------
ITER       Energy         Delta-E        Max-DP      RMS-DP      [F,P]   Gradient Norm
               ***  Starting incremental Fock matrix formation  ***
                             ****Resetting KDIIS****
                             ****Turning on KDIIS(Cayley)****
  0    -39.0262610170   0.000000000000 0.04483708  0.00398458  0.1758722   0.141598159
  1    -39.0785093030  -0.052248286070 0.07377891  0.00835627  0.1545616   0.135756879
  2    -39.1962974428  -0.117788139817 0.09630065  0.01542421  0.1270144   0.123725684
  3    -39.3928333835  -0.196535940666 0.18763658  0.02985255  0.0927832   0.079718155
  4    -39.4176611579  -0.024827774416 0.17302446  0.02566406  0.0968248   0.101254168
  5    -39.4309543087  -0.013293150751 0.03187938  0.00505423  0.0755609   0.067933081
  6    -39.4593978005  -0.028443491864 0.00066572  0.00009566  0.0585207   0.052662085
  7    -39.4589530862   0.000444714351 0.07545109  0.01071539  0.0588544   0.053019237
  8    -39.4907139807  -0.031760894553 0.01763113  0.00263594  0.0080716   0.007552584
  9    -39.4910430354  -0.000329054641 0.00717498  0.00098269  0.0077557   0.006143418
 10    -39.4911828150  -0.000139779633 0.00317483  0.00043636  0.0050962   0.003798499
 11    -39.4911020470   0.000080768015 0.02572441  0.00339885  0.0047136   0.003559306
 12    -39.4919625847  -0.000860537660 0.02063032  0.00260233  0.0024128   0.001717117
 13    -39.4922430477  -0.000280463028 0.00755336  0.00089427  0.0012513   0.000889629
 14    -39.4923024354  -0.000059387669 0.00508184  0.00067066  0.0006912   0.000665118
 15    -39.4923599141  -0.000057478713 0.01057317  0.00130824  0.0007859   0.000570689
 16    -39.4924364759  -0.000076561853 0.00478360  0.00058214  0.0004300   0.000437637
 17    -39.4924591901  -0.000022714128 0.00520480  0.00054691  0.0005061   0.000304838
 18    -39.4924748977  -0.000015707625 0.00222830  0.00020924  0.0003211   0.000233186
 19    -39.4924812271  -0.000006329451 0.00812661  0.00076840  0.0003421   0.000215643
               *** Restarting incremental Fock matrix formation ***
                             ****Resetting KDIIS****
 20    -39.4924987313  -0.000017504120 0.00006327  0.00000835  0.0001549   0.000165333
                          ***Energy convergence achieved***
 21    -39.4924989302  -0.000000198921 0.00018180  0.00002044  0.0001668   0.000157933
 22    -39.4924993895  -0.000000459337 0.00056404  0.00006274  0.0001509   0.000152714
 23    -39.4925007211  -0.000001331608 0.00558031  0.00059225  0.0001676   0.000137394
 24    -39.4925086692  -0.000007948047 0.00164093  0.00015230  0.0000919   0.000067593
 25    -39.4925098068  -0.000001137636 0.00186963  0.00017237  0.0000687   0.000054128
 26    -39.4925108876  -0.000001080787 0.00273555  0.00025306  0.0000402   0.000041157
                          ***Energy convergence achieved***
 27    -39.4925116661  -0.000000778462 0.00027000  0.00002923  0.0000187   0.000019821
 28    -39.4925116853  -0.000000019283 0.00040521  0.00003844  0.0000422   0.000038065

            ***Energy convergence in two consecutive cycles with***
                    ***'reasonable' density convergence***
                       *** signaling convergence ***

                    *** KDIIS BlockDiag ( 0.000 sec) ***

               *****************************************************
               *                     SUCCESS                       *
               *           SCF CONVERGED AFTER  29 CYCLES          *
               *****************************************************

Setting up the final grid:

General Integration Accuracy     IntAcc      ...  4.670
Radial Grid Type                 RadialGrid  ... Gauss-Chebyshev
Angular Grid (max. acc.)         AngularGrid ... Lebedev-302
Angular grid pruning method      GridPruning ... 3 (G Style)
Weight generation scheme         WeightScheme... Becke
Basis function cutoff            BFCut       ...    1.0000e-10
Integration weight cutoff        WCut        ...    1.0000e-14
Grids for H and He will be reduced by one unit

# of grid points (after initial pruning)     ...  19788 (   0.0 sec)
# of grid points (after weights+screening)   ...  19690 (   0.0 sec)
nearest neighbour list constructed           ...    0.0 sec
Grid point re-assignment to atoms done       ...    0.0 sec
Grid point division into batches done        ...    0.0 sec
Reduced shell lists constructed in    0.1 sec

Total number of grid points                  ...    19690
Total number of batches                      ...      310
Average number of points per batch           ...       63
Average number of grid points per atom       ...     3938
Average number of shells per batch           ...     8.86 (63.28%)
Average number of basis functions per batch  ...    14.29 (64.97%)
Average number of large shells per batch     ...     5.83 (65.84%)
Average number of large basis fcns per batch ...     9.81 (68.62%)
Maximum spatial batch extension              ...  20.64, 19.63, 20.64 au
Average spatial batch extension              ...   3.79,  3.64,  3.61 au

Final grid set up in    0.1 sec
Final integration                            ... done (   0.1 sec)
Change in XC energy                          ...    -0.000508915
Integrated number of electrons               ...    10.000006486
Previous integrated no of electrons          ...    10.000301810

----------------
TOTAL SCF ENERGY
----------------

Total Energy       :          -39.49302063 Eh           -1074.65973 eV

Components:
Nuclear Repulsion  :            4.35522534 Eh             118.51171 eV
Electronic Energy  :          -43.84824596 Eh           -1193.17143 eV
One Electron Energy:          -60.73463535 Eh           -1652.67345 eV
Two Electron Energy:           16.88638939 Eh             459.50202 eV

Virial components:
Potential Energy   :          -78.51483884 Eh           -2136.49738 eV
Kinetic Energy     :           39.02181821 Eh            1061.83766 eV
Virial Ratio       :            2.01207536


DFT components:
N(Alpha)           :        5.000003243212 electrons
N(Beta)            :        5.000003243212 electrons
N(Total)           :       10.000006486425 electrons
E(XC)              :       -3.943663055401 Eh       

---------------
SCF CONVERGENCE
---------------

  Last Energy change         ...   -2.5416e-08  Tolerance :   1.0000e-06
  Last MAX-Density change    ...    2.2650e-05  Tolerance :   1.0000e-05
  Last RMS-Density change    ...    2.4790e-06  Tolerance :   1.0000e-06
  Last DIIS Error            ...    3.1646e-06  Tolerance :   1.0000e-06

             **** THE GBW FILE WAS UPDATED (Scan_29.gbw) ****
             **** DENSITY FILE WAS UPDATED (Scan_29.scfp.tmp) ****
             **** ENERGY FILE WAS UPDATED (Scan_29.en.tmp) ****
----------------
ORBITAL ENERGIES
----------------

  NO   OCC          E(Eh)            E(eV) 
   0   2.0000     -10.542015      -286.8628 
   1   2.0000      -0.708913       -19.2905 
   2   2.0000      -0.308472        -8.3939 
   3   2.0000      -0.307639        -8.3713 
   4   2.0000      -0.307503        -8.3676 
   5   0.0000      -0.182019        -4.9530 
   6   0.0000      -0.121006        -3.2928 
   7   0.0000      -0.119872        -3.2619 
   8   0.0000      -0.119695        -3.2571 
   9   0.0000       0.582898        15.8614 
  10   0.0000       0.583109        15.8672 
  11   0.0000       0.583235        15.8706 
  12   0.0000       0.623197        16.9581 
  13   0.0000       0.882854        24.0237 
  14   0.0000       0.883264        24.0348 
  15   0.0000       0.883552        24.0427 
  16   0.0000       0.895652        24.3719 
  17   0.0000       1.703361        46.3508 
  18   0.0000       1.703494        46.3544 
  19   0.0000       1.703943        46.3667 
  20   0.0000       1.704167        46.3727 
  21   0.0000       1.704254        46.3751 

                    ********************************
                    * MULLIKEN POPULATION ANALYSIS *
                    ********************************

-----------------------
MULLIKEN ATOMIC CHARGES
-----------------------
   0 C :    0.131328
   1 H :   -0.032112
   2 H :   -0.032955
   3 H :   -0.032982
   4 H :   -0.033278
Sum of atomic charges:    0.0000000

--------------------------------
MULLIKEN REDUCED ORBITAL CHARGES
--------------------------------
  0 C s       :     3.989762  s :     3.989762
      pz      :     0.621013  p :     1.878646
      px      :     0.637738
      py      :     0.619895
      dz2     :     0.000066  d :     0.000264
      dxz     :     0.000029
      dyz     :     0.000059
      dx2y2   :     0.000082
      dxy     :     0.000029
  1 H s       :     1.032112  s :     1.032112
  2 H s       :     1.032955  s :     1.032955
  3 H s       :     1.032982  s :     1.032982
  4 H s       :     1.033278  s :     1.033278


                     *******************************
                     * LOEWDIN POPULATION ANALYSIS *
                     *******************************

----------------------
LOEWDIN ATOMIC CHARGES
----------------------
   0 C :    0.115702
   1 H :   -0.028188
   2 H :   -0.029060
   3 H :   -0.029087
   4 H :   -0.029367

-------------------------------
LOEWDIN REDUCED ORBITAL CHARGES
-------------------------------
  0 C s       :     3.989202  s :     3.989202
      pz      :     0.626401  p :     1.894813
      px      :     0.643130
      py      :     0.625282
      dz2     :     0.000071  d :     0.000283
      dxz     :     0.000031
      dyz     :     0.000063
      dx2y2   :     0.000088
      dxy     :     0.000031
  1 H s       :     1.028188  s :     1.028188
  2 H s       :     1.029060  s :     1.029060
  3 H s       :     1.029087  s :     1.029087
  4 H s       :     1.029367  s :     1.029367


                      *****************************
                      * MAYER POPULATION ANALYSIS *
                      *****************************

  NA   - Mulliken gross atomic population
  ZA   - Total nuclear charge
  QA   - Mulliken gross atomic charge
  VA   - Mayer's total valence
  BVA  - Mayer's bonded valence
  FA   - Mayer's free valence

  ATOM       NA         ZA         QA         VA         BVA        FA
  0 C      5.8687     6.0000     0.1313     2.6012     2.6012     0.0000
  1 H      1.0321     1.0000    -0.0321     0.9990     0.9990     0.0000
  2 H      1.0330     1.0000    -0.0330     0.9990     0.9990    -0.0000
  3 H      1.0330     1.0000    -0.0330     0.9990     0.9990    -0.0000
  4 H      1.0333     1.0000    -0.0333     0.9990     0.9990     0.0000

  Mayer bond orders larger than 0.1
B(  0-C ,  1-H ) :   0.6617 B(  0-C ,  2-H ) :   0.6448 B(  0-C ,  3-H ) :   0.6448 
B(  0-C ,  4-H ) :   0.6500 B(  1-H ,  2-H ) :   0.1140 B(  1-H ,  3-H ) :   0.1134 
B(  1-H ,  4-H ) :   0.1100 B(  2-H ,  3-H ) :   0.1210 B(  2-H ,  4-H ) :   0.1192 
B(  3-H ,  4-H ) :   0.1198 

-------
TIMINGS
-------

Total SCF time: 0 days 0 hours 0 min 10 sec 

Total time                  ....      10.423 sec
Sum of individual times     ....      10.133 sec  ( 97.2%)

Fock matrix formation       ....       9.817 sec  ( 94.2%)
  XC integration            ....       1.579 sec  ( 16.1% of F)
    Basis function eval.    ....       0.351 sec  ( 22.2% of XC)
    Density eval.           ....       0.070 sec  (  4.4% of XC)
    XC-Functional eval.     ....       0.515 sec  ( 32.6% of XC)
    XC-Potential eval.      ....       0.027 sec  (  1.7% of XC)
Diagonalization             ....       0.022 sec  (  0.2%)
Density matrix formation    ....       0.000 sec  (  0.0%)
Population analysis         ....       0.008 sec  (  0.1%)
Initial guess               ....       0.130 sec  (  1.3%)
Orbital Transformation      ....       0.000 sec  (  0.0%)
Orbital Orthonormalization  ....       0.000 sec  (  0.0%)
DIIS solution               ....       0.000 sec  (  0.0%)
Grid generation             ....       0.155 sec  (  1.5%)


-------------------------------------------------------------------------------
                          DFT DISPERSION CORRECTION                            
                                                                               
                              DFTD3 V3.1  Rev 1                                
                              USING zero damping                               
-------------------------------------------------------------------------------
The omegaB97X-D3 functional is recognized. Fit by Chai et al.
Active option DFTDOPT                   ...         3   

molecular C6(AA) [au] = 319.259337 


            DFT-D V3
 parameters
 s6 scaling factor         :     1.0000 
 rs6 scaling factor        :     1.2810 
 s8 scaling factor         :     1.0000 
 rs8 scaling factor        :     1.0940 
 Damping factor alpha6     :    14.0000 
 Damping factor alpha8     :    16.0000 
 ad hoc parameters k1-k3   :    16.0000     1.3333    -4.0000 

 Edisp/kcal,au: -0.535505454561  -0.000853382171 
 E6   /kcal   :  -0.243494369 
 E8   /kcal   :  -0.292011086 
 % E8         :  54.529992822 

-------------------------   ----------------
Dispersion correction           -0.000853382
-------------------------   ----------------


-------------------------   --------------------
FINAL SINGLE POINT ENERGY       -39.493874008150
-------------------------   --------------------


                            ***************************************
                            *     ORCA property calculations      *
                            ***************************************

                                    ---------------------
                                    Active property flags
                                    ---------------------
   (+) Dipole Moment


------------------------------------------------------------------------------
                       ORCA ELECTRIC PROPERTIES CALCULATION
------------------------------------------------------------------------------

Dipole Moment Calculation                       ... on
Quadrupole Moment Calculation                   ... off
Polarizability Calculation                      ... off
GBWName                                         ... Scan_29.gbw
Electron density file                           ... Scan_29.scfp.tmp

-------------
DIPOLE MOMENT
-------------
                                X             Y             Z
Electronic contribution:      0.00602      -0.00142       0.00180
Nuclear contribution   :     -0.00000      -0.00000       0.00000
                        -----------------------------------------
Total Dipole Moment    :      0.00602      -0.00142       0.00180
                        -----------------------------------------
Magnitude (a.u.)       :      0.00644
Magnitude (Debye)      :      0.01636


Timings for individual modules:

Sum of individual times         ...       10.864 sec (=   0.181 min)
GTO integral calculation        ...        0.413 sec (=   0.007 min)   3.8 %
SCF iterations                  ...       10.451 sec (=   0.174 min)  96.2 %
                             ****ORCA TERMINATED NORMALLY****
TOTAL RUN TIME: 0 days 0 hours 0 minutes 11 seconds 234 msec
