
                                 *****************
                                 * O   R   C   A *
                                 *****************

           --- An Ab Initio, DFT and Semiempirical electronic structure package ---

                  #######################################################
                  #                        -***-                        #
                  #  Department of molecular theory and spectroscopy    #
                  #              Directorship: Frank Neese              #
                  # Max Planck Institute for Chemical Energy Conversion #
                  #                  D-45470 Muelheim/Ruhr              #
                  #                       Germany                       #
                  #                                                     #
                  #                  All rights reserved                #
                  #                        -***-                        #
                  #######################################################


                         Program Version 4.0.0.2 - RELEASE -


 With contributions from (in alphabetic order):
   Daniel Aravena         : Magnetic Properties
   Michael Atanasov       : Ab Initio Ligand Field Theory
   Ute Becker             : Parallelization
   Martin Brehm           : Molecular dynamics
   Dmytro Bykov           : SCF Hessian
   Vijay G. Chilkuri      : MRCI spin determinant printing
   Dipayan Datta          : RHF DLPNO-CCSD density
   Achintya Kumar Dutta   : EOM-CC, STEOM-CC
   Dmitry Ganyushin       : Spin-Orbit,Spin-Spin,Magnetic field MRCI
   Yang Guo               : DLPNO-NEVPT2, CIM, IAO-localization
   Andreas Hansen         : Spin unrestricted coupled pair/coupled cluster methods
   Lee Huntington         : MR-EOM, pCC
   Robert Izsak           : Overlap fitted RIJCOSX, COSX-SCS-MP3, EOM
   Christian Kollmar      : KDIIS, OOCD, Brueckner-CCSD(T), CCSD density
   Simone Kossmann        : Meta GGA functionals, TD-DFT gradient, OOMP2, MP2 Hessian
   Martin Krupicka        : AUTO-CI
   Dagmar Lenk            : GEPOL surface
   Dimitrios Liakos       : Extrapolation schemes; parallel MDCI
   Dimitrios Manganas     : ROCIS; embedding schemes
   Dimitrios Pantazis     : SARC Basis sets
   Taras Petrenko         : DFT Hessian,TD-DFT gradient, ASA, ECA, R-Raman, ABS, FL, XAS/XES, NRVS
   Peter Pinski           : DLPNO-MP2
   Christoph Reimann      : Effective Core Potentials
   Marius Retegan         : Local ZFS, SOC
   Christoph Riplinger    : Optimizer, TS searches, QM/MM, DLPNO-CCSD(T), (RO)-DLPNO pert. Triples
   Tobias Risthaus        : Range-separated hybrids, TD-DFT gradient, RPA, STAB
   Michael Roemelt        : Restricted open shell CIS
   Masaaki Saitow         : Open-shell DLPNO
   Barbara Sandhoefer     : DKH picture change effects
   Kantharuban Sivalingam : CASSCF convergence, NEVPT2, FIC-MRCI
   Georgi Stoychev        : AutoAux
   Boris Wezisla          : Elementary symmetry handling
   Frank Wennmohs         : Technical directorship


 We gratefully acknowledge several colleagues who have allowed us to
 interface, adapt or use parts of their codes:
   Stefan Grimme, W. Hujo, H. Kruse,             : VdW corrections, initial TS optimization,
                  C. Bannwarth                     DFT functionals, gCP, sTDA/sTD-DF
   Ed Valeev                                     : LibInt (2-el integral package), F12 methods
   Garnet Chan, S. Sharma, J. Yang, R. Olivares  : DMRG
   Ulf Ekstrom                                   : XCFun DFT Library
   Mihaly Kallay                                 : mrcc  (arbitrary order and MRCC methods)
   Jiri Pittner, Ondrej Demel                    : Mk-CCSD
   Frank Weinhold                                : gennbo (NPA and NBO analysis)
   Christopher J. Cramer and Donald G. Truhlar   : smd solvation model


 Your calculation uses the libint2 library for the computation of 2-el integrals
 For citations please refer to: http://libint.valeyev.net

 This ORCA versions uses:
   CBLAS   interface :  Fast vector & matrix operations
   LAPACKE interface :  Fast linear algebra routines
   SCALAPACK package :  Parallel linear algebra routines


Your calculation utilizes the atom-pairwise dispersion correction
with the zero-damping scheme (D30)
Cite in your paper:
S.Grimme, J.Antony, S.Ehrlich and H.Krieg, J.Chem.Phys., 132, (2010), 154104 
   

XCFun DFT library Copyright 2009-2010 Ulf Ekstrom and contributors.
See http://admol.org/xcfun for more information. This is free soft-
ware; see the source code for copying conditions. There is ABSOLUTELY
NO WARRANTY; not even for MERCHANTABILITY or FITNESS FOR A PARTICULAR
PURPOSE. For details see the documentation. Scientific users of this 
library should cite U. Ekstrom, L. Visscher, R. Bast, A. J. Thorvald-
sen and K. Ruud; J.Chem.Theor.Comp. 2010, DOI: 10.1021/ct100117s
XCFun Version 0.99 
Your calculation utilizes the basis: 6-31G(d)
   H-He, Li-Ne : W. J. Hehre, R. Ditchfield and J.A. Pople, J. Chem. Phys. 56, 2257 (1972).
                 Note: He and Ne are unpublished basis sets taken from the Gaussian program.
                 Note: Li and B from J. D. Dill and J. A. Pople, J. Chem. Phys. 62, 2921 (1975).
   Na - Ar     : M. M. Francl, W. J. Pietro, W. J. Hehre, J. S. Binkley, M. S. Gordon, 
                 D. J. DeFrees and J. A. Pople, J. Chem. Phys. 77, 3654 (1982).
   K - Zn      : V. A. Rassolov, J. A. Pople, M. A. Ratner, and T. L. Windus, J. Chem. Phys. 109, 1223 (1998).

================================================================================
                                        WARNINGS
                       Please study these warnings very carefully!
================================================================================

Warning: TCutStore was < 0. Adjusted to Thresh (uncritical)

INFO   : the flag for use of LIBINT has been found!

================================================================================
                                       INPUT FILE
================================================================================
NAME = initial3.inp
|  1> ! WB97X-D3 6-31G(d) VerySlowConv
|  2> ! KDIIS NOSOSCF
|  3> %base "Scan_3"
|  4> 
|  5> %scf
|  6> maxiter 999
|  7> end
|  8> 
|  9> * xyz 0 1
| 10> C         -4.472707999431    1.925920000368    0.000001998705
| 11> H         -3.555302881223    1.925919186662   -0.000001840207
| 12> H         -4.778506012495    2.166239141983    0.830884924760
| 13> H         -4.778511317829    1.086196223230   -0.207315294003
| 14> H         -4.778511789022    2.525325447756   -0.623559789255
| 15> **                         ****END OF INPUT****
================================================================================

                       ****************************
                       * Single Point Calculation *
                       ****************************

---------------------------------
CARTESIAN COORDINATES (ANGSTROEM)
---------------------------------
  C     -4.472708    1.925920    0.000002
  H     -3.555303    1.925919   -0.000002
  H     -4.778506    2.166239    0.830885
  H     -4.778511    1.086196   -0.207315
  H     -4.778512    2.525325   -0.623560

----------------------------
CARTESIAN COORDINATES (A.U.)
----------------------------
  NO LB      ZA    FRAG     MASS         X           Y           Z
   0 C     6.0000    0    12.011   -8.452193    3.639461    0.000004
   1 H     1.0000    0     1.008   -6.718549    3.639460   -0.000003
   2 H     1.0000    0     1.008   -9.030068    4.093599    1.570145
   3 H     1.0000    0     1.008   -9.030078    2.052613   -0.391769
   4 H     1.0000    0     1.008   -9.030079    4.772173   -1.178357

--------------------------------
INTERNAL COORDINATES (ANGSTROEM)
--------------------------------
 C      0   0   0     0.000000000000     0.00000000     0.00000000
 H      1   0   0     0.917405118216     0.00000000     0.00000000
 H      1   2   0     0.917405118489   109.47122043     0.00000000
 H      1   2   3     0.917405118413   109.47122063   240.00000026
 H      1   2   3     0.917405118522   109.47122102   119.99999999

---------------------------
INTERNAL COORDINATES (A.U.)
---------------------------
 C      0   0   0     0.000000000000     0.00000000     0.00000000
 H      1   0   0     1.733644427287     0.00000000     0.00000000
 H      1   2   0     1.733644427802   109.47122043     0.00000000
 H      1   2   3     1.733644427658   109.47122063   240.00000026
 H      1   2   3     1.733644427864   109.47122102   119.99999999

---------------------
BASIS SET INFORMATION
---------------------
There are 2 groups of distinct atoms

 Group   1 Type C   : 10s4p1d contracted to 3s2p1d pattern {631/31/1}
 Group   2 Type H   : 4s contracted to 2s pattern {31}

Atom   0C    basis set group =>   1
Atom   1H    basis set group =>   2
Atom   2H    basis set group =>   2
Atom   3H    basis set group =>   2
Atom   4H    basis set group =>   2
------------------------------------------------------------------------------
                           ORCA GTO INTEGRAL CALCULATION
------------------------------------------------------------------------------

                         BASIS SET STATISTICS AND STARTUP INFO

 # of primitive gaussian shells          ...   31
 # of primitive gaussian functions       ...   43
 # of contracted shells                  ...   14
 # of contracted basis functions         ...   22
 Highest angular momentum                ...    2
 Maximum contraction depth               ...    6
 Integral package used                   ... LIBINT
 Integral threshhold            Thresh   ...  1.000e-10
 Primitive cut-off              TCut     ...  1.000e-11


------------------------------ INTEGRAL EVALUATION ----------------------------


 * One electron integrals 
 Pre-screening matrix                    ... done
 Shell pair data                         ... done (   0.000 sec)

-------------------------------------------------------------------------------
                                 ORCA SCF
-------------------------------------------------------------------------------

------------
SCF SETTINGS
------------
Hamiltonian:
 Density Functional     Method          .... DFT(GTOs)
 Exchange Functional    Exchange        .... WB97X-D3
 Correlation Functional Correlation     .... WB97X-D3
 Gradients option       PostSCFGGA      .... off
 Hybrid DFT is turned on
   Fraction HF Exchange ScalHFX         ....  0.195728
   Scaling of DF-GGA-X  ScalDFX         ....  0.000000
   Scaling of DF-GGA-C  ScalDFC         ....  1.000000
   Scaling of DF-LDA-C  ScalLDAC        ....  1.000000
   Perturbative correction              ....  0.000000
 Long-range corrected/Screened/Range-Separated Hybrid DFT is turned on
   Amount of maximum screened exact exchange              ....  0.804272
   Range separation parameter mu (erf(mu*r12)/r12)        ....  0.250000


General Settings:
 Integral files         IntName         .... Scan_3
 Hartree-Fock type      HFTyp           .... RHF
 Total Charge           Charge          ....    0
 Multiplicity           Mult            ....    1
 Number of Electrons    NEL             ....   10
 Basis Dimension        Dim             ....   22
 Nuclear Repulsion      ENuc            ....     15.9630395788 Eh

Convergence Acceleration:
 DIIS                   CNVDIIS         .... on
   Start iteration      DIISMaxIt       ....     0
   Startup error        DIISStart       ....  0.200000
   # of expansion vecs  DIISMaxEq       ....     5
   Bias factor          DIISBfac        ....   1.050
   Max. coefficient     DIISMaxC        ....  10.000
 Newton-Raphson         CNVNR           .... off
 SOSCF                  CNVSOSCF        .... off
 Level Shifting         CNVShift        .... off
 Zerner damping         CNVZerner       .... off
 Static damping         CNVDamp         .... off
 Fernandez-Rico         CNVRico         .... off

SCF Procedure:
 Maximum # iterations   MaxIter         ....   999
 SCF integral mode      SCFMode         .... Direct
   Integral package                     .... LIBINT
 Reset frequeny         DirectResetFreq ....    20
 Integral Threshold     Thresh          ....  1.000e-10 Eh
 Primitive CutOff       TCut            ....  1.000e-11 Eh

Convergence Tolerance:
 Convergence Check Mode ConvCheckMode   .... All-Criteria
 Convergence forced     ConvForced      .... 0
 Energy Change          TolE            ....  1.000e-06 Eh
 Max Density Change     TolMaxP         ....  1.000e-05
 RMS Density Change     TolRMSP         ....  1.000e-06
 DIIS Error             TolErr          ....  1.000e-06


Diagonalization of the overlap matrix:
Smallest eigenvalue                        ... 1.114e-02
Time for diagonalization                   ...    0.000 sec
Threshold for overlap eigenvalues          ... 1.000e-08
Number of eigenvalues below threshold      ... 0
Time for construction of square roots      ...    0.004 sec
Total time needed                          ...    0.005 sec

-------------------
DFT GRID GENERATION
-------------------

General Integration Accuracy     IntAcc      ...  4.340
Radial Grid Type                 RadialGrid  ... Gauss-Chebyshev
Angular Grid (max. acc.)         AngularGrid ... Lebedev-110
Angular grid pruning method      GridPruning ... 3 (G Style)
Weight generation scheme         WeightScheme... Becke
Basis function cutoff            BFCut       ...    1.0000e-10
Integration weight cutoff        WCut        ...    1.0000e-14
Grids for H and He will be reduced by one unit

# of grid points (after initial pruning)     ...   4832 (   0.0 sec)
# of grid points (after weights+screening)   ...   4689 (   0.0 sec)
nearest neighbour list constructed           ...    0.0 sec
Grid point re-assignment to atoms done       ...    0.0 sec
Grid point division into batches done        ...    0.0 sec
Reduced shell lists constructed in    0.0 sec

Total number of grid points                  ...     4689
Total number of batches                      ...       76
Average number of points per batch           ...       61
Average number of grid points per atom       ...      938
Average number of shells per batch           ...    13.17 (94.06%)
Average number of basis functions per batch  ...    20.73 (94.21%)
Average number of large shells per batch     ...    12.58 (95.56%)
Average number of large basis fcns per batch ...    19.81 (95.55%)
Maximum spatial batch extension              ...  21.03, 25.60, 23.60 au
Average spatial batch extension              ...   5.11,  5.09,  4.70 au

Time for grid setup =    0.027 sec

------------------------------
INITIAL GUESS: MODEL POTENTIAL
------------------------------
Loading Hartree-Fock densities                     ... done
Calculating cut-offs                               ... done
Setting up the integral package                    ... done
Initializing the effective Hamiltonian             ... done
Starting the Coulomb interaction                   ... done (   0.0 sec)
Reading the grid                                   ... done
Mapping shells                                     ... done
Starting the XC term evaluation                    ... done (   0.0 sec)
  promolecular density results
     # of electrons  =      9.999473935
     EX              =     -6.392170806
     EC              =     -0.305906081
     EX+EC           =     -6.698076887
Transforming the Hamiltonian                       ... done (   0.0 sec)
Diagonalizing the Hamiltonian                      ... done (   0.0 sec)
Back transforming the eigenvectors                 ... done (   0.0 sec)
Now organizing SCF variables                       ... done
                      ------------------
                      INITIAL GUESS DONE (   0.1 sec)
                      ------------------
--------------
SCF ITERATIONS
--------------
ITER       Energy         Delta-E        Max-DP      RMS-DP      [F,P]   Gradient Norm
               ***  Starting incremental Fock matrix formation  ***
                             ****Resetting KDIIS****
                             ****Turning on KDIIS(Cayley)****
  0    -40.2575401065   0.000000000000 0.04306720  0.00416811  0.1176147   0.162204517
  1    -40.3005736884  -0.043033581882 0.03282511  0.00340614  0.0986747   0.132704950
  2    -40.3302037387  -0.029630050294 0.05479124  0.00583521  0.0813375   0.109061675
  3    -40.3677919301  -0.037588191377 0.08764045  0.00984419  0.0507100   0.068341301
Warning: badly conditioned DIIS matrix, 1 vectors out of 5 destroyed
  4    -40.3919892419  -0.024197311860 0.00311790  0.00028301  0.0003825   0.000446912
Warning: badly conditioned DIIS matrix, 1 vectors out of 5 destroyed
                          ***Energy convergence achieved***
  5    -40.3919884491   0.000000792765 0.00125136  0.00021547  0.0005205   0.000599021
Warning: badly conditioned DIIS matrix, 1 vectors out of 5 destroyed
  6    -40.3919899508  -0.000001501675 0.00048077  0.00006635  0.0002746   0.000365735
Warning: badly conditioned DIIS matrix, 1 vectors out of 5 destroyed
                          ***Energy convergence achieved***
  7    -40.3919906545  -0.000000703654 0.00002757  0.00000262  0.0000049   0.000003678
                           ***RMSP convergence achieved***
                           ***MAXP convergence achieved***
                    *** KDIIS BlockDiag ( 0.000 sec) ***

               *****************************************************
               *                     SUCCESS                       *
               *           SCF CONVERGED AFTER   8 CYCLES          *
               *****************************************************

Setting up the final grid:

General Integration Accuracy     IntAcc      ...  4.670
Radial Grid Type                 RadialGrid  ... Gauss-Chebyshev
Angular Grid (max. acc.)         AngularGrid ... Lebedev-302
Angular grid pruning method      GridPruning ... 3 (G Style)
Weight generation scheme         WeightScheme... Becke
Basis function cutoff            BFCut       ...    1.0000e-10
Integration weight cutoff        WCut        ...    1.0000e-14
Grids for H and He will be reduced by one unit

# of grid points (after initial pruning)     ...  19788 (   0.0 sec)
# of grid points (after weights+screening)   ...  19191 (   0.0 sec)
nearest neighbour list constructed           ...    0.0 sec
Grid point re-assignment to atoms done       ...    0.0 sec
Grid point division into batches done        ...    0.0 sec
Reduced shell lists constructed in    0.1 sec

Total number of grid points                  ...    19191
Total number of batches                      ...      302
Average number of points per batch           ...       63
Average number of grid points per atom       ...     3838
Average number of shells per batch           ...    12.12 (86.56%)
Average number of basis functions per batch  ...    19.09 (86.77%)
Average number of large shells per batch     ...    11.57 (95.51%)
Average number of large basis fcns per batch ...    18.24 (95.56%)
Maximum spatial batch extension              ...  20.64, 20.64, 20.64 au
Average spatial batch extension              ...   3.47,  3.18,  3.15 au

Final grid set up in    0.1 sec
Final integration                            ... done (   0.2 sec)
Change in XC energy                          ...     0.000912571
Integrated number of electrons               ...     9.999976426
Previous integrated no of electrons          ...    10.000684189

----------------
TOTAL SCF ENERGY
----------------

Total Energy       :          -40.39107808 Eh           -1099.09711 eV

Components:
Nuclear Repulsion  :           15.96303958 Eh             434.37639 eV
Electronic Energy  :          -56.35411766 Eh           -1533.47350 eV
One Electron Energy:          -84.38135110 Eh           -2296.13330 eV
Two Electron Energy:           28.02723344 Eh             762.65979 eV

Virial components:
Potential Energy   :          -81.80144139 Eh           -2225.93038 eV
Kinetic Energy     :           41.41036331 Eh            1126.83327 eV
Virial Ratio       :            1.97538575


DFT components:
N(Alpha)           :        4.999988213236 electrons
N(Beta)            :        4.999988213236 electrons
N(Total)           :        9.999976426472 electrons
E(XC)              :       -4.768500860890 Eh       

---------------
SCF CONVERGENCE
---------------

  Last Energy change         ...   -1.1011e-10  Tolerance :   1.0000e-06
  Last MAX-Density change    ...    1.9154e-06  Tolerance :   1.0000e-05
  Last RMS-Density change    ...    1.7384e-07  Tolerance :   1.0000e-06
  Last DIIS Error            ...    5.2344e-07  Tolerance :   1.0000e-06

             **** THE GBW FILE WAS UPDATED (Scan_3.gbw) ****
             **** DENSITY FILE WAS UPDATED (Scan_3.scfp.tmp) ****
             **** ENERGY FILE WAS UPDATED (Scan_3.en.tmp) ****
----------------
ORBITAL ENERGIES
----------------

  NO   OCC          E(Eh)            E(eV) 
   0   2.0000     -10.177591      -276.9463 
   1   2.0000      -0.862051       -23.4576 
   2   2.0000      -0.518044       -14.0967 
   3   2.0000      -0.517956       -14.0943 
   4   2.0000      -0.517740       -14.0884 
   5   0.0000       0.248798         6.7701 
   6   0.0000       0.326347         8.8804 
   7   0.0000       0.326664         8.8890 
   8   0.0000       0.327284         8.9059 
   9   0.0000       0.589636        16.0448 
  10   0.0000       0.591177        16.0867 
  11   0.0000       0.592246        16.1158 
  12   0.0000       1.182531        32.1783 
  13   0.0000       1.182598        32.1801 
  14   0.0000       1.182960        32.1900 
  15   0.0000       1.245637        33.8955 
  16   0.0000       1.429957        38.9111 
  17   0.0000       1.706711        46.4420 
  18   0.0000       1.707535        46.4644 
  19   0.0000       2.614455        71.1429 
  20   0.0000       2.615387        71.1683 
  21   0.0000       2.615577        71.1735 

                    ********************************
                    * MULLIKEN POPULATION ANALYSIS *
                    ********************************

-----------------------
MULLIKEN ATOMIC CHARGES
-----------------------
   0 C :   -0.722940
   1 H :    0.182062
   2 H :    0.180079
   3 H :    0.180041
   4 H :    0.180758
Sum of atomic charges:    0.0000000

--------------------------------
MULLIKEN REDUCED ORBITAL CHARGES
--------------------------------
  0 C s       :     3.194718  s :     3.194718
      pz      :     1.165920  p :     3.497170
      px      :     1.165510
      py      :     1.165740
      dz2     :     0.007769  d :     0.031051
      dxz     :     0.003450
      dyz     :     0.006884
      dx2y2   :     0.009494
      dxy     :     0.003454
  1 H s       :     0.817938  s :     0.817938
  2 H s       :     0.819921  s :     0.819921
  3 H s       :     0.819959  s :     0.819959
  4 H s       :     0.819242  s :     0.819242


                     *******************************
                     * LOEWDIN POPULATION ANALYSIS *
                     *******************************

----------------------
LOEWDIN ATOMIC CHARGES
----------------------
   0 C :   -0.602831
   1 H :    0.151047
   2 H :    0.150676
   3 H :    0.150604
   4 H :    0.150504

-------------------------------
LOEWDIN REDUCED ORBITAL CHARGES
-------------------------------
  0 C s       :     2.898938  s :     2.898938
      pz      :     1.215090  p :     3.645128
      px      :     1.215052
      py      :     1.214986
      dz2     :     0.014686  d :     0.058766
      dxz     :     0.006527
      dyz     :     0.013056
      dx2y2   :     0.017965
      dxy     :     0.006532
  1 H s       :     0.848953  s :     0.848953
  2 H s       :     0.849324  s :     0.849324
  3 H s       :     0.849396  s :     0.849396
  4 H s       :     0.849496  s :     0.849496


                      *****************************
                      * MAYER POPULATION ANALYSIS *
                      *****************************

  NA   - Mulliken gross atomic population
  ZA   - Total nuclear charge
  QA   - Mulliken gross atomic charge
  VA   - Mayer's total valence
  BVA  - Mayer's bonded valence
  FA   - Mayer's free valence

  ATOM       NA         ZA         QA         VA         BVA        FA
  0 C      6.7229     6.0000    -0.7229     3.8703     3.8703    -0.0000
  1 H      0.8179     1.0000     0.1821     0.9248     0.9248    -0.0000
  2 H      0.8199     1.0000     0.1801     0.9260     0.9260     0.0000
  3 H      0.8200     1.0000     0.1800     0.9259     0.9259     0.0000
  4 H      0.8192     1.0000     0.1808     0.9253     0.9253     0.0000

  Mayer bond orders larger than 0.1
B(  0-C ,  1-H ) :   0.9670 B(  0-C ,  2-H ) :   0.9679 B(  0-C ,  3-H ) :   0.9678 
B(  0-C ,  4-H ) :   0.9675 

-------
TIMINGS
-------

Total SCF time: 0 days 0 hours 0 min 2 sec 

Total time                  ....       2.918 sec
Sum of individual times     ....       2.784 sec  ( 95.4%)

Fock matrix formation       ....       2.480 sec  ( 85.0%)
  XC integration            ....       0.621 sec  ( 25.1% of F)
    Basis function eval.    ....       0.207 sec  ( 33.4% of XC)
    Density eval.           ....       0.026 sec  (  4.1% of XC)
    XC-Functional eval.     ....       0.183 sec  ( 29.5% of XC)
    XC-Potential eval.      ....       0.018 sec  (  2.9% of XC)
Diagonalization             ....       0.005 sec  (  0.2%)
Density matrix formation    ....       0.000 sec  (  0.0%)
Population analysis         ....       0.014 sec  (  0.5%)
Initial guess               ....       0.120 sec  (  4.1%)
Orbital Transformation      ....       0.000 sec  (  0.0%)
Orbital Orthonormalization  ....       0.000 sec  (  0.0%)
DIIS solution               ....       0.000 sec  (  0.0%)
Grid generation             ....       0.165 sec  (  5.7%)


-------------------------------------------------------------------------------
                          DFT DISPERSION CORRECTION                            
                                                                               
                              DFTD3 V3.1  Rev 1                                
                              USING zero damping                               
-------------------------------------------------------------------------------
The omegaB97X-D3 functional is recognized. Fit by Chai et al.
Active option DFTDOPT                   ...         3   

molecular C6(AA) [au] = 127.470250 


            DFT-D V3
 parameters
 s6 scaling factor         :     1.0000 
 rs6 scaling factor        :     1.2810 
 s8 scaling factor         :     1.0000 
 rs8 scaling factor        :     1.0940 
 Damping factor alpha6     :    14.0000 
 Damping factor alpha8     :    16.0000 
 ad hoc parameters k1-k3   :    16.0000     1.3333    -4.0000 

 Edisp/kcal,au: -0.003917433449  -0.000006242827 
 E6   /kcal   :  -0.000610495 
 E8   /kcal   :  -0.003306939 
 % E8         :  84.415946209 

-------------------------   ----------------
Dispersion correction           -0.000006243
-------------------------   ----------------


-------------------------   --------------------
FINAL SINGLE POINT ENERGY       -40.391084325969
-------------------------   --------------------


                            ***************************************
                            *     ORCA property calculations      *
                            ***************************************

                                    ---------------------
                                    Active property flags
                                    ---------------------
   (+) Dipole Moment


------------------------------------------------------------------------------
                       ORCA ELECTRIC PROPERTIES CALCULATION
------------------------------------------------------------------------------

Dipole Moment Calculation                       ... on
Quadrupole Moment Calculation                   ... off
Polarizability Calculation                      ... off
GBWName                                         ... Scan_3.gbw
Electron density file                           ... Scan_3.scfp.tmp

-------------
DIPOLE MOMENT
-------------
                                X             Y             Z
Electronic contribution:     -0.00037      -0.00073       0.00100
Nuclear contribution   :     -0.00000      -0.00000       0.00000
                        -----------------------------------------
Total Dipole Moment    :     -0.00037      -0.00073       0.00100
                        -----------------------------------------
Magnitude (a.u.)       :      0.00129
Magnitude (Debye)      :      0.00328


Timings for individual modules:

Sum of individual times         ...        3.237 sec (=   0.054 min)
GTO integral calculation        ...        0.294 sec (=   0.005 min)   9.1 %
SCF iterations                  ...        2.943 sec (=   0.049 min)  90.9 %
                             ****ORCA TERMINATED NORMALLY****
TOTAL RUN TIME: 0 days 0 hours 0 minutes 3 seconds 568 msec
