
                                 *****************
                                 * O   R   C   A *
                                 *****************

           --- An Ab Initio, DFT and Semiempirical electronic structure package ---

                  #######################################################
                  #                        -***-                        #
                  #  Department of molecular theory and spectroscopy    #
                  #              Directorship: Frank Neese              #
                  # Max Planck Institute for Chemical Energy Conversion #
                  #                  D-45470 Muelheim/Ruhr              #
                  #                       Germany                       #
                  #                                                     #
                  #                  All rights reserved                #
                  #                        -***-                        #
                  #######################################################


                         Program Version 4.0.0.2 - RELEASE -


 With contributions from (in alphabetic order):
   Daniel Aravena         : Magnetic Properties
   Michael Atanasov       : Ab Initio Ligand Field Theory
   Ute Becker             : Parallelization
   Martin Brehm           : Molecular dynamics
   Dmytro Bykov           : SCF Hessian
   Vijay G. Chilkuri      : MRCI spin determinant printing
   Dipayan Datta          : RHF DLPNO-CCSD density
   Achintya Kumar Dutta   : EOM-CC, STEOM-CC
   Dmitry Ganyushin       : Spin-Orbit,Spin-Spin,Magnetic field MRCI
   Yang Guo               : DLPNO-NEVPT2, CIM, IAO-localization
   Andreas Hansen         : Spin unrestricted coupled pair/coupled cluster methods
   Lee Huntington         : MR-EOM, pCC
   Robert Izsak           : Overlap fitted RIJCOSX, COSX-SCS-MP3, EOM
   Christian Kollmar      : KDIIS, OOCD, Brueckner-CCSD(T), CCSD density
   Simone Kossmann        : Meta GGA functionals, TD-DFT gradient, OOMP2, MP2 Hessian
   Martin Krupicka        : AUTO-CI
   Dagmar Lenk            : GEPOL surface
   Dimitrios Liakos       : Extrapolation schemes; parallel MDCI
   Dimitrios Manganas     : ROCIS; embedding schemes
   Dimitrios Pantazis     : SARC Basis sets
   Taras Petrenko         : DFT Hessian,TD-DFT gradient, ASA, ECA, R-Raman, ABS, FL, XAS/XES, NRVS
   Peter Pinski           : DLPNO-MP2
   Christoph Reimann      : Effective Core Potentials
   Marius Retegan         : Local ZFS, SOC
   Christoph Riplinger    : Optimizer, TS searches, QM/MM, DLPNO-CCSD(T), (RO)-DLPNO pert. Triples
   Tobias Risthaus        : Range-separated hybrids, TD-DFT gradient, RPA, STAB
   Michael Roemelt        : Restricted open shell CIS
   Masaaki Saitow         : Open-shell DLPNO
   Barbara Sandhoefer     : DKH picture change effects
   Kantharuban Sivalingam : CASSCF convergence, NEVPT2, FIC-MRCI
   Georgi Stoychev        : AutoAux
   Boris Wezisla          : Elementary symmetry handling
   Frank Wennmohs         : Technical directorship


 We gratefully acknowledge several colleagues who have allowed us to
 interface, adapt or use parts of their codes:
   Stefan Grimme, W. Hujo, H. Kruse,             : VdW corrections, initial TS optimization,
                  C. Bannwarth                     DFT functionals, gCP, sTDA/sTD-DF
   Ed Valeev                                     : LibInt (2-el integral package), F12 methods
   Garnet Chan, S. Sharma, J. Yang, R. Olivares  : DMRG
   Ulf Ekstrom                                   : XCFun DFT Library
   Mihaly Kallay                                 : mrcc  (arbitrary order and MRCC methods)
   Jiri Pittner, Ondrej Demel                    : Mk-CCSD
   Frank Weinhold                                : gennbo (NPA and NBO analysis)
   Christopher J. Cramer and Donald G. Truhlar   : smd solvation model


 Your calculation uses the libint2 library for the computation of 2-el integrals
 For citations please refer to: http://libint.valeyev.net

 This ORCA versions uses:
   CBLAS   interface :  Fast vector & matrix operations
   LAPACKE interface :  Fast linear algebra routines
   SCALAPACK package :  Parallel linear algebra routines


Your calculation utilizes the atom-pairwise dispersion correction
with the zero-damping scheme (D30)
Cite in your paper:
S.Grimme, J.Antony, S.Ehrlich and H.Krieg, J.Chem.Phys., 132, (2010), 154104 
   

XCFun DFT library Copyright 2009-2010 Ulf Ekstrom and contributors.
See http://admol.org/xcfun for more information. This is free soft-
ware; see the source code for copying conditions. There is ABSOLUTELY
NO WARRANTY; not even for MERCHANTABILITY or FITNESS FOR A PARTICULAR
PURPOSE. For details see the documentation. Scientific users of this 
library should cite U. Ekstrom, L. Visscher, R. Bast, A. J. Thorvald-
sen and K. Ruud; J.Chem.Theor.Comp. 2010, DOI: 10.1021/ct100117s
XCFun Version 0.99 
Your calculation utilizes the basis: 6-31G(d)
   H-He, Li-Ne : W. J. Hehre, R. Ditchfield and J.A. Pople, J. Chem. Phys. 56, 2257 (1972).
                 Note: He and Ne are unpublished basis sets taken from the Gaussian program.
                 Note: Li and B from J. D. Dill and J. A. Pople, J. Chem. Phys. 62, 2921 (1975).
   Na - Ar     : M. M. Francl, W. J. Pietro, W. J. Hehre, J. S. Binkley, M. S. Gordon, 
                 D. J. DeFrees and J. A. Pople, J. Chem. Phys. 77, 3654 (1982).
   K - Zn      : V. A. Rassolov, J. A. Pople, M. A. Ratner, and T. L. Windus, J. Chem. Phys. 109, 1223 (1998).

================================================================================
                                        WARNINGS
                       Please study these warnings very carefully!
================================================================================

Warning: TCutStore was < 0. Adjusted to Thresh (uncritical)

INFO   : the flag for use of LIBINT has been found!

================================================================================
                                       INPUT FILE
================================================================================
NAME = initial31.inp
|  1> ! WB97X-D3 6-31G(d) VerySlowConv
|  2> ! KDIIS NOSOSCF
|  3> %base "Scan_31"
|  4> 
|  5> %scf
|  6> maxiter 999
|  7> end
|  8> 
|  9> * xyz 0 1
| 10> C         -4.472707977361    1.925920735673    0.000001835088
| 11> H         -0.905030701396    1.925916275553   -0.000012765847
| 12> H         -5.661919391209    2.860491318788    3.231205199607
| 13> H         -5.661939723307   -1.339663467324   -0.806229406834
| 14> H         -5.661942206726    4.256935137309   -2.424954862013
| 15> **                         ****END OF INPUT****
================================================================================

                       ****************************
                       * Single Point Calculation *
                       ****************************

---------------------------------
CARTESIAN COORDINATES (ANGSTROEM)
---------------------------------
  C     -4.472708    1.925921    0.000002
  H     -0.905031    1.925916   -0.000013
  H     -5.661919    2.860491    3.231205
  H     -5.661940   -1.339663   -0.806229
  H     -5.661942    4.256935   -2.424955

----------------------------
CARTESIAN COORDINATES (A.U.)
----------------------------
  NO LB      ZA    FRAG     MASS         X           Y           Z
   0 C     6.0000    0    12.011   -8.452193    3.639463    0.000003
   1 H     1.0000    0     1.008   -1.710260    3.639454   -0.000024
   2 H     1.0000    0     1.008  -10.699477    5.405545    6.106093
   3 H     1.0000    0     1.008  -10.699515   -2.531597   -1.523553
   4 H     1.0000    0     1.008  -10.699520    8.044442   -4.582501

--------------------------------
INTERNAL COORDINATES (ANGSTROEM)
--------------------------------
 C      0   0   0     0.000000000000     0.00000000     0.00000000
 H      1   0   0     3.567677275998     0.00000000     0.00000000
 H      1   2   0     3.567677275838   109.47122144     0.00000000
 H      1   2   3     3.567677276307   109.47119687   240.00004708
 H      1   2   3     3.567677280212   109.47124549   120.00005145

---------------------------
INTERNAL COORDINATES (A.U.)
---------------------------
 C      0   0   0     0.000000000000     0.00000000     0.00000000
 H      1   0   0     6.741932985850     0.00000000     0.00000000
 H      1   2   0     6.741932985548   109.47122144     0.00000000
 H      1   2   3     6.741932986435   109.47119687   240.00004708
 H      1   2   3     6.741932993814   109.47124549   120.00005145

---------------------
BASIS SET INFORMATION
---------------------
There are 2 groups of distinct atoms

 Group   1 Type C   : 10s4p1d contracted to 3s2p1d pattern {631/31/1}
 Group   2 Type H   : 4s contracted to 2s pattern {31}

Atom   0C    basis set group =>   1
Atom   1H    basis set group =>   2
Atom   2H    basis set group =>   2
Atom   3H    basis set group =>   2
Atom   4H    basis set group =>   2
------------------------------------------------------------------------------
                           ORCA GTO INTEGRAL CALCULATION
------------------------------------------------------------------------------

                         BASIS SET STATISTICS AND STARTUP INFO

 # of primitive gaussian shells          ...   31
 # of primitive gaussian functions       ...   43
 # of contracted shells                  ...   14
 # of contracted basis functions         ...   22
 Highest angular momentum                ...    2
 Maximum contraction depth               ...    6
 Integral package used                   ... LIBINT
 Integral threshhold            Thresh   ...  1.000e-10
 Primitive cut-off              TCut     ...  1.000e-11


------------------------------ INTEGRAL EVALUATION ----------------------------


 * One electron integrals 
 Pre-screening matrix                    ... done
 Shell pair data                         ... done (   0.000 sec)

-------------------------------------------------------------------------------
                                 ORCA SCF
-------------------------------------------------------------------------------

------------
SCF SETTINGS
------------
Hamiltonian:
 Density Functional     Method          .... DFT(GTOs)
 Exchange Functional    Exchange        .... WB97X-D3
 Correlation Functional Correlation     .... WB97X-D3
 Gradients option       PostSCFGGA      .... off
 Hybrid DFT is turned on
   Fraction HF Exchange ScalHFX         ....  0.195728
   Scaling of DF-GGA-X  ScalDFX         ....  0.000000
   Scaling of DF-GGA-C  ScalDFC         ....  1.000000
   Scaling of DF-LDA-C  ScalLDAC        ....  1.000000
   Perturbative correction              ....  0.000000
 Long-range corrected/Screened/Range-Separated Hybrid DFT is turned on
   Amount of maximum screened exact exchange              ....  0.804272
   Range separation parameter mu (erf(mu*r12)/r12)        ....  0.250000


General Settings:
 Integral files         IntName         .... Scan_31
 Hartree-Fock type      HFTyp           .... RHF
 Total Charge           Charge          ....    0
 Multiplicity           Mult            ....    1
 Number of Electrons    NEL             ....   10
 Basis Dimension        Dim             ....   22
 Nuclear Repulsion      ENuc            ....      4.1047922997 Eh

Convergence Acceleration:
 DIIS                   CNVDIIS         .... on
   Start iteration      DIISMaxIt       ....     0
   Startup error        DIISStart       ....  0.200000
   # of expansion vecs  DIISMaxEq       ....     5
   Bias factor          DIISBfac        ....   1.050
   Max. coefficient     DIISMaxC        ....  10.000
 Newton-Raphson         CNVNR           .... off
 SOSCF                  CNVSOSCF        .... off
 Level Shifting         CNVShift        .... off
 Zerner damping         CNVZerner       .... off
 Static damping         CNVDamp         .... off
 Fernandez-Rico         CNVRico         .... off

SCF Procedure:
 Maximum # iterations   MaxIter         ....   999
 SCF integral mode      SCFMode         .... Direct
   Integral package                     .... LIBINT
 Reset frequeny         DirectResetFreq ....    20
 Integral Threshold     Thresh          ....  1.000e-10 Eh
 Primitive CutOff       TCut            ....  1.000e-11 Eh

Convergence Tolerance:
 Convergence Check Mode ConvCheckMode   .... All-Criteria
 Convergence forced     ConvForced      .... 0
 Energy Change          TolE            ....  1.000e-06 Eh
 Max Density Change     TolMaxP         ....  1.000e-05
 RMS Density Change     TolRMSP         ....  1.000e-06
 DIIS Error             TolErr          ....  1.000e-06


Diagonalization of the overlap matrix:
Smallest eigenvalue                        ... 1.843e-01
Time for diagonalization                   ...    0.001 sec
Threshold for overlap eigenvalues          ... 1.000e-08
Number of eigenvalues below threshold      ... 0
Time for construction of square roots      ...    0.076 sec
Total time needed                          ...    0.077 sec

-------------------
DFT GRID GENERATION
-------------------

General Integration Accuracy     IntAcc      ...  4.340
Radial Grid Type                 RadialGrid  ... Gauss-Chebyshev
Angular Grid (max. acc.)         AngularGrid ... Lebedev-110
Angular grid pruning method      GridPruning ... 3 (G Style)
Weight generation scheme         WeightScheme... Becke
Basis function cutoff            BFCut       ...    1.0000e-10
Integration weight cutoff        WCut        ...    1.0000e-14
Grids for H and He will be reduced by one unit

# of grid points (after initial pruning)     ...   4832 (   0.0 sec)
# of grid points (after weights+screening)   ...   4801 (   0.0 sec)
nearest neighbour list constructed           ...    0.0 sec
Grid point re-assignment to atoms done       ...    0.0 sec
Grid point division into batches done        ...    0.0 sec
Reduced shell lists constructed in    0.1 sec

Total number of grid points                  ...     4801
Total number of batches                      ...       76
Average number of points per batch           ...       63
Average number of grid points per atom       ...      960
Average number of shells per batch           ...     9.45 (67.53%)
Average number of basis functions per batch  ...    15.40 (70.01%)
Average number of large shells per batch     ...     6.83 (72.25%)
Average number of large basis fcns per batch ...    11.64 (75.55%)
Maximum spatial batch extension              ...  21.59, 25.60, 18.77 au
Average spatial batch extension              ...   6.30,  5.99,  5.40 au

Time for grid setup =    0.148 sec

------------------------------
INITIAL GUESS: MODEL POTENTIAL
------------------------------
Loading Hartree-Fock densities                     ... done
Calculating cut-offs                               ... done
Setting up the integral package                    ... done
Initializing the effective Hamiltonian             ... done
Starting the Coulomb interaction                   ... done (   0.0 sec)
Reading the grid                                   ... done
Mapping shells                                     ... done
Starting the XC term evaluation                    ... done (   0.0 sec)
  promolecular density results
     # of electrons  =      9.997988360
     EX              =     -5.946015145
     EC              =     -0.217044743
     EX+EC           =     -6.163059888
Transforming the Hamiltonian                       ... done (   0.0 sec)
Diagonalizing the Hamiltonian                      ... done (   0.0 sec)
Back transforming the eigenvectors                 ... done (   0.0 sec)
Now organizing SCF variables                       ... done
                      ------------------
                      INITIAL GUESS DONE (   0.4 sec)
                      ------------------
--------------
SCF ITERATIONS
--------------
ITER       Energy         Delta-E        Max-DP      RMS-DP      [F,P]   Gradient Norm
               ***  Starting incremental Fock matrix formation  ***
                             ****Resetting KDIIS****
                             ****Turning on KDIIS(Cayley)****
  0    -38.9179773207   0.000000000000 0.04819280  0.00418153  0.1908515   0.136875306
  1    -38.9672289921  -0.049251671384 0.08120441  0.00832226  0.1693563   0.131855871
  2    -39.0758508702  -0.108621878102 0.13094869  0.01323058  0.1264887   0.124533473
  3    -39.2389633891  -0.163112518868 0.14958152  0.02825637  0.1140944   0.103401551
  4    -39.4396332451  -0.200669856041 0.16232756  0.01812716  0.0838073   0.047397339
  5    -39.3768159696   0.062817275526 0.01630288  0.00255469  0.0835298   0.076663447
  6    -39.3963280694  -0.019512099870 0.00868710  0.00118085  0.0752903   0.069126042
  7    -39.4040025339  -0.007674464460 0.06744405  0.00963455  0.0714055   0.065682682
  8    -39.4521557472  -0.048153213304 0.01601285  0.00240204  0.0267847   0.022711773
  9    -39.4555933051  -0.003437557923 0.04773978  0.00718557  0.0187488   0.016523621
 10    -39.4591548269  -0.003561521764 0.01581118  0.00210182  0.0073978   0.006897048
 11    -39.4594510591  -0.000296232187 0.00682066  0.00101440  0.0044259   0.003511293
 12    -39.4596332504  -0.000182191295 0.00731119  0.00082391  0.0013126   0.001002961
 13    -39.4596862819  -0.000053031574 0.00627517  0.00072587  0.0007561   0.000632417
 14    -39.4597270926  -0.000040810692 0.00777591  0.00094089  0.0004480   0.000388588
 15    -39.4597533243  -0.000026231674 0.00220133  0.00029948  0.0003345   0.000265262
 16    -39.4597587945  -0.000005470145 0.00220681  0.00022915  0.0002626   0.000194448
 17    -39.4597642305  -0.000005436087 0.00427810  0.00046597  0.0002170   0.000150499
 18    -39.4597704507  -0.000006220203 0.00096128  0.00012396  0.0001217   0.000113005
                          ***Energy convergence achieved***
 19    -39.4597697660   0.000000684717 0.00194801  0.00022421  0.0001946   0.000198869
               *** Restarting incremental Fock matrix formation ***
                             ****Resetting KDIIS****
 20    -39.4597712448  -0.000001478768 0.00001540  0.00000235  0.0000578   0.000046453
                          ***Energy convergence achieved***
 21    -39.4597712603  -0.000000015510 0.00003413  0.00000516  0.0000513   0.000044587
 22    -39.4597712938  -0.000000033512 0.00016358  0.00002365  0.0000500   0.000043604
 23    -39.4597714428  -0.000000148977 0.00135012  0.00019284  0.0000455   0.000041487
 24    -39.4597725308  -0.000001088051 0.00218287  0.00030570  0.0000412   0.000035840
 25    -39.4597738819  -0.000001351089 0.00061912  0.00008466  0.0000431   0.000029491
                          ***Energy convergence achieved***
 26    -39.4597742071  -0.000000325195 0.00119095  0.00016272  0.0000394   0.000027928
 27    -39.4597747668  -0.000000559717 0.00390572  0.00052900  0.0000366   0.000025821
 28    -39.4597759442  -0.000001177401 0.00111249  0.00014993  0.0000182   0.000015093
                          ***Energy convergence achieved***
 29    -39.4597760820  -0.000000137726 0.00028491  0.00003655  0.0000171   0.000012756

            ***Energy convergence in two consecutive cycles with***
                    ***'reasonable' density convergence***
                       *** signaling convergence ***

                    *** KDIIS BlockDiag ( 0.000 sec) ***

               *****************************************************
               *                     SUCCESS                       *
               *           SCF CONVERGED AFTER  30 CYCLES          *
               *****************************************************

Setting up the final grid:

General Integration Accuracy     IntAcc      ...  4.670
Radial Grid Type                 RadialGrid  ... Gauss-Chebyshev
Angular Grid (max. acc.)         AngularGrid ... Lebedev-302
Angular grid pruning method      GridPruning ... 3 (G Style)
Weight generation scheme         WeightScheme... Becke
Basis function cutoff            BFCut       ...    1.0000e-10
Integration weight cutoff        WCut        ...    1.0000e-14
Grids for H and He will be reduced by one unit

# of grid points (after initial pruning)     ...  19788 (   0.0 sec)
# of grid points (after weights+screening)   ...  19701 (   0.0 sec)
nearest neighbour list constructed           ...    0.0 sec
Grid point re-assignment to atoms done       ...    0.0 sec
Grid point division into batches done        ...    0.1 sec
Reduced shell lists constructed in    0.1 sec

Total number of grid points                  ...    19701
Total number of batches                      ...      311
Average number of points per batch           ...       63
Average number of grid points per atom       ...     3940
Average number of shells per batch           ...     8.34 (59.57%)
Average number of basis functions per batch  ...    13.40 (60.90%)
Average number of large shells per batch     ...     5.60 (67.10%)
Average number of large basis fcns per batch ...     9.38 (70.00%)
Maximum spatial batch extension              ...  20.64, 18.62, 17.26 au
Average spatial batch extension              ...   3.84,  3.63,  3.58 au

Final grid set up in    0.2 sec
Final integration                            ... done (   0.5 sec)
Change in XC energy                          ...    -0.000400725
Integrated number of electrons               ...    10.000001093
Previous integrated no of electrons          ...    10.000151992

----------------
TOTAL SCF ENERGY
----------------

Total Energy       :          -39.46017683 Eh           -1073.76600 eV

Components:
Nuclear Repulsion  :            4.10479230 Eh             111.69708 eV
Electronic Energy  :          -43.56496913 Eh           -1185.46308 eV
One Electron Energy:          -60.20300714 Eh           -1638.20711 eV
Two Electron Energy:           16.63803801 Eh             452.74403 eV

Virial components:
Potential Energy   :          -78.54159933 Eh           -2137.22557 eV
Kinetic Energy     :           39.08142250 Eh            1063.45957 eV
Virial Ratio       :            2.00969142


DFT components:
N(Alpha)           :        5.000000546483 electrons
N(Beta)            :        5.000000546483 electrons
N(Total)           :       10.000001092967 electrons
E(XC)              :       -3.949074138671 Eh       

---------------
SCF CONVERGENCE
---------------

  Last Energy change         ...   -2.4839e-08  Tolerance :   1.0000e-06
  Last MAX-Density change    ...    6.2419e-05  Tolerance :   1.0000e-05
  Last RMS-Density change    ...    7.8377e-06  Tolerance :   1.0000e-06
  Last DIIS Error            ...    1.9149e-05  Tolerance :   1.0000e-06

             **** THE GBW FILE WAS UPDATED (Scan_31.gbw) ****
             **** DENSITY FILE WAS UPDATED (Scan_31.scfp.tmp) ****
             **** ENERGY FILE WAS UPDATED (Scan_31.en.tmp) ****
----------------
ORBITAL ENERGIES
----------------

  NO   OCC          E(Eh)            E(eV) 
   0   2.0000     -10.541674      -286.8535 
   1   2.0000      -0.712291       -19.3824 
   2   2.0000      -0.302688        -8.2366 
   3   2.0000      -0.300171        -8.1681 
   4   2.0000      -0.298659        -8.1269 
   5   0.0000      -0.183954        -5.0056 
   6   0.0000      -0.131478        -3.5777 
   7   0.0000      -0.128301        -3.4912 
   8   0.0000      -0.126246        -3.4353 
   9   0.0000       0.580192        15.7878 
  10   0.0000       0.581165        15.8143 
  11   0.0000       0.581275        15.8173 
  12   0.0000       0.625468        17.0198 
  13   0.0000       0.874895        23.8071 
  14   0.0000       0.875608        23.8265 
  15   0.0000       0.876036        23.8382 
  16   0.0000       0.880786        23.9674 
  17   0.0000       1.698897        46.2293 
  18   0.0000       1.699051        46.2335 
  19   0.0000       1.699802        46.2540 
  20   0.0000       1.700053        46.2608 
  21   0.0000       1.700294        46.2673 

                    ********************************
                    * MULLIKEN POPULATION ANALYSIS *
                    ********************************

-----------------------
MULLIKEN ATOMIC CHARGES
-----------------------
   0 C :    0.149311
   1 H :   -0.034431
   2 H :   -0.038405
   3 H :   -0.038363
   4 H :   -0.038112
Sum of atomic charges:    0.0000000

--------------------------------
MULLIKEN REDUCED ORBITAL CHARGES
--------------------------------
  0 C s       :     3.993356  s :     3.993356
      pz      :     0.601181  p :     1.857175
      px      :     0.665267
      py      :     0.590727
      dz2     :     0.000040  d :     0.000158
      dxz     :     0.000017
      dyz     :     0.000035
      dx2y2   :     0.000049
      dxy     :     0.000017
  1 H s       :     1.034431  s :     1.034431
  2 H s       :     1.038405  s :     1.038405
  3 H s       :     1.038363  s :     1.038363
  4 H s       :     1.038112  s :     1.038112


                     *******************************
                     * LOEWDIN POPULATION ANALYSIS *
                     *******************************

----------------------
LOEWDIN ATOMIC CHARGES
----------------------
   0 C :    0.139031
   1 H :   -0.031810
   2 H :   -0.035861
   3 H :   -0.035815
   4 H :   -0.035545

-------------------------------
LOEWDIN REDUCED ORBITAL CHARGES
-------------------------------
  0 C s       :     3.993173  s :     3.993173
      pz      :     0.604659  p :     1.867633
      px      :     0.668780
      py      :     0.594194
      dz2     :     0.000042  d :     0.000164
      dxz     :     0.000017
      dyz     :     0.000036
      dx2y2   :     0.000051
      dxy     :     0.000018
  1 H s       :     1.031810  s :     1.031810
  2 H s       :     1.035861  s :     1.035861
  3 H s       :     1.035815  s :     1.035815
  4 H s       :     1.035545  s :     1.035545


                      *****************************
                      * MAYER POPULATION ANALYSIS *
                      *****************************

  NA   - Mulliken gross atomic population
  ZA   - Total nuclear charge
  QA   - Mulliken gross atomic charge
  VA   - Mayer's total valence
  BVA  - Mayer's bonded valence
  FA   - Mayer's free valence

  ATOM       NA         ZA         QA         VA         BVA        FA
  0 C      5.8507     6.0000     0.1493     2.5733     2.5733     0.0000
  1 H      1.0344     1.0000    -0.0344     0.9989     0.9989     0.0000
  2 H      1.0384     1.0000    -0.0384     0.9986     0.9986    -0.0000
  3 H      1.0384     1.0000    -0.0384     0.9986     0.9986     0.0000
  4 H      1.0381     1.0000    -0.0381     0.9986     0.9986    -0.0000

  Mayer bond orders larger than 0.1
B(  0-C ,  1-H ) :   0.6900 B(  0-C ,  2-H ) :   0.6217 B(  0-C ,  3-H ) :   0.6243 
B(  0-C ,  4-H ) :   0.6372 B(  1-H ,  2-H ) :   0.1043 B(  1-H ,  4-H ) :   0.1083 
B(  2-H ,  3-H ) :   0.1487 B(  2-H ,  4-H ) :   0.1238 B(  3-H ,  4-H ) :   0.1293 


-------
TIMINGS
-------

Total SCF time: 0 days 0 hours 0 min 32 sec 

Total time                  ....      32.876 sec
Sum of individual times     ....      31.172 sec  ( 94.8%)

Fock matrix formation       ....      30.433 sec  ( 92.6%)
  XC integration            ....       5.885 sec  ( 19.3% of F)
    Basis function eval.    ....       1.006 sec  ( 17.1% of XC)
    Density eval.           ....       0.202 sec  (  3.4% of XC)
    XC-Functional eval.     ....       1.323 sec  ( 22.5% of XC)
    XC-Potential eval.      ....       0.082 sec  (  1.4% of XC)
Diagonalization             ....       0.117 sec  (  0.4%)
Density matrix formation    ....       0.000 sec  (  0.0%)
Population analysis         ....       0.033 sec  (  0.1%)
Initial guess               ....       0.213 sec  (  0.6%)
Orbital Transformation      ....       0.000 sec  (  0.0%)
Orbital Orthonormalization  ....       0.000 sec  (  0.0%)
DIIS solution               ....       0.000 sec  (  0.0%)
Grid generation             ....       0.375 sec  (  1.1%)


-------------------------------------------------------------------------------
                          DFT DISPERSION CORRECTION                            
                                                                               
                              DFTD3 V3.1  Rev 1                                
                              USING zero damping                               
-------------------------------------------------------------------------------
The omegaB97X-D3 functional is recognized. Fit by Chai et al.
Active option DFTDOPT                   ...         3   

molecular C6(AA) [au] = 319.260828 


            DFT-D V3
 parameters
 s6 scaling factor         :     1.0000 
 rs6 scaling factor        :     1.2810 
 s8 scaling factor         :     1.0000 
 rs8 scaling factor        :     1.0940 
 Damping factor alpha6     :    14.0000 
 Damping factor alpha8     :    16.0000 
 ad hoc parameters k1-k3   :    16.0000     1.3333    -4.0000 

 Edisp/kcal,au: -0.468721523115  -0.000746955213 
 E6   /kcal   :  -0.270413475 
 E8   /kcal   :  -0.198308049 
 % E8         :  42.308287275 

-------------------------   ----------------
Dispersion correction           -0.000746955
-------------------------   ----------------


-------------------------   --------------------
FINAL SINGLE POINT ENERGY       -39.460923787186
-------------------------   --------------------


                            ***************************************
                            *     ORCA property calculations      *
                            ***************************************

                                    ---------------------
                                    Active property flags
                                    ---------------------
   (+) Dipole Moment


------------------------------------------------------------------------------
                       ORCA ELECTRIC PROPERTIES CALCULATION
------------------------------------------------------------------------------

Dipole Moment Calculation                       ... on
Quadrupole Moment Calculation                   ... off
Polarizability Calculation                      ... off
GBWName                                         ... Scan_31.gbw
Electron density file                           ... Scan_31.scfp.tmp

-------------
DIPOLE MOMENT
-------------
                                X             Y             Z
Electronic contribution:      0.02588       0.00080      -0.00112
Nuclear contribution   :     -0.00000      -0.00000       0.00000
                        -----------------------------------------
Total Dipole Moment    :      0.02588       0.00080      -0.00112
                        -----------------------------------------
Magnitude (a.u.)       :      0.02592
Magnitude (Debye)      :      0.06588


Timings for individual modules:

Sum of individual times         ...       34.007 sec (=   0.567 min)
GTO integral calculation        ...        0.910 sec (=   0.015 min)   2.7 %
SCF iterations                  ...       33.097 sec (=   0.552 min)  97.3 %
                             ****ORCA TERMINATED NORMALLY****
TOTAL RUN TIME: 0 days 0 hours 0 minutes 35 seconds 459 msec
