
                                 *****************
                                 * O   R   C   A *
                                 *****************

           --- An Ab Initio, DFT and Semiempirical electronic structure package ---

                  #######################################################
                  #                        -***-                        #
                  #  Department of molecular theory and spectroscopy    #
                  #              Directorship: Frank Neese              #
                  # Max Planck Institute for Chemical Energy Conversion #
                  #                  D-45470 Muelheim/Ruhr              #
                  #                       Germany                       #
                  #                                                     #
                  #                  All rights reserved                #
                  #                        -***-                        #
                  #######################################################


                         Program Version 4.0.0.2 - RELEASE -


 With contributions from (in alphabetic order):
   Daniel Aravena         : Magnetic Properties
   Michael Atanasov       : Ab Initio Ligand Field Theory
   Ute Becker             : Parallelization
   Martin Brehm           : Molecular dynamics
   Dmytro Bykov           : SCF Hessian
   Vijay G. Chilkuri      : MRCI spin determinant printing
   Dipayan Datta          : RHF DLPNO-CCSD density
   Achintya Kumar Dutta   : EOM-CC, STEOM-CC
   Dmitry Ganyushin       : Spin-Orbit,Spin-Spin,Magnetic field MRCI
   Yang Guo               : DLPNO-NEVPT2, CIM, IAO-localization
   Andreas Hansen         : Spin unrestricted coupled pair/coupled cluster methods
   Lee Huntington         : MR-EOM, pCC
   Robert Izsak           : Overlap fitted RIJCOSX, COSX-SCS-MP3, EOM
   Christian Kollmar      : KDIIS, OOCD, Brueckner-CCSD(T), CCSD density
   Simone Kossmann        : Meta GGA functionals, TD-DFT gradient, OOMP2, MP2 Hessian
   Martin Krupicka        : AUTO-CI
   Dagmar Lenk            : GEPOL surface
   Dimitrios Liakos       : Extrapolation schemes; parallel MDCI
   Dimitrios Manganas     : ROCIS; embedding schemes
   Dimitrios Pantazis     : SARC Basis sets
   Taras Petrenko         : DFT Hessian,TD-DFT gradient, ASA, ECA, R-Raman, ABS, FL, XAS/XES, NRVS
   Peter Pinski           : DLPNO-MP2
   Christoph Reimann      : Effective Core Potentials
   Marius Retegan         : Local ZFS, SOC
   Christoph Riplinger    : Optimizer, TS searches, QM/MM, DLPNO-CCSD(T), (RO)-DLPNO pert. Triples
   Tobias Risthaus        : Range-separated hybrids, TD-DFT gradient, RPA, STAB
   Michael Roemelt        : Restricted open shell CIS
   Masaaki Saitow         : Open-shell DLPNO
   Barbara Sandhoefer     : DKH picture change effects
   Kantharuban Sivalingam : CASSCF convergence, NEVPT2, FIC-MRCI
   Georgi Stoychev        : AutoAux
   Boris Wezisla          : Elementary symmetry handling
   Frank Wennmohs         : Technical directorship


 We gratefully acknowledge several colleagues who have allowed us to
 interface, adapt or use parts of their codes:
   Stefan Grimme, W. Hujo, H. Kruse,             : VdW corrections, initial TS optimization,
                  C. Bannwarth                     DFT functionals, gCP, sTDA/sTD-DF
   Ed Valeev                                     : LibInt (2-el integral package), F12 methods
   Garnet Chan, S. Sharma, J. Yang, R. Olivares  : DMRG
   Ulf Ekstrom                                   : XCFun DFT Library
   Mihaly Kallay                                 : mrcc  (arbitrary order and MRCC methods)
   Jiri Pittner, Ondrej Demel                    : Mk-CCSD
   Frank Weinhold                                : gennbo (NPA and NBO analysis)
   Christopher J. Cramer and Donald G. Truhlar   : smd solvation model


 Your calculation uses the libint2 library for the computation of 2-el integrals
 For citations please refer to: http://libint.valeyev.net

 This ORCA versions uses:
   CBLAS   interface :  Fast vector & matrix operations
   LAPACKE interface :  Fast linear algebra routines
   SCALAPACK package :  Parallel linear algebra routines


Your calculation utilizes the atom-pairwise dispersion correction
with the zero-damping scheme (D30)
Cite in your paper:
S.Grimme, J.Antony, S.Ehrlich and H.Krieg, J.Chem.Phys., 132, (2010), 154104 
   

XCFun DFT library Copyright 2009-2010 Ulf Ekstrom and contributors.
See http://admol.org/xcfun for more information. This is free soft-
ware; see the source code for copying conditions. There is ABSOLUTELY
NO WARRANTY; not even for MERCHANTABILITY or FITNESS FOR A PARTICULAR
PURPOSE. For details see the documentation. Scientific users of this 
library should cite U. Ekstrom, L. Visscher, R. Bast, A. J. Thorvald-
sen and K. Ruud; J.Chem.Theor.Comp. 2010, DOI: 10.1021/ct100117s
XCFun Version 0.99 
Your calculation utilizes the basis: 6-31G(d)
   H-He, Li-Ne : W. J. Hehre, R. Ditchfield and J.A. Pople, J. Chem. Phys. 56, 2257 (1972).
                 Note: He and Ne are unpublished basis sets taken from the Gaussian program.
                 Note: Li and B from J. D. Dill and J. A. Pople, J. Chem. Phys. 62, 2921 (1975).
   Na - Ar     : M. M. Francl, W. J. Pietro, W. J. Hehre, J. S. Binkley, M. S. Gordon, 
                 D. J. DeFrees and J. A. Pople, J. Chem. Phys. 77, 3654 (1982).
   K - Zn      : V. A. Rassolov, J. A. Pople, M. A. Ratner, and T. L. Windus, J. Chem. Phys. 109, 1223 (1998).

================================================================================
                                        WARNINGS
                       Please study these warnings very carefully!
================================================================================

Warning: TCutStore was < 0. Adjusted to Thresh (uncritical)

INFO   : the flag for use of LIBINT has been found!

================================================================================
                                       INPUT FILE
================================================================================
NAME = initial32.inp
|  1> ! WB97X-D3 6-31G(d) VerySlowConv
|  2> ! KDIIS NOSOSCF
|  3> %base "Scan_32"
|  4> 
|  5> %scf
|  6> maxiter 999
|  7> end
|  8> 
|  9> * xyz 0 1
| 10> C         -4.472707977288    1.925920799124    0.000001810773
| 11> H         -0.802602563349    1.925916132651   -0.000013171826
| 12> H         -5.696061685822    2.887322854238    3.323973161825
| 13> H         -5.696082586534   -1.433418458315   -0.829376309015
| 14> H         -5.696085187006    4.323858672303   -2.494575491757
| 15> **                         ****END OF INPUT****
================================================================================

                       ****************************
                       * Single Point Calculation *
                       ****************************

---------------------------------
CARTESIAN COORDINATES (ANGSTROEM)
---------------------------------
  C     -4.472708    1.925921    0.000002
  H     -0.802603    1.925916   -0.000013
  H     -5.696062    2.887323    3.323973
  H     -5.696083   -1.433418   -0.829376
  H     -5.696085    4.323859   -2.494575

----------------------------
CARTESIAN COORDINATES (A.U.)
----------------------------
  NO LB      ZA    FRAG     MASS         X           Y           Z
   0 C     6.0000    0    12.011   -8.452193    3.639463    0.000003
   1 H     1.0000    0     1.008   -1.516699    3.639454   -0.000025
   2 H     1.0000    0     1.008  -10.763997    5.456249    6.281399
   3 H     1.0000    0     1.008  -10.764036   -2.708768   -1.567294
   4 H     1.0000    0     1.008  -10.764041    8.170909   -4.714064

--------------------------------
INTERNAL COORDINATES (ANGSTROEM)
--------------------------------
 C      0   0   0     0.000000000000     0.00000000     0.00000000
 H      1   0   0     3.670105413973     0.00000000     0.00000000
 H      1   2   0     3.670105414069   109.47122112     0.00000000
 H      1   2   3     3.670105413568   109.47119548   240.00005014
 H      1   2   3     3.670105415268   109.47124718   120.00005407

---------------------------
INTERNAL COORDINATES (A.U.)
---------------------------
 C      0   0   0     0.000000000000     0.00000000     0.00000000
 H      1   0   0     6.935494115030     0.00000000     0.00000000
 H      1   2   0     6.935494115211   109.47122112     0.00000000
 H      1   2   3     6.935494114265   109.47119548   240.00005014
 H      1   2   3     6.935494117478   109.47124718   120.00005407

---------------------
BASIS SET INFORMATION
---------------------
There are 2 groups of distinct atoms

 Group   1 Type C   : 10s4p1d contracted to 3s2p1d pattern {631/31/1}
 Group   2 Type H   : 4s contracted to 2s pattern {31}

Atom   0C    basis set group =>   1
Atom   1H    basis set group =>   2
Atom   2H    basis set group =>   2
Atom   3H    basis set group =>   2
Atom   4H    basis set group =>   2
------------------------------------------------------------------------------
                           ORCA GTO INTEGRAL CALCULATION
------------------------------------------------------------------------------

                         BASIS SET STATISTICS AND STARTUP INFO

 # of primitive gaussian shells          ...   31
 # of primitive gaussian functions       ...   43
 # of contracted shells                  ...   14
 # of contracted basis functions         ...   22
 Highest angular momentum                ...    2
 Maximum contraction depth               ...    6
 Integral package used                   ... LIBINT
 Integral threshhold            Thresh   ...  1.000e-10
 Primitive cut-off              TCut     ...  1.000e-11


------------------------------ INTEGRAL EVALUATION ----------------------------


 * One electron integrals 
 Pre-screening matrix                    ... done
 Shell pair data                         ... done (   0.000 sec)

-------------------------------------------------------------------------------
                                 ORCA SCF
-------------------------------------------------------------------------------

------------
SCF SETTINGS
------------
Hamiltonian:
 Density Functional     Method          .... DFT(GTOs)
 Exchange Functional    Exchange        .... WB97X-D3
 Correlation Functional Correlation     .... WB97X-D3
 Gradients option       PostSCFGGA      .... off
 Hybrid DFT is turned on
   Fraction HF Exchange ScalHFX         ....  0.195728
   Scaling of DF-GGA-X  ScalDFX         ....  0.000000
   Scaling of DF-GGA-C  ScalDFC         ....  1.000000
   Scaling of DF-LDA-C  ScalLDAC        ....  1.000000
   Perturbative correction              ....  0.000000
 Long-range corrected/Screened/Range-Separated Hybrid DFT is turned on
   Amount of maximum screened exact exchange              ....  0.804272
   Range separation parameter mu (erf(mu*r12)/r12)        ....  0.250000


General Settings:
 Integral files         IntName         .... Scan_32
 Hartree-Fock type      HFTyp           .... RHF
 Total Charge           Charge          ....    0
 Multiplicity           Mult            ....    1
 Number of Electrons    NEL             ....   10
 Basis Dimension        Dim             ....   22
 Nuclear Repulsion      ENuc            ....      3.9902325852 Eh

Convergence Acceleration:
 DIIS                   CNVDIIS         .... on
   Start iteration      DIISMaxIt       ....     0
   Startup error        DIISStart       ....  0.200000
   # of expansion vecs  DIISMaxEq       ....     5
   Bias factor          DIISBfac        ....   1.050
   Max. coefficient     DIISMaxC        ....  10.000
 Newton-Raphson         CNVNR           .... off
 SOSCF                  CNVSOSCF        .... off
 Level Shifting         CNVShift        .... off
 Zerner damping         CNVZerner       .... off
 Static damping         CNVDamp         .... off
 Fernandez-Rico         CNVRico         .... off

SCF Procedure:
 Maximum # iterations   MaxIter         ....   999
 SCF integral mode      SCFMode         .... Direct
   Integral package                     .... LIBINT
 Reset frequeny         DirectResetFreq ....    20
 Integral Threshold     Thresh          ....  1.000e-10 Eh
 Primitive CutOff       TCut            ....  1.000e-11 Eh

Convergence Tolerance:
 Convergence Check Mode ConvCheckMode   .... All-Criteria
 Convergence forced     ConvForced      .... 0
 Energy Change          TolE            ....  1.000e-06 Eh
 Max Density Change     TolMaxP         ....  1.000e-05
 RMS Density Change     TolRMSP         ....  1.000e-06
 DIIS Error             TolErr          ....  1.000e-06


Diagonalization of the overlap matrix:
Smallest eigenvalue                        ... 1.852e-01
Time for diagonalization                   ...    0.001 sec
Threshold for overlap eigenvalues          ... 1.000e-08
Number of eigenvalues below threshold      ... 0
Time for construction of square roots      ...    0.016 sec
Total time needed                          ...    0.017 sec

-------------------
DFT GRID GENERATION
-------------------

General Integration Accuracy     IntAcc      ...  4.340
Radial Grid Type                 RadialGrid  ... Gauss-Chebyshev
Angular Grid (max. acc.)         AngularGrid ... Lebedev-110
Angular grid pruning method      GridPruning ... 3 (G Style)
Weight generation scheme         WeightScheme... Becke
Basis function cutoff            BFCut       ...    1.0000e-10
Integration weight cutoff        WCut        ...    1.0000e-14
Grids for H and He will be reduced by one unit

# of grid points (after initial pruning)     ...   4832 (   0.0 sec)
# of grid points (after weights+screening)   ...   4801 (   0.0 sec)
nearest neighbour list constructed           ...    0.0 sec
Grid point re-assignment to atoms done       ...    0.0 sec
Grid point division into batches done        ...    0.0 sec
Reduced shell lists constructed in    0.0 sec

Total number of grid points                  ...     4801
Total number of batches                      ...       76
Average number of points per batch           ...       63
Average number of grid points per atom       ...      960
Average number of shells per batch           ...     9.23 (65.96%)
Average number of basis functions per batch  ...    15.05 (68.42%)
Average number of large shells per batch     ...     6.62 (71.73%)
Average number of large basis fcns per batch ...    11.27 (74.89%)
Maximum spatial batch extension              ...  21.59, 25.60, 18.77 au
Average spatial batch extension              ...   6.32,  5.84,  5.45 au

Time for grid setup =    0.078 sec

------------------------------
INITIAL GUESS: MODEL POTENTIAL
------------------------------
Loading Hartree-Fock densities                     ... done
Calculating cut-offs                               ... done
Setting up the integral package                    ... done
Initializing the effective Hamiltonian             ... done
Starting the Coulomb interaction                   ... done (   0.0 sec)
Reading the grid                                   ... done
Mapping shells                                     ... done
Starting the XC term evaluation                    ... done (   0.0 sec)
  promolecular density results
     # of electrons  =      9.998041917
     EX              =     -5.945865991
     EC              =     -0.216883191
     EX+EC           =     -6.162749182
Transforming the Hamiltonian                       ... done (   0.0 sec)
Diagonalizing the Hamiltonian                      ... done (   0.0 sec)
Back transforming the eigenvectors                 ... done (   0.0 sec)
Now organizing SCF variables                       ... done
                      ------------------
                      INITIAL GUESS DONE (   0.3 sec)
                      ------------------
--------------
SCF ITERATIONS
--------------
ITER       Energy         Delta-E        Max-DP      RMS-DP      [F,P]   Gradient Norm
               ***  Starting incremental Fock matrix formation  ***
                             ****Resetting KDIIS****
                             ****Turning on KDIIS(Cayley)****
  0    -38.8743618754   0.000000000000 0.04960555  0.00426920  0.1967383   0.133984509
  1    -38.9219225772  -0.047560701754 0.08396219  0.00835905  0.1751703   0.129030669
  2    -39.0263168351  -0.104394257930 0.13874434  0.01303116  0.1324007   0.122983901
  3    -39.1803670033  -0.154050168212 0.15986563  0.02934208  0.1148403   0.106718525
  4    -39.4230565129  -0.242689509605 0.21051628  0.01760514  0.0856965   0.046942606
  5    -39.3732471901   0.049809322804 0.01935209  0.00303948  0.0792393   0.073734428
  6    -39.3948676156  -0.021620425466 0.05160721  0.00628547  0.0685243   0.064087919
  7    -39.3532564031   0.041611212489 0.19483594  0.02876557  0.0871245   0.079415590
  8    -39.4266386272  -0.073382224047 0.02297115  0.00343422  0.0475081   0.040122978
  9    -39.4338474029  -0.007208775705 0.01708053  0.00243069  0.0360950   0.031380329
 10    -39.4302520753   0.003595327557 0.01502422  0.00215274  0.0413892   0.035622583
 11    -39.4235694964   0.006682578954 0.08545924  0.01199559  0.0501129   0.043131343
 12    -39.4451195149  -0.021550018578 0.00759320  0.00093092  0.0015412   0.001855518
 13    -39.4452253118  -0.000105796843 0.01050358  0.00130003  0.0014879   0.001564387
 14    -39.4453386054  -0.000113293618 0.02219811  0.00274930  0.0010382   0.000992978
 15    -39.4454285141  -0.000089908735 0.00384795  0.00043163  0.0005713   0.000484777
 16    -39.4454350990  -0.000006584852 0.00181177  0.00026893  0.0004669   0.000302312
 17    -39.4454390898  -0.000003990779 0.00504428  0.00066628  0.0003179   0.000231798
 18    -39.4454558185  -0.000016728698 0.00231711  0.00029116  0.0002704   0.000171590
 19    -39.4454603225  -0.000004503987 0.00070613  0.00012311  0.0002432   0.000146144
               *** Restarting incremental Fock matrix formation ***
                             ****Resetting KDIIS****
 20    -39.4454624553  -0.000002132890 0.00005443  0.00000690  0.0001669   0.000133849
                          ***Energy convergence achieved***
 21    -39.4454625918  -0.000000136426 0.00012016  0.00001548  0.0001775   0.000131024
 22    -39.4454628970  -0.000000305209 0.00027580  0.00003580  0.0001799   0.000130257
 23    -39.4454636007  -0.000000703730 0.00057759  0.00007579  0.0001854   0.000129497
 24    -39.4454621306   0.000001470110 0.00142358  0.00018515  0.0001903   0.000128037
 25    -39.4454588770   0.000003253578 0.00286457  0.00038630  0.0001795   0.000123913
 26    -39.4454529253   0.000005951766 0.00863054  0.00117265  0.0001685   0.000120833
 27    -39.4454408076   0.000012117656 0.00424005  0.00060119  0.0000866   0.000081100
 28    -39.4454377597   0.000003047890 0.00111706  0.00014281  0.0001332   0.000083298
                          ***Energy convergence achieved***
 29    -39.4454381638  -0.000000404057 0.00031188  0.00003270  0.0000864   0.000072127
 30    -39.4454380908   0.000000072996 0.00081707  0.00009618  0.0000911   0.000066337
 31    -39.4454389006  -0.000000809803 0.00079351  0.00009277  0.0000759   0.000064114
 32    -39.4454397329  -0.000000832286 0.00109509  0.00012835  0.0000763   0.000062346
 33    -39.4454408802  -0.000001147304 0.00372059  0.00044259  0.0000751   0.000062214
 34    -39.4454448504  -0.000003970280 0.01558201  0.00188576  0.0000771   0.000061678
 35    -39.4454604918  -0.000015641397 0.00448383  0.00055380  0.0001210   0.000101695
 36    -39.4454562827   0.000004209136 0.00366019  0.00044706  0.0000947   0.000062792
 37    -39.4454597853  -0.000003502621 0.02275947  0.00281478  0.0000987   0.000085113
 38    -39.4454729642  -0.000013178872 0.03280456  0.00409204  0.0003821   0.000326011
 39    -39.4454481155   0.000024848693 0.02240180  0.00272461  0.0003696   0.000276034
               *** Restarting incremental Fock matrix formation ***
                             ****Resetting KDIIS****
 40    -39.4454693051  -0.000021189610 0.00009073  0.00000851  0.0002074   0.000153918
                          ***Energy convergence achieved***
 41    -39.4454694453  -0.000000140172 0.00009000  0.00001021  0.0001611   0.000115871
 42    -39.4454695612  -0.000000115891 0.00016382  0.00001912  0.0001425   0.000099745
 43    -39.4454697439  -0.000000182763 0.00037301  0.00005325  0.0001005   0.000070053
 44    -39.4454701130  -0.000000369089 0.00036547  0.00004569  0.0000575   0.000043222
 45    -39.4454704048  -0.000000291750 0.00092461  0.00011513  0.0000562   0.000042978
 46    -39.4454711364  -0.000000731609 0.00031170  0.00003908  0.0000557   0.000042747
 47    -39.4454713850  -0.000000248596 0.00036050  0.00004611  0.0000550   0.000042733
 48    -39.4454710920   0.000000293026 0.00020581  0.00002546  0.0000572   0.000042666
 49    -39.4454709318   0.000000160163 0.00121410  0.00015228  0.0000433   0.000043758
 50    -39.4454699898   0.000000941992 0.00069284  0.00008440  0.0000574   0.000042170
 51    -39.4454694843   0.000000505496 0.00024066  0.00003065  0.0000553   0.000041699
 52    -39.4454696377  -0.000000153436 0.00142243  0.00016947  0.0000508   0.000041573
 53    -39.4454706296  -0.000000991848 0.00094338  0.00011387  0.0000500   0.000041104
 54    -39.4454712543  -0.000000624713 0.00088063  0.00010627  0.0000495   0.000040720
 55    -39.4454718151  -0.000000560799 0.00237779  0.00030034  0.0000432   0.000040437
 56    -39.4454733047  -0.000001489593 0.00361533  0.00042452  0.0000499   0.000039318
 57    -39.4454749652  -0.000001660509 0.00107290  0.00013851  0.0000373   0.000035746
                          ***Energy convergence achieved***
 58    -39.4454755630  -0.000000597807 0.00036943  0.00004270  0.0000355   0.000035085

            ***Energy convergence in two consecutive cycles with***
                    ***'reasonable' density convergence***
                       *** signaling convergence ***

                    *** KDIIS BlockDiag ( 0.000 sec) ***

               *****************************************************
               *                     SUCCESS                       *
               *           SCF CONVERGED AFTER  59 CYCLES          *
               *****************************************************

Setting up the final grid:

General Integration Accuracy     IntAcc      ...  4.670
Radial Grid Type                 RadialGrid  ... Gauss-Chebyshev
Angular Grid (max. acc.)         AngularGrid ... Lebedev-302
Angular grid pruning method      GridPruning ... 3 (G Style)
Weight generation scheme         WeightScheme... Becke
Basis function cutoff            BFCut       ...    1.0000e-10
Integration weight cutoff        WCut        ...    1.0000e-14
Grids for H and He will be reduced by one unit

# of grid points (after initial pruning)     ...  19788 (   0.0 sec)
# of grid points (after weights+screening)   ...  19708 (   0.0 sec)
nearest neighbour list constructed           ...    0.0 sec
Grid point re-assignment to atoms done       ...    0.0 sec
Grid point division into batches done        ...    0.1 sec
Reduced shell lists constructed in    0.2 sec

Total number of grid points                  ...    19708
Total number of batches                      ...      310
Average number of points per batch           ...       63
Average number of grid points per atom       ...     3942
Average number of shells per batch           ...     8.06 (57.58%)
Average number of basis functions per batch  ...    12.91 (58.68%)
Average number of large shells per batch     ...     5.48 (67.93%)
Average number of large basis fcns per batch ...     9.19 (71.21%)
Maximum spatial batch extension              ...  20.64, 18.62, 17.30 au
Average spatial batch extension              ...   3.85,  3.64,  3.66 au

Final grid set up in    0.3 sec
Final integration                            ... done (   0.6 sec)
Change in XC energy                          ...    -0.000343908
Integrated number of electrons               ...     9.999990717
Previous integrated no of electrons          ...    10.000136498

----------------
TOTAL SCF ENERGY
----------------

Total Energy       :          -39.44581965 Eh           -1073.37532 eV

Components:
Nuclear Repulsion  :            3.99023259 Eh             108.57975 eV
Electronic Energy  :          -43.43605224 Eh           -1181.95507 eV
One Electron Energy:          -59.96226055 Eh           -1631.65606 eV
Two Electron Energy:           16.52620831 Eh             449.70099 eV

Virial components:
Potential Energy   :          -78.55811778 Eh           -2137.67506 eV
Kinetic Energy     :           39.11229813 Eh            1064.29974 eV
Virial Ratio       :            2.00852728


DFT components:
N(Alpha)           :        4.999995358635 electrons
N(Beta)            :        4.999995358635 electrons
N(Total)           :        9.999990717270 electrons
E(XC)              :       -3.953049112984 Eh       

---------------
SCF CONVERGENCE
---------------

  Last Energy change         ...   -1.7966e-07  Tolerance :   1.0000e-06
  Last MAX-Density change    ...    6.7814e-05  Tolerance :   1.0000e-05
  Last RMS-Density change    ...    7.7229e-06  Tolerance :   1.0000e-06
  Last DIIS Error            ...    3.5286e-05  Tolerance :   1.0000e-06

             **** THE GBW FILE WAS UPDATED (Scan_32.gbw) ****
             **** DENSITY FILE WAS UPDATED (Scan_32.scfp.tmp) ****
             **** ENERGY FILE WAS UPDATED (Scan_32.en.tmp) ****
----------------
ORBITAL ENERGIES
----------------

  NO   OCC          E(Eh)            E(eV) 
   0   2.0000     -10.540856      -286.8313 
   1   2.0000      -0.713521       -19.4159 
   2   2.0000      -0.302312        -8.2263 
   3   2.0000      -0.298147        -8.1130 
   4   2.0000      -0.290812        -7.9134 
   5   0.0000      -0.184552        -5.0219 
   6   0.0000      -0.138599        -3.7715 
   7   0.0000      -0.133872        -3.6429 
   8   0.0000      -0.123794        -3.3686 
   9   0.0000       0.580398        15.7934 
  10   0.0000       0.581048        15.8111 
  11   0.0000       0.581533        15.8243 
  12   0.0000       0.627063        17.0632 
  13   0.0000       0.870744        23.6941 
  14   0.0000       0.872201        23.7338 
  15   0.0000       0.873745        23.7758 
  16   0.0000       0.875984        23.8367 
  17   0.0000       1.696124        46.1539 
  18   0.0000       1.696552        46.1655 
  19   0.0000       1.697527        46.1921 
  20   0.0000       1.699983        46.2589 
  21   0.0000       1.700016        46.2598 

                    ********************************
                    * MULLIKEN POPULATION ANALYSIS *
                    ********************************

-----------------------
MULLIKEN ATOMIC CHARGES
-----------------------
   0 C :    0.158586
   1 H :   -0.033544
   2 H :   -0.044392
   3 H :   -0.042300
   4 H :   -0.038350
Sum of atomic charges:    0.0000000

--------------------------------
MULLIKEN REDUCED ORBITAL CHARGES
--------------------------------
  0 C s       :     3.994754  s :     3.994754
      pz      :     0.524638  p :     1.846537
      px      :     0.732705
      py      :     0.589194
      dz2     :     0.000031  d :     0.000123
      dxz     :     0.000012
      dyz     :     0.000028
      dx2y2   :     0.000040
      dxy     :     0.000012
  1 H s       :     1.033544  s :     1.033544
  2 H s       :     1.044392  s :     1.044392
  3 H s       :     1.042300  s :     1.042300
  4 H s       :     1.038350  s :     1.038350


                     *******************************
                     * LOEWDIN POPULATION ANALYSIS *
                     *******************************

----------------------
LOEWDIN ATOMIC CHARGES
----------------------
   0 C :    0.150364
   1 H :   -0.031347
   2 H :   -0.042486
   3 H :   -0.040308
   4 H :   -0.036224

-------------------------------
LOEWDIN REDUCED ORBITAL CHARGES
-------------------------------
  0 C s       :     3.994651  s :     3.994651
      pz      :     0.527329  p :     1.854858
      px      :     0.735568
      py      :     0.591961
      dz2     :     0.000032  d :     0.000126
      dxz     :     0.000012
      dyz     :     0.000029
      dx2y2   :     0.000041
      dxy     :     0.000012
  1 H s       :     1.031347  s :     1.031347
  2 H s       :     1.042486  s :     1.042486
  3 H s       :     1.040308  s :     1.040308
  4 H s       :     1.036224  s :     1.036224


                      *****************************
                      * MAYER POPULATION ANALYSIS *
                      *****************************

  NA   - Mulliken gross atomic population
  ZA   - Total nuclear charge
  QA   - Mulliken gross atomic charge
  VA   - Mayer's total valence
  BVA  - Mayer's bonded valence
  FA   - Mayer's free valence

  ATOM       NA         ZA         QA         VA         BVA        FA
  0 C      5.8414     6.0000     0.1586     2.5272     2.5272     0.0000
  1 H      1.0335     1.0000    -0.0335     0.9989     0.9989     0.0000
  2 H      1.0444     1.0000    -0.0444     0.9981     0.9981     0.0000
  3 H      1.0423     1.0000    -0.0423     0.9983     0.9983     0.0000
  4 H      1.0384     1.0000    -0.0384     0.9986     0.9986    -0.0000

  Mayer bond orders larger than 0.1
B(  0-C ,  1-H ) :   0.7564 B(  0-C ,  2-H ) :   0.5091 B(  0-C ,  3-H ) :   0.5757 
B(  0-C ,  4-H ) :   0.6861 B(  1-H ,  2-H ) :   0.1043 B(  2-H ,  3-H ) :   0.2373 
B(  2-H ,  4-H ) :   0.1473 B(  3-H ,  4-H ) :   0.1061 

-------
TIMINGS
-------

Total SCF time: 0 days 0 hours 1 min 0 sec 

Total time                  ....      60.483 sec
Sum of individual times     ....      57.843 sec  ( 95.6%)

Fock matrix formation       ....      57.104 sec  ( 94.4%)
  XC integration            ....      11.935 sec  ( 20.9% of F)
    Basis function eval.    ....       1.387 sec  ( 11.6% of XC)
    Density eval.           ....       0.599 sec  (  5.0% of XC)
    XC-Functional eval.     ....       3.104 sec  ( 26.0% of XC)
    XC-Potential eval.      ....       0.165 sec  (  1.4% of XC)
Diagonalization             ....       0.140 sec  (  0.2%)
Density matrix formation    ....       0.001 sec  (  0.0%)
Population analysis         ....       0.028 sec  (  0.0%)
Initial guess               ....       0.223 sec  (  0.4%)
Orbital Transformation      ....       0.000 sec  (  0.0%)
Orbital Orthonormalization  ....       0.000 sec  (  0.0%)
DIIS solution               ....       0.000 sec  (  0.0%)
Grid generation             ....       0.348 sec  (  0.6%)


-------------------------------------------------------------------------------
                          DFT DISPERSION CORRECTION                            
                                                                               
                              DFTD3 V3.1  Rev 1                                
                              USING zero damping                               
-------------------------------------------------------------------------------
The omegaB97X-D3 functional is recognized. Fit by Chai et al.
Active option DFTDOPT                   ...         3   

molecular C6(AA) [au] = 319.261340 


            DFT-D V3
 parameters
 s6 scaling factor         :     1.0000 
 rs6 scaling factor        :     1.2810 
 s8 scaling factor         :     1.0000 
 rs8 scaling factor        :     1.0940 
 Damping factor alpha6     :    14.0000 
 Damping factor alpha8     :    16.0000 
 ad hoc parameters k1-k3   :    16.0000     1.3333    -4.0000 

 Edisp/kcal,au: -0.431543594667  -0.000687708420 
 E6   /kcal   :  -0.270039789 
 E8   /kcal   :  -0.161503806 
 % E8         :  37.424679180 

-------------------------   ----------------
Dispersion correction           -0.000687708
-------------------------   ----------------


-------------------------   --------------------
FINAL SINGLE POINT ENERGY       -39.446507358993
-------------------------   --------------------


                            ***************************************
                            *     ORCA property calculations      *
                            ***************************************

                                    ---------------------
                                    Active property flags
                                    ---------------------
   (+) Dipole Moment


------------------------------------------------------------------------------
                       ORCA ELECTRIC PROPERTIES CALCULATION
------------------------------------------------------------------------------

Dipole Moment Calculation                       ... on
Quadrupole Moment Calculation                   ... off
Polarizability Calculation                      ... off
GBWName                                         ... Scan_32.gbw
Electron density file                           ... Scan_32.scfp.tmp

-------------
DIPOLE MOMENT
-------------
                                X             Y             Z
Electronic contribution:      0.05841       0.01471      -0.03346
Nuclear contribution   :     -0.00000      -0.00000       0.00000
                        -----------------------------------------
Total Dipole Moment    :      0.05841       0.01471      -0.03346
                        -----------------------------------------
Magnitude (a.u.)       :      0.06890
Magnitude (Debye)      :      0.17513


Timings for individual modules:

Sum of individual times         ...       61.659 sec (=   1.028 min)
GTO integral calculation        ...        1.020 sec (=   0.017 min)   1.7 %
SCF iterations                  ...       60.639 sec (=   1.011 min)  98.3 %
                             ****ORCA TERMINATED NORMALLY****
TOTAL RUN TIME: 0 days 0 hours 1 minutes 3 seconds 356 msec
