
                                 *****************
                                 * O   R   C   A *
                                 *****************

           --- An Ab Initio, DFT and Semiempirical electronic structure package ---

                  #######################################################
                  #                        -***-                        #
                  #  Department of molecular theory and spectroscopy    #
                  #              Directorship: Frank Neese              #
                  # Max Planck Institute for Chemical Energy Conversion #
                  #                  D-45470 Muelheim/Ruhr              #
                  #                       Germany                       #
                  #                                                     #
                  #                  All rights reserved                #
                  #                        -***-                        #
                  #######################################################


                         Program Version 4.0.0.2 - RELEASE -


 With contributions from (in alphabetic order):
   Daniel Aravena         : Magnetic Properties
   Michael Atanasov       : Ab Initio Ligand Field Theory
   Ute Becker             : Parallelization
   Martin Brehm           : Molecular dynamics
   Dmytro Bykov           : SCF Hessian
   Vijay G. Chilkuri      : MRCI spin determinant printing
   Dipayan Datta          : RHF DLPNO-CCSD density
   Achintya Kumar Dutta   : EOM-CC, STEOM-CC
   Dmitry Ganyushin       : Spin-Orbit,Spin-Spin,Magnetic field MRCI
   Yang Guo               : DLPNO-NEVPT2, CIM, IAO-localization
   Andreas Hansen         : Spin unrestricted coupled pair/coupled cluster methods
   Lee Huntington         : MR-EOM, pCC
   Robert Izsak           : Overlap fitted RIJCOSX, COSX-SCS-MP3, EOM
   Christian Kollmar      : KDIIS, OOCD, Brueckner-CCSD(T), CCSD density
   Simone Kossmann        : Meta GGA functionals, TD-DFT gradient, OOMP2, MP2 Hessian
   Martin Krupicka        : AUTO-CI
   Dagmar Lenk            : GEPOL surface
   Dimitrios Liakos       : Extrapolation schemes; parallel MDCI
   Dimitrios Manganas     : ROCIS; embedding schemes
   Dimitrios Pantazis     : SARC Basis sets
   Taras Petrenko         : DFT Hessian,TD-DFT gradient, ASA, ECA, R-Raman, ABS, FL, XAS/XES, NRVS
   Peter Pinski           : DLPNO-MP2
   Christoph Reimann      : Effective Core Potentials
   Marius Retegan         : Local ZFS, SOC
   Christoph Riplinger    : Optimizer, TS searches, QM/MM, DLPNO-CCSD(T), (RO)-DLPNO pert. Triples
   Tobias Risthaus        : Range-separated hybrids, TD-DFT gradient, RPA, STAB
   Michael Roemelt        : Restricted open shell CIS
   Masaaki Saitow         : Open-shell DLPNO
   Barbara Sandhoefer     : DKH picture change effects
   Kantharuban Sivalingam : CASSCF convergence, NEVPT2, FIC-MRCI
   Georgi Stoychev        : AutoAux
   Boris Wezisla          : Elementary symmetry handling
   Frank Wennmohs         : Technical directorship


 We gratefully acknowledge several colleagues who have allowed us to
 interface, adapt or use parts of their codes:
   Stefan Grimme, W. Hujo, H. Kruse,             : VdW corrections, initial TS optimization,
                  C. Bannwarth                     DFT functionals, gCP, sTDA/sTD-DF
   Ed Valeev                                     : LibInt (2-el integral package), F12 methods
   Garnet Chan, S. Sharma, J. Yang, R. Olivares  : DMRG
   Ulf Ekstrom                                   : XCFun DFT Library
   Mihaly Kallay                                 : mrcc  (arbitrary order and MRCC methods)
   Jiri Pittner, Ondrej Demel                    : Mk-CCSD
   Frank Weinhold                                : gennbo (NPA and NBO analysis)
   Christopher J. Cramer and Donald G. Truhlar   : smd solvation model


 Your calculation uses the libint2 library for the computation of 2-el integrals
 For citations please refer to: http://libint.valeyev.net

 This ORCA versions uses:
   CBLAS   interface :  Fast vector & matrix operations
   LAPACKE interface :  Fast linear algebra routines
   SCALAPACK package :  Parallel linear algebra routines


Your calculation utilizes the atom-pairwise dispersion correction
with the zero-damping scheme (D30)
Cite in your paper:
S.Grimme, J.Antony, S.Ehrlich and H.Krieg, J.Chem.Phys., 132, (2010), 154104 
   

XCFun DFT library Copyright 2009-2010 Ulf Ekstrom and contributors.
See http://admol.org/xcfun for more information. This is free soft-
ware; see the source code for copying conditions. There is ABSOLUTELY
NO WARRANTY; not even for MERCHANTABILITY or FITNESS FOR A PARTICULAR
PURPOSE. For details see the documentation. Scientific users of this 
library should cite U. Ekstrom, L. Visscher, R. Bast, A. J. Thorvald-
sen and K. Ruud; J.Chem.Theor.Comp. 2010, DOI: 10.1021/ct100117s
XCFun Version 0.99 
Your calculation utilizes the basis: 6-31G(d)
   H-He, Li-Ne : W. J. Hehre, R. Ditchfield and J.A. Pople, J. Chem. Phys. 56, 2257 (1972).
                 Note: He and Ne are unpublished basis sets taken from the Gaussian program.
                 Note: Li and B from J. D. Dill and J. A. Pople, J. Chem. Phys. 62, 2921 (1975).
   Na - Ar     : M. M. Francl, W. J. Pietro, W. J. Hehre, J. S. Binkley, M. S. Gordon, 
                 D. J. DeFrees and J. A. Pople, J. Chem. Phys. 77, 3654 (1982).
   K - Zn      : V. A. Rassolov, J. A. Pople, M. A. Ratner, and T. L. Windus, J. Chem. Phys. 109, 1223 (1998).

================================================================================
                                        WARNINGS
                       Please study these warnings very carefully!
================================================================================

Warning: TCutStore was < 0. Adjusted to Thresh (uncritical)

INFO   : the flag for use of LIBINT has been found!

================================================================================
                                       INPUT FILE
================================================================================
NAME = initial33.inp
|  1> ! WB97X-D3 6-31G(d) VerySlowConv
|  2> ! KDIIS NOSOSCF
|  3> %base "Scan_33"
|  4> 
|  5> %scf
|  6> maxiter 999
|  7> end
|  8> 
|  9> * xyz 0 1
| 10> C         -4.472707977997    1.925920867339    0.000001785934
| 11> H         -0.700229219058    1.925915985262   -0.000013577161
| 12> H         -5.730185716428    2.914140032437    3.416691500639
| 13> H         -5.730207181823   -1.527123294619   -0.852510825890
| 14> H         -5.730209904695    4.390746409581   -2.564158883522
| 15> **                         ****END OF INPUT****
================================================================================

                       ****************************
                       * Single Point Calculation *
                       ****************************

---------------------------------
CARTESIAN COORDINATES (ANGSTROEM)
---------------------------------
  C     -4.472708    1.925921    0.000002
  H     -0.700229    1.925916   -0.000014
  H     -5.730186    2.914140    3.416692
  H     -5.730207   -1.527123   -0.852511
  H     -5.730210    4.390746   -2.564159

----------------------------
CARTESIAN COORDINATES (A.U.)
----------------------------
  NO LB      ZA    FRAG     MASS         X           Y           Z
   0 C     6.0000    0    12.011   -8.452193    3.639463    0.000003
   1 H     1.0000    0     1.008   -1.323241    3.639454   -0.000026
   2 H     1.0000    0     1.008  -10.828482    5.506927    6.456611
   3 H     1.0000    0     1.008  -10.828522   -2.885845   -1.611012
   4 H     1.0000    0     1.008  -10.828527    8.297308   -4.845558

--------------------------------
INTERNAL COORDINATES (ANGSTROEM)
--------------------------------
 C      0   0   0     0.000000000000     0.00000000     0.00000000
 H      1   0   0     3.772478758973     0.00000000     0.00000000
 H      1   2   0     3.772478759051   109.47122082     0.00000000
 H      1   2   3     3.772478758770   109.47119395   240.00005331
 H      1   2   3     3.772478759135   109.47124890   120.00005685

---------------------------
INTERNAL COORDINATES (A.U.)
---------------------------
 C      0   0   0     0.000000000000     0.00000000     0.00000000
 H      1   0   0     7.128951700495     0.00000000     0.00000000
 H      1   2   0     7.128951700641   109.47122082     0.00000000
 H      1   2   3     7.128951700111   109.47119395   240.00005331
 H      1   2   3     7.128951700800   109.47124890   120.00005685

---------------------
BASIS SET INFORMATION
---------------------
There are 2 groups of distinct atoms

 Group   1 Type C   : 10s4p1d contracted to 3s2p1d pattern {631/31/1}
 Group   2 Type H   : 4s contracted to 2s pattern {31}

Atom   0C    basis set group =>   1
Atom   1H    basis set group =>   2
Atom   2H    basis set group =>   2
Atom   3H    basis set group =>   2
Atom   4H    basis set group =>   2
------------------------------------------------------------------------------
                           ORCA GTO INTEGRAL CALCULATION
------------------------------------------------------------------------------

                         BASIS SET STATISTICS AND STARTUP INFO

 # of primitive gaussian shells          ...   31
 # of primitive gaussian functions       ...   43
 # of contracted shells                  ...   14
 # of contracted basis functions         ...   22
 Highest angular momentum                ...    2
 Maximum contraction depth               ...    6
 Integral package used                   ... LIBINT
 Integral threshhold            Thresh   ...  1.000e-10
 Primitive cut-off              TCut     ...  1.000e-11


------------------------------ INTEGRAL EVALUATION ----------------------------


 * One electron integrals 
 Pre-screening matrix                    ... done
 Shell pair data                         ... done (   0.000 sec)

-------------------------------------------------------------------------------
                                 ORCA SCF
-------------------------------------------------------------------------------

------------
SCF SETTINGS
------------
Hamiltonian:
 Density Functional     Method          .... DFT(GTOs)
 Exchange Functional    Exchange        .... WB97X-D3
 Correlation Functional Correlation     .... WB97X-D3
 Gradients option       PostSCFGGA      .... off
 Hybrid DFT is turned on
   Fraction HF Exchange ScalHFX         ....  0.195728
   Scaling of DF-GGA-X  ScalDFX         ....  0.000000
   Scaling of DF-GGA-C  ScalDFC         ....  1.000000
   Scaling of DF-LDA-C  ScalLDAC        ....  1.000000
   Perturbative correction              ....  0.000000
 Long-range corrected/Screened/Range-Separated Hybrid DFT is turned on
   Amount of maximum screened exact exchange              ....  0.804272
   Range separation parameter mu (erf(mu*r12)/r12)        ....  0.250000


General Settings:
 Integral files         IntName         .... Scan_33
 Hartree-Fock type      HFTyp           .... RHF
 Total Charge           Charge          ....    0
 Multiplicity           Mult            ....    1
 Number of Electrons    NEL             ....   10
 Basis Dimension        Dim             ....   22
 Nuclear Repulsion      ENuc            ....      3.8819500786 Eh

Convergence Acceleration:
 DIIS                   CNVDIIS         .... on
   Start iteration      DIISMaxIt       ....     0
   Startup error        DIISStart       ....  0.200000
   # of expansion vecs  DIISMaxEq       ....     5
   Bias factor          DIISBfac        ....   1.050
   Max. coefficient     DIISMaxC        ....  10.000
 Newton-Raphson         CNVNR           .... off
 SOSCF                  CNVSOSCF        .... off
 Level Shifting         CNVShift        .... off
 Zerner damping         CNVZerner       .... off
 Static damping         CNVDamp         .... off
 Fernandez-Rico         CNVRico         .... off

SCF Procedure:
 Maximum # iterations   MaxIter         ....   999
 SCF integral mode      SCFMode         .... Direct
   Integral package                     .... LIBINT
 Reset frequeny         DirectResetFreq ....    20
 Integral Threshold     Thresh          ....  1.000e-10 Eh
 Primitive CutOff       TCut            ....  1.000e-11 Eh

Convergence Tolerance:
 Convergence Check Mode ConvCheckMode   .... All-Criteria
 Convergence forced     ConvForced      .... 0
 Energy Change          TolE            ....  1.000e-06 Eh
 Max Density Change     TolMaxP         ....  1.000e-05
 RMS Density Change     TolRMSP         ....  1.000e-06
 DIIS Error             TolErr          ....  1.000e-06


Diagonalization of the overlap matrix:
Smallest eigenvalue                        ... 1.857e-01
Time for diagonalization                   ...    0.000 sec
Threshold for overlap eigenvalues          ... 1.000e-08
Number of eigenvalues below threshold      ... 0
Time for construction of square roots      ...    0.004 sec
Total time needed                          ...    0.005 sec

-------------------
DFT GRID GENERATION
-------------------

General Integration Accuracy     IntAcc      ...  4.340
Radial Grid Type                 RadialGrid  ... Gauss-Chebyshev
Angular Grid (max. acc.)         AngularGrid ... Lebedev-110
Angular grid pruning method      GridPruning ... 3 (G Style)
Weight generation scheme         WeightScheme... Becke
Basis function cutoff            BFCut       ...    1.0000e-10
Integration weight cutoff        WCut        ...    1.0000e-14
Grids for H and He will be reduced by one unit

# of grid points (after initial pruning)     ...   4832 (   0.0 sec)
# of grid points (after weights+screening)   ...   4804 (   0.0 sec)
nearest neighbour list constructed           ...    0.0 sec
Grid point re-assignment to atoms done       ...    0.0 sec
Grid point division into batches done        ...    0.0 sec
Reduced shell lists constructed in    0.0 sec

Total number of grid points                  ...     4804
Total number of batches                      ...       77
Average number of points per batch           ...       62
Average number of grid points per atom       ...      961
Average number of shells per batch           ...     9.06 (64.74%)
Average number of basis functions per batch  ...    14.78 (67.19%)
Average number of large shells per batch     ...     6.60 (72.84%)
Average number of large basis fcns per batch ...    11.37 (76.93%)
Maximum spatial batch extension              ...  21.59, 25.60, 18.77 au
Average spatial batch extension              ...   6.34,  5.86,  5.51 au

Time for grid setup =    0.026 sec

------------------------------
INITIAL GUESS: MODEL POTENTIAL
------------------------------
Loading Hartree-Fock densities                     ... done
Calculating cut-offs                               ... done
Setting up the integral package                    ... done
Initializing the effective Hamiltonian             ... done
Starting the Coulomb interaction                   ... done (   0.0 sec)
Reading the grid                                   ... done
Mapping shells                                     ... done
Starting the XC term evaluation                    ... done (   0.0 sec)
  promolecular density results
     # of electrons  =      9.998097597
     EX              =     -5.945773127
     EC              =     -0.216741744
     EX+EC           =     -6.162514871
Transforming the Hamiltonian                       ... done (   0.0 sec)
Diagonalizing the Hamiltonian                      ... done (   0.0 sec)
Back transforming the eigenvectors                 ... done (   0.0 sec)
Now organizing SCF variables                       ... done
                      ------------------
                      INITIAL GUESS DONE (   0.1 sec)
                      ------------------
--------------
SCF ITERATIONS
--------------
ITER       Energy         Delta-E        Max-DP      RMS-DP      [F,P]   Gradient Norm
               ***  Starting incremental Fock matrix formation  ***
                             ****Resetting KDIIS****
                             ****Turning on KDIIS(Cayley)****
  0    -38.8372996082   0.000000000000 0.05085775  0.00433724  0.2016646   0.131111171
  1    -38.8823528776  -0.045053269429 0.08622225  0.00847316  0.1801490   0.125988625
  2    -38.9828102551  -0.100457377454 0.14198509  0.01322717  0.1374334   0.120871745
  3    -39.1372933502  -0.154483095108 0.15852013  0.02996693  0.1139537   0.107930378
  4    -39.4076171211  -0.270323770954 0.24822602  0.01747959  0.0845275   0.046762495
  5    -39.3819920299   0.025625091285 0.00414077  0.00063866  0.0679870   0.064872899
  6    -39.3780672779   0.003924751927 0.07037747  0.00888505  0.0701793   0.066877259
  7    -39.3172938709   0.060773407016 0.07233990  0.00911216  0.0931480   0.086795844
  8    -39.3678331207  -0.050539249825 0.06625878  0.00920237  0.0708234   0.063939597
  9    -39.4189370617  -0.051103940951 0.08420392  0.00829508  0.0302556   0.028473214
 10    -39.4303159431  -0.011378881445 0.04024164  0.00424747  0.0110729   0.011309875
 11    -39.4322745421  -0.001958599004 0.00563476  0.00076280  0.0016426   0.001624392
 12    -39.4323428056  -0.000068263439 0.00232424  0.00035623  0.0009705   0.000822729
 13    -39.4323622426  -0.000019437071 0.00147966  0.00023859  0.0004958   0.000458473
 14    -39.4323729964  -0.000010753709 0.00260688  0.00034433  0.0003912   0.000340615
 15    -39.4323887957  -0.000015799302 0.00600436  0.00077771  0.0002882   0.000296679
 16    -39.4324205175  -0.000031721879 0.00244500  0.00027513  0.0003993   0.000282879
 17    -39.4324314813  -0.000010963739 0.00048368  0.00004986  0.0003965   0.000272942
 18    -39.4324294319   0.000002049364 0.00540961  0.00058542  0.0004119   0.000273565
 19    -39.4324098578   0.000019574153 0.01268878  0.00128926  0.0003126   0.000253518
               *** Restarting incremental Fock matrix formation ***
                             ****Resetting KDIIS****
 20    -39.4323729798   0.000036878002 0.00011839  0.00001287  0.0003489   0.000247500
                          ***Energy convergence achieved***
 21    -39.4323733786  -0.000000398829 0.00024150  0.00002232  0.0002965   0.000212824
 22    -39.4323740241  -0.000000645514 0.00060971  0.00005694  0.0002975   0.000202042
 23    -39.4323756182  -0.000001594141 0.00206505  0.00019935  0.0002846   0.000188503
 24    -39.4323703610   0.000005257200 0.00788695  0.00073895  0.0002503   0.000176724
 25    -39.4323521177   0.000018243344 0.00282845  0.00026234  0.0002076   0.000166451
 26    -39.4323466283   0.000005489423 0.00437853  0.00041301  0.0002105   0.000160702
 27    -39.4323403979   0.000006230379 0.00378093  0.00034893  0.0001800   0.000188080
 28    -39.4323344873   0.000005910567 0.00569579  0.00067964  0.0002005   0.000151438
 29    -39.4323333241   0.000001163213 0.00461803  0.00042471  0.0001638   0.000124301
 30    -39.4323301272   0.000003196873 0.00031124  0.00003597  0.0001306   0.000112714
                          ***Energy convergence achieved***
 31    -39.4323305105  -0.000000383217 0.00073560  0.00006996  0.0001384   0.000111899
 32    -39.4323313514  -0.000000840923 0.00024793  0.00002931  0.0001493   0.000112672
 33    -39.4323317970  -0.000000445579 0.00175020  0.00015920  0.0001684   0.000115270
 34    -39.4323303830   0.000001413975 0.00090357  0.00008209  0.0001601   0.000112946
                          ***Energy convergence achieved***
 35    -39.4323299964   0.000000386555 0.00032533  0.00003689  0.0001608   0.000113345
 36    -39.4323298602   0.000000136197 0.00832486  0.00080304  0.0001574   0.000113062
 37    -39.4323183164   0.000011543829 0.00466473  0.00043681  0.0001135   0.000110146
 38    -39.4323226202  -0.000004303778 0.01037508  0.00114937  0.0001516   0.000112605
 39    -39.4323109969   0.000011623309 0.00116477  0.00016827  0.0000930   0.000089569
               *** Restarting incremental Fock matrix formation ***
                             ****Resetting KDIIS****
                          ***Energy convergence achieved***
 40    -39.4323108196   0.000000177227 0.00002681  0.00000379  0.0000932   0.000073906

            ***Energy convergence in two consecutive cycles with***
                    ***'reasonable' density convergence***
                       *** signaling convergence ***

                    *** KDIIS BlockDiag ( 0.000 sec) ***

               *****************************************************
               *                     SUCCESS                       *
               *           SCF CONVERGED AFTER  41 CYCLES          *
               *****************************************************

Setting up the final grid:

General Integration Accuracy     IntAcc      ...  4.670
Radial Grid Type                 RadialGrid  ... Gauss-Chebyshev
Angular Grid (max. acc.)         AngularGrid ... Lebedev-302
Angular grid pruning method      GridPruning ... 3 (G Style)
Weight generation scheme         WeightScheme... Becke
Basis function cutoff            BFCut       ...    1.0000e-10
Integration weight cutoff        WCut        ...    1.0000e-14
Grids for H and He will be reduced by one unit

# of grid points (after initial pruning)     ...  19788 (   0.0 sec)
# of grid points (after weights+screening)   ...  19714 (   0.0 sec)
nearest neighbour list constructed           ...    0.0 sec
Grid point re-assignment to atoms done       ...    0.0 sec
Grid point division into batches done        ...    0.0 sec
Reduced shell lists constructed in    0.1 sec

Total number of grid points                  ...    19714
Total number of batches                      ...      310
Average number of points per batch           ...       63
Average number of grid points per atom       ...     3943
Average number of shells per batch           ...     7.76 (55.42%)
Average number of basis functions per batch  ...    12.46 (56.64%)
Average number of large shells per batch     ...     5.42 (69.83%)
Average number of large basis fcns per batch ...     9.16 (73.52%)
Maximum spatial batch extension              ...  20.64, 18.62, 17.35 au
Average spatial batch extension              ...   3.89,  3.69,  3.72 au

Final grid set up in    0.1 sec
Final integration                            ... done (   0.1 sec)
Change in XC energy                          ...    -0.000394937
Integrated number of electrons               ...     9.999983084
Previous integrated no of electrons          ...     9.999686042

----------------
TOTAL SCF ENERGY
----------------

Total Energy       :          -39.43270580 Eh           -1073.01848 eV

Components:
Nuclear Repulsion  :            3.88195008 Eh             105.63323 eV
Electronic Energy  :          -43.31465588 Eh           -1178.65171 eV
One Electron Energy:          -59.73487500 Eh           -1625.46859 eV
Two Electron Energy:           16.42021912 Eh             446.81688 eV

Virial components:
Potential Energy   :          -78.56796961 Eh           -2137.94314 eV
Kinetic Energy     :           39.13526381 Eh            1064.92467 eV
Virial Ratio       :            2.00760036


DFT components:
N(Alpha)           :        4.999991542227 electrons
N(Beta)            :        4.999991542227 electrons
N(Total)           :        9.999983084454 electrons
E(XC)              :       -3.954974909586 Eh       

---------------
SCF CONVERGENCE
---------------

  Last Energy change         ...   -4.2079e-08  Tolerance :   1.0000e-06
  Last MAX-Density change    ...    6.7038e-05  Tolerance :   1.0000e-05
  Last RMS-Density change    ...    9.7027e-06  Tolerance :   1.0000e-06
  Last DIIS Error            ...    9.2132e-05  Tolerance :   1.0000e-06

             **** THE GBW FILE WAS UPDATED (Scan_33.gbw) ****
             **** DENSITY FILE WAS UPDATED (Scan_33.scfp.tmp) ****
             **** ENERGY FILE WAS UPDATED (Scan_33.en.tmp) ****
----------------
ORBITAL ENERGIES
----------------

  NO   OCC          E(Eh)            E(eV) 
   0   2.0000     -10.540761      -286.8287 
   1   2.0000      -0.715089       -19.4586 
   2   2.0000      -0.294592        -8.0163 
   3   2.0000      -0.293530        -7.9873 
   4   2.0000      -0.293399        -7.9838 
   5   0.0000      -0.185280        -5.0417 
   6   0.0000      -0.136567        -3.7162 
   7   0.0000      -0.135243        -3.6801 
   8   0.0000      -0.135094        -3.6761 
   9   0.0000       0.580411        15.7938 
  10   0.0000       0.580913        15.8074 
  11   0.0000       0.580984        15.8094 
  12   0.0000       0.627953        17.0875 
  13   0.0000       0.869417        23.6580 
  14   0.0000       0.869843        23.6696 
  15   0.0000       0.870115        23.6770 
  16   0.0000       0.871371        23.7112 
  17   0.0000       1.695939        46.1488 
  18   0.0000       1.696074        46.1525 
  19   0.0000       1.696259        46.1576 
  20   0.0000       1.696465        46.1631 
  21   0.0000       1.696622        46.1674 

                    ********************************
                    * MULLIKEN POPULATION ANALYSIS *
                    ********************************

-----------------------
MULLIKEN ATOMIC CHARGES
-----------------------
   0 C :    0.165884
   1 H :   -0.041561
   2 H :   -0.041704
   3 H :   -0.041872
   4 H :   -0.040747
Sum of atomic charges:   -0.0000000

--------------------------------
MULLIKEN REDUCED ORBITAL CHARGES
--------------------------------
  0 C s       :     3.995548  s :     3.995548
      pz      :     0.617886  p :     1.838471
      px      :     0.602952
      py      :     0.617633
      dz2     :     0.000024  d :     0.000096
      dxz     :     0.000011
      dyz     :     0.000021
      dx2y2   :     0.000030
      dxy     :     0.000011
  1 H s       :     1.041561  s :     1.041561
  2 H s       :     1.041704  s :     1.041704
  3 H s       :     1.041872  s :     1.041872
  4 H s       :     1.040747  s :     1.040747


                     *******************************
                     * LOEWDIN POPULATION ANALYSIS *
                     *******************************

----------------------
LOEWDIN ATOMIC CHARGES
----------------------
   0 C :    0.159192
   1 H :   -0.039901
   2 H :   -0.040034
   3 H :   -0.040202
   4 H :   -0.039054

-------------------------------
LOEWDIN REDUCED ORBITAL CHARGES
-------------------------------
  0 C s       :     3.995504  s :     3.995504
      pz      :     0.620136  p :     1.845206
      px      :     0.605187
      py      :     0.619884
      dz2     :     0.000024  d :     0.000098
      dxz     :     0.000011
      dyz     :     0.000022
      dx2y2   :     0.000030
      dxy     :     0.000011
  1 H s       :     1.039901  s :     1.039901
  2 H s       :     1.040034  s :     1.040034
  3 H s       :     1.040202  s :     1.040202
  4 H s       :     1.039054  s :     1.039054


                      *****************************
                      * MAYER POPULATION ANALYSIS *
                      *****************************

  NA   - Mulliken gross atomic population
  ZA   - Total nuclear charge
  QA   - Mulliken gross atomic charge
  VA   - Mayer's total valence
  BVA  - Mayer's bonded valence
  FA   - Mayer's free valence

  ATOM       NA         ZA         QA         VA         BVA        FA
  0 C      5.8341     6.0000     0.1659     2.5587     2.5587    -0.0000
  1 H      1.0416     1.0000    -0.0416     0.9983     0.9983    -0.0000
  2 H      1.0417     1.0000    -0.0417     0.9983     0.9983     0.0000
  3 H      1.0419     1.0000    -0.0419     0.9983     0.9983     0.0000
  4 H      1.0407     1.0000    -0.0407     0.9984     0.9984    -0.0000

  Mayer bond orders larger than 0.1
B(  0-C ,  1-H ) :   0.6294 B(  0-C ,  2-H ) :   0.6359 B(  0-C ,  3-H ) :   0.6354 
B(  0-C ,  4-H ) :   0.6580 B(  1-H ,  2-H ) :   0.1265 B(  1-H ,  3-H ) :   0.1272 
B(  1-H ,  4-H ) :   0.1152 B(  2-H ,  3-H ) :   0.1232 B(  2-H ,  4-H ) :   0.1127 
B(  3-H ,  4-H ) :   0.1125 

-------
TIMINGS
-------

Total SCF time: 0 days 0 hours 0 min 11 sec 

Total time                  ....      11.531 sec
Sum of individual times     ....      11.173 sec  ( 96.9%)

Fock matrix formation       ....      10.874 sec  ( 94.3%)
  XC integration            ....       2.050 sec  ( 18.9% of F)
    Basis function eval.    ....       0.422 sec  ( 20.6% of XC)
    Density eval.           ....       0.087 sec  (  4.3% of XC)
    XC-Functional eval.     ....       0.708 sec  ( 34.5% of XC)
    XC-Potential eval.      ....       0.031 sec  (  1.5% of XC)
Diagonalization             ....       0.024 sec  (  0.2%)
Density matrix formation    ....       0.000 sec  (  0.0%)
Population analysis         ....       0.008 sec  (  0.1%)
Initial guess               ....       0.111 sec  (  1.0%)
Orbital Transformation      ....       0.000 sec  (  0.0%)
Orbital Orthonormalization  ....       0.000 sec  (  0.0%)
DIIS solution               ....       0.000 sec  (  0.0%)
Grid generation             ....       0.155 sec  (  1.3%)


-------------------------------------------------------------------------------
                          DFT DISPERSION CORRECTION                            
                                                                               
                              DFTD3 V3.1  Rev 1                                
                              USING zero damping                               
-------------------------------------------------------------------------------
The omegaB97X-D3 functional is recognized. Fit by Chai et al.
Active option DFTDOPT                   ...         3   

molecular C6(AA) [au] = 319.261747 


            DFT-D V3
 parameters
 s6 scaling factor         :     1.0000 
 rs6 scaling factor        :     1.2810 
 s8 scaling factor         :     1.0000 
 rs8 scaling factor        :     1.0940 
 Damping factor alpha6     :    14.0000 
 Damping factor alpha8     :    16.0000 
 ad hoc parameters k1-k3   :    16.0000     1.3333    -4.0000 

 Edisp/kcal,au: -0.392258660423  -0.000625103898 
 E6   /kcal   :  -0.260915335 
 E8   /kcal   :  -0.131343326 
 % E8         :  33.483856167 

-------------------------   ----------------
Dispersion correction           -0.000625104
-------------------------   ----------------


-------------------------   --------------------
FINAL SINGLE POINT ENERGY       -39.433330902570
-------------------------   --------------------


                            ***************************************
                            *     ORCA property calculations      *
                            ***************************************

                                    ---------------------
                                    Active property flags
                                    ---------------------
   (+) Dipole Moment


------------------------------------------------------------------------------
                       ORCA ELECTRIC PROPERTIES CALCULATION
------------------------------------------------------------------------------

Dipole Moment Calculation                       ... on
Quadrupole Moment Calculation                   ... off
Polarizability Calculation                      ... off
GBWName                                         ... Scan_33.gbw
Electron density file                           ... Scan_33.scfp.tmp

-------------
DIPOLE MOMENT
-------------
                                X             Y             Z
Electronic contribution:     -0.00173       0.00546      -0.00414
Nuclear contribution   :     -0.00000      -0.00000       0.00000
                        -----------------------------------------
Total Dipole Moment    :     -0.00173       0.00545      -0.00414
                        -----------------------------------------
Magnitude (a.u.)       :      0.00706
Magnitude (Debye)      :      0.01795


Timings for individual modules:

Sum of individual times         ...       11.869 sec (=   0.198 min)
GTO integral calculation        ...        0.316 sec (=   0.005 min)   2.7 %
SCF iterations                  ...       11.552 sec (=   0.193 min)  97.3 %
                             ****ORCA TERMINATED NORMALLY****
TOTAL RUN TIME: 0 days 0 hours 0 minutes 12 seconds 185 msec
