
                                 *****************
                                 * O   R   C   A *
                                 *****************

           --- An Ab Initio, DFT and Semiempirical electronic structure package ---

                  #######################################################
                  #                        -***-                        #
                  #  Department of molecular theory and spectroscopy    #
                  #              Directorship: Frank Neese              #
                  # Max Planck Institute for Chemical Energy Conversion #
                  #                  D-45470 Muelheim/Ruhr              #
                  #                       Germany                       #
                  #                                                     #
                  #                  All rights reserved                #
                  #                        -***-                        #
                  #######################################################


                         Program Version 4.0.0.2 - RELEASE -


 With contributions from (in alphabetic order):
   Daniel Aravena         : Magnetic Properties
   Michael Atanasov       : Ab Initio Ligand Field Theory
   Ute Becker             : Parallelization
   Martin Brehm           : Molecular dynamics
   Dmytro Bykov           : SCF Hessian
   Vijay G. Chilkuri      : MRCI spin determinant printing
   Dipayan Datta          : RHF DLPNO-CCSD density
   Achintya Kumar Dutta   : EOM-CC, STEOM-CC
   Dmitry Ganyushin       : Spin-Orbit,Spin-Spin,Magnetic field MRCI
   Yang Guo               : DLPNO-NEVPT2, CIM, IAO-localization
   Andreas Hansen         : Spin unrestricted coupled pair/coupled cluster methods
   Lee Huntington         : MR-EOM, pCC
   Robert Izsak           : Overlap fitted RIJCOSX, COSX-SCS-MP3, EOM
   Christian Kollmar      : KDIIS, OOCD, Brueckner-CCSD(T), CCSD density
   Simone Kossmann        : Meta GGA functionals, TD-DFT gradient, OOMP2, MP2 Hessian
   Martin Krupicka        : AUTO-CI
   Dagmar Lenk            : GEPOL surface
   Dimitrios Liakos       : Extrapolation schemes; parallel MDCI
   Dimitrios Manganas     : ROCIS; embedding schemes
   Dimitrios Pantazis     : SARC Basis sets
   Taras Petrenko         : DFT Hessian,TD-DFT gradient, ASA, ECA, R-Raman, ABS, FL, XAS/XES, NRVS
   Peter Pinski           : DLPNO-MP2
   Christoph Reimann      : Effective Core Potentials
   Marius Retegan         : Local ZFS, SOC
   Christoph Riplinger    : Optimizer, TS searches, QM/MM, DLPNO-CCSD(T), (RO)-DLPNO pert. Triples
   Tobias Risthaus        : Range-separated hybrids, TD-DFT gradient, RPA, STAB
   Michael Roemelt        : Restricted open shell CIS
   Masaaki Saitow         : Open-shell DLPNO
   Barbara Sandhoefer     : DKH picture change effects
   Kantharuban Sivalingam : CASSCF convergence, NEVPT2, FIC-MRCI
   Georgi Stoychev        : AutoAux
   Boris Wezisla          : Elementary symmetry handling
   Frank Wennmohs         : Technical directorship


 We gratefully acknowledge several colleagues who have allowed us to
 interface, adapt or use parts of their codes:
   Stefan Grimme, W. Hujo, H. Kruse,             : VdW corrections, initial TS optimization,
                  C. Bannwarth                     DFT functionals, gCP, sTDA/sTD-DF
   Ed Valeev                                     : LibInt (2-el integral package), F12 methods
   Garnet Chan, S. Sharma, J. Yang, R. Olivares  : DMRG
   Ulf Ekstrom                                   : XCFun DFT Library
   Mihaly Kallay                                 : mrcc  (arbitrary order and MRCC methods)
   Jiri Pittner, Ondrej Demel                    : Mk-CCSD
   Frank Weinhold                                : gennbo (NPA and NBO analysis)
   Christopher J. Cramer and Donald G. Truhlar   : smd solvation model


 Your calculation uses the libint2 library for the computation of 2-el integrals
 For citations please refer to: http://libint.valeyev.net

 This ORCA versions uses:
   CBLAS   interface :  Fast vector & matrix operations
   LAPACKE interface :  Fast linear algebra routines
   SCALAPACK package :  Parallel linear algebra routines


Your calculation utilizes the atom-pairwise dispersion correction
with the zero-damping scheme (D30)
Cite in your paper:
S.Grimme, J.Antony, S.Ehrlich and H.Krieg, J.Chem.Phys., 132, (2010), 154104 
   

XCFun DFT library Copyright 2009-2010 Ulf Ekstrom and contributors.
See http://admol.org/xcfun for more information. This is free soft-
ware; see the source code for copying conditions. There is ABSOLUTELY
NO WARRANTY; not even for MERCHANTABILITY or FITNESS FOR A PARTICULAR
PURPOSE. For details see the documentation. Scientific users of this 
library should cite U. Ekstrom, L. Visscher, R. Bast, A. J. Thorvald-
sen and K. Ruud; J.Chem.Theor.Comp. 2010, DOI: 10.1021/ct100117s
XCFun Version 0.99 
Your calculation utilizes the basis: 6-31G(d)
   H-He, Li-Ne : W. J. Hehre, R. Ditchfield and J.A. Pople, J. Chem. Phys. 56, 2257 (1972).
                 Note: He and Ne are unpublished basis sets taken from the Gaussian program.
                 Note: Li and B from J. D. Dill and J. A. Pople, J. Chem. Phys. 62, 2921 (1975).
   Na - Ar     : M. M. Francl, W. J. Pietro, W. J. Hehre, J. S. Binkley, M. S. Gordon, 
                 D. J. DeFrees and J. A. Pople, J. Chem. Phys. 77, 3654 (1982).
   K - Zn      : V. A. Rassolov, J. A. Pople, M. A. Ratner, and T. L. Windus, J. Chem. Phys. 109, 1223 (1998).

================================================================================
                                        WARNINGS
                       Please study these warnings very carefully!
================================================================================

Warning: TCutStore was < 0. Adjusted to Thresh (uncritical)

INFO   : the flag for use of LIBINT has been found!

================================================================================
                                       INPUT FILE
================================================================================
NAME = initial36.inp
|  1> ! WB97X-D3 6-31G(d) VerySlowConv
|  2> ! KDIIS NOSOSCF
|  3> %base "Scan_36"
|  4> 
|  5> %scf
|  6> maxiter 999
|  7> end
|  8> 
|  9> * xyz 0 1
| 10> C         -4.472707993438    1.925921107765    0.000001684332
| 11> H         -0.393274109665    1.925915510216   -0.000014769844
| 12> H         -5.832502821921    2.994548329956    3.694697165334
| 13> H         -5.832525970010   -1.808086850376   -0.921877074004
| 14> H         -5.832529104966    4.591301902440   -2.772797005819
| 15> **                         ****END OF INPUT****
================================================================================

                       ****************************
                       * Single Point Calculation *
                       ****************************

---------------------------------
CARTESIAN COORDINATES (ANGSTROEM)
---------------------------------
  C     -4.472708    1.925921    0.000002
  H     -0.393274    1.925916   -0.000015
  H     -5.832503    2.994548    3.694697
  H     -5.832526   -1.808087   -0.921877
  H     -5.832529    4.591302   -2.772797

----------------------------
CARTESIAN COORDINATES (A.U.)
----------------------------
  NO LB      ZA    FRAG     MASS         X           Y           Z
   0 C     6.0000    0    12.011   -8.452193    3.639463    0.000003
   1 H     1.0000    0     1.008   -0.743180    3.639453   -0.000028
   2 H     1.0000    0     1.008  -11.021833    5.658876    6.981966
   3 H     1.0000    0     1.008  -11.021877   -3.416789   -1.742095
   4 H     1.0000    0     1.008  -11.021883    8.676303   -5.239827

--------------------------------
INTERNAL COORDINATES (ANGSTROEM)
--------------------------------
 C      0   0   0     0.000000000000     0.00000000     0.00000000
 H      1   0   0     4.079433883810     0.00000000     0.00000000
 H      1   2   0     4.079433883876   109.47121918     0.00000000
 H      1   2   3     4.079433883021   109.47118846   240.00006481
 H      1   2   3     4.079433883774   109.47125475   120.00006620

---------------------------
INTERNAL COORDINATES (A.U.)
---------------------------
 C      0   0   0     0.000000000000     0.00000000     0.00000000
 H      1   0   0     7.709012821840     0.00000000     0.00000000
 H      1   2   0     7.709012821964   109.47121918     0.00000000
 H      1   2   3     7.709012820349   109.47118846   240.00006481
 H      1   2   3     7.709012821771   109.47125475   120.00006620

---------------------
BASIS SET INFORMATION
---------------------
There are 2 groups of distinct atoms

 Group   1 Type C   : 10s4p1d contracted to 3s2p1d pattern {631/31/1}
 Group   2 Type H   : 4s contracted to 2s pattern {31}

Atom   0C    basis set group =>   1
Atom   1H    basis set group =>   2
Atom   2H    basis set group =>   2
Atom   3H    basis set group =>   2
Atom   4H    basis set group =>   2
------------------------------------------------------------------------------
                           ORCA GTO INTEGRAL CALCULATION
------------------------------------------------------------------------------

                         BASIS SET STATISTICS AND STARTUP INFO

 # of primitive gaussian shells          ...   31
 # of primitive gaussian functions       ...   43
 # of contracted shells                  ...   14
 # of contracted basis functions         ...   22
 Highest angular momentum                ...    2
 Maximum contraction depth               ...    6
 Integral package used                   ... LIBINT
 Integral threshhold            Thresh   ...  1.000e-10
 Primitive cut-off              TCut     ...  1.000e-11


------------------------------ INTEGRAL EVALUATION ----------------------------


 * One electron integrals 
 Pre-screening matrix                    ... done
 Shell pair data                         ... done (   0.000 sec)

-------------------------------------------------------------------------------
                                 ORCA SCF
-------------------------------------------------------------------------------

------------
SCF SETTINGS
------------
Hamiltonian:
 Density Functional     Method          .... DFT(GTOs)
 Exchange Functional    Exchange        .... WB97X-D3
 Correlation Functional Correlation     .... WB97X-D3
 Gradients option       PostSCFGGA      .... off
 Hybrid DFT is turned on
   Fraction HF Exchange ScalHFX         ....  0.195728
   Scaling of DF-GGA-X  ScalDFX         ....  0.000000
   Scaling of DF-GGA-C  ScalDFC         ....  1.000000
   Scaling of DF-LDA-C  ScalLDAC        ....  1.000000
   Perturbative correction              ....  0.000000
 Long-range corrected/Screened/Range-Separated Hybrid DFT is turned on
   Amount of maximum screened exact exchange              ....  0.804272
   Range separation parameter mu (erf(mu*r12)/r12)        ....  0.250000


General Settings:
 Integral files         IntName         .... Scan_36
 Hartree-Fock type      HFTyp           .... RHF
 Total Charge           Charge          ....    0
 Multiplicity           Mult            ....    1
 Number of Electrons    NEL             ....   10
 Basis Dimension        Dim             ....   22
 Nuclear Repulsion      ENuc            ....      3.5898545320 Eh

Convergence Acceleration:
 DIIS                   CNVDIIS         .... on
   Start iteration      DIISMaxIt       ....     0
   Startup error        DIISStart       ....  0.200000
   # of expansion vecs  DIISMaxEq       ....     5
   Bias factor          DIISBfac        ....   1.050
   Max. coefficient     DIISMaxC        ....  10.000
 Newton-Raphson         CNVNR           .... off
 SOSCF                  CNVSOSCF        .... off
 Level Shifting         CNVShift        .... off
 Zerner damping         CNVZerner       .... off
 Static damping         CNVDamp         .... off
 Fernandez-Rico         CNVRico         .... off

SCF Procedure:
 Maximum # iterations   MaxIter         ....   999
 SCF integral mode      SCFMode         .... Direct
   Integral package                     .... LIBINT
 Reset frequeny         DirectResetFreq ....    20
 Integral Threshold     Thresh          ....  1.000e-10 Eh
 Primitive CutOff       TCut            ....  1.000e-11 Eh

Convergence Tolerance:
 Convergence Check Mode ConvCheckMode   .... All-Criteria
 Convergence forced     ConvForced      .... 0
 Energy Change          TolE            ....  1.000e-06 Eh
 Max Density Change     TolMaxP         ....  1.000e-05
 RMS Density Change     TolRMSP         ....  1.000e-06
 DIIS Error             TolErr          ....  1.000e-06


Diagonalization of the overlap matrix:
Smallest eigenvalue                        ... 1.866e-01
Time for diagonalization                   ...    0.000 sec
Threshold for overlap eigenvalues          ... 1.000e-08
Number of eigenvalues below threshold      ... 0
Time for construction of square roots      ...    0.005 sec
Total time needed                          ...    0.005 sec

-------------------
DFT GRID GENERATION
-------------------

General Integration Accuracy     IntAcc      ...  4.340
Radial Grid Type                 RadialGrid  ... Gauss-Chebyshev
Angular Grid (max. acc.)         AngularGrid ... Lebedev-110
Angular grid pruning method      GridPruning ... 3 (G Style)
Weight generation scheme         WeightScheme... Becke
Basis function cutoff            BFCut       ...    1.0000e-10
Integration weight cutoff        WCut        ...    1.0000e-14
Grids for H and He will be reduced by one unit

# of grid points (after initial pruning)     ...   4832 (   0.0 sec)
# of grid points (after weights+screening)   ...   4810 (   0.0 sec)
nearest neighbour list constructed           ...    0.0 sec
Grid point re-assignment to atoms done       ...    0.0 sec
Grid point division into batches done        ...    0.0 sec
Reduced shell lists constructed in    0.0 sec

Total number of grid points                  ...     4810
Total number of batches                      ...       77
Average number of points per batch           ...       62
Average number of grid points per atom       ...      962
Average number of shells per batch           ...     7.97 (56.96%)
Average number of basis functions per batch  ...    13.15 (59.79%)
Average number of large shells per batch     ...     6.13 (76.85%)
Average number of large basis fcns per batch ...    10.67 (81.09%)
Maximum spatial batch extension              ...  20.51, 25.60, 18.77 au
Average spatial batch extension              ...   6.79,  6.06,  5.63 au

Time for grid setup =    0.025 sec

------------------------------
INITIAL GUESS: MODEL POTENTIAL
------------------------------
Loading Hartree-Fock densities                     ... done
Calculating cut-offs                               ... done
Setting up the integral package                    ... done
Initializing the effective Hamiltonian             ... done
Starting the Coulomb interaction                   ... done (   0.0 sec)
Reading the grid                                   ... done
Mapping shells                                     ... done
Starting the XC term evaluation                    ... done (   0.0 sec)
  promolecular density results
     # of electrons  =      9.998114972
     EX              =     -5.945493476
     EC              =     -0.216557592
     EX+EC           =     -6.162051068
Transforming the Hamiltonian                       ... done (   0.0 sec)
Diagonalizing the Hamiltonian                      ... done (   0.0 sec)
Back transforming the eigenvectors                 ... done (   0.0 sec)
Now organizing SCF variables                       ... done
                      ------------------
                      INITIAL GUESS DONE (   0.1 sec)
                      ------------------
--------------
SCF ITERATIONS
--------------
ITER       Energy         Delta-E        Max-DP      RMS-DP      [F,P]   Gradient Norm
               ***  Starting incremental Fock matrix formation  ***
                             ****Resetting KDIIS****
                             ****Turning on KDIIS(Cayley)****
  0    -38.7562222131   0.000000000000 0.05355496  0.00419827  0.2112711   0.124456637
  1    -38.7891624595  -0.032940246392 0.09160326  0.00815164  0.1907525   0.117131171
  2    -38.8628503284  -0.073687868897 0.15075883  0.01254604  0.1507331   0.110268182
  3    -38.9789393124  -0.116088983942 0.19798413  0.03053168  0.1179226   0.102797517
  4    -39.3335462826  -0.354606970242 0.08934144  0.00881070  0.0723923   0.062821701
  5    -39.3733447227  -0.039798440136 0.18220637  0.01482201  0.0717989   0.043555245
  6    -39.3156859918   0.057658730931 0.12003169  0.01688218  0.0962321   0.079234492
  7    -39.3961523252  -0.080466333428 0.07082813  0.01024131  0.0174186   0.019694601
  8    -39.3821066448   0.014045680429 0.00473643  0.00071888  0.0509409   0.039635310
  9    -39.3789128345   0.003193810294 0.01270296  0.00120897  0.0559610   0.043648584
 10    -39.3751948503   0.003717984208 0.03508090  0.00439684  0.0603125   0.046919671
 11    -39.3903353474  -0.015140497131 0.08926649  0.01180051  0.0363202   0.028356870
 12    -39.3948789229  -0.004543575480 0.00971269  0.00129938  0.0228188   0.017659395
 13    -39.3966587686  -0.001779845642 0.00561716  0.00070581  0.0174476   0.013544028
 14    -39.3962847979   0.000373970632 0.00419933  0.00048517  0.0183794   0.014318992
 15    -39.3963368427  -0.000052044727 0.03809606  0.00483448  0.0184276   0.014321444
 16    -39.3990866307  -0.002749788026 0.01604180  0.00189703  0.0033274   0.002788225
 17    -39.3993390812  -0.000252450548 0.01988847  0.00235870  0.0014175   0.001331844
 18    -39.3995187709  -0.000179689716 0.00697592  0.00079489  0.0009220   0.000690117
 19    -39.3995574402  -0.000038669226 0.01109541  0.00127112  0.0008179   0.000526830
               *** Restarting incremental Fock matrix formation ***
                             ****Resetting KDIIS****
 20    -39.3995976231  -0.000040182887 0.00017045  0.00002460  0.0007825   0.000444678
 21    -39.3995988304  -0.000001207307 0.00020037  0.00003061  0.0006183   0.000330527
 22    -39.3996001257  -0.000001295343 0.00057955  0.00009613  0.0005794   0.000307747
 23    -39.3995966826   0.000003443062 0.00616396  0.00097860  0.0005053   0.000272565
 24    -39.3995710209   0.000025661699 0.00128614  0.00019831  0.0002179   0.000176554
                          ***Energy convergence achieved***
 25    -39.3995704109   0.000000610070 0.00137388  0.00014866  0.0002076   0.000139306
 26    -39.3995730512  -0.000002640287 0.00505587  0.00056133  0.0001760   0.000127007
 27    -39.3995809656  -0.000007914427 0.00238277  0.00027209  0.0001374   0.000097260
 28    -39.3995829551  -0.000001989545 0.00059659  0.00008921  0.0001168   0.000083014
                          ***Energy convergence achieved***
 29    -39.3995836435  -0.000000688358 0.00015852  0.00002155  0.0001001   0.000080426
 30    -39.3995835302   0.000000113302 0.00059629  0.00006619  0.0001000   0.000090611
 31    -39.3995832535   0.000000276738 0.00011445  0.00001298  0.0001107   0.000081693
 32    -39.3995833327  -0.000000079212 0.00189417  0.00021750  0.0001079   0.000081650
 33    -39.3995834862  -0.000000153541 0.00033578  0.00004485  0.0000871   0.000076854
 34    -39.3995839276  -0.000000441433 0.00018400  0.00002557  0.0001034   0.000080001
 35    -39.3995838270   0.000000100666 0.00015140  0.00002647  0.0001029   0.000080448
 36    -39.3995835981   0.000000228867 0.00081360  0.00011307  0.0001016   0.000083563
 37    -39.3995831476   0.000000450490 0.00066520  0.00009356  0.0001012   0.000079617
 38    -39.3995827651   0.000000382563 0.00096296  0.00012128  0.0001088   0.000078374
 39    -39.3995827722  -0.000000007141 0.00019381  0.00002836  0.0000932   0.000076762
               *** Restarting incremental Fock matrix formation ***
                             ****Resetting KDIIS****

            ***Energy convergence in two consecutive cycles with***
                    ***'reasonable' density convergence***
                       *** signaling convergence ***

                    *** KDIIS BlockDiag ( 0.000 sec) ***

               *****************************************************
               *                     SUCCESS                       *
               *           SCF CONVERGED AFTER  40 CYCLES          *
               *****************************************************

Setting up the final grid:

General Integration Accuracy     IntAcc      ...  4.670
Radial Grid Type                 RadialGrid  ... Gauss-Chebyshev
Angular Grid (max. acc.)         AngularGrid ... Lebedev-302
Angular grid pruning method      GridPruning ... 3 (G Style)
Weight generation scheme         WeightScheme... Becke
Basis function cutoff            BFCut       ...    1.0000e-10
Integration weight cutoff        WCut        ...    1.0000e-14
Grids for H and He will be reduced by one unit

# of grid points (after initial pruning)     ...  19788 (   0.0 sec)
# of grid points (after weights+screening)   ...  19723 (   0.0 sec)
nearest neighbour list constructed           ...    0.0 sec
Grid point re-assignment to atoms done       ...    0.0 sec
Grid point division into batches done        ...    0.0 sec
Reduced shell lists constructed in    0.1 sec

Total number of grid points                  ...    19723
Total number of batches                      ...      311
Average number of points per batch           ...       63
Average number of grid points per atom       ...     3945
Average number of shells per batch           ...     6.59 (47.07%)
Average number of basis functions per batch  ...    10.84 (49.27%)
Average number of large shells per batch     ...     5.08 (77.09%)
Average number of large basis fcns per batch ...     8.51 (78.50%)
Maximum spatial batch extension              ...  20.64, 18.62, 17.53 au
Average spatial batch extension              ...   3.88,  3.73,  3.71 au

Final grid set up in    0.1 sec
Final integration                            ... done (   0.1 sec)
Change in XC energy                          ...    -0.000345814
Integrated number of electrons               ...     9.999983944
Previous integrated no of electrons          ...     9.999284482

----------------
TOTAL SCF ENERGY
----------------

Total Energy       :          -39.39992884 Eh           -1072.12657 eV

Components:
Nuclear Repulsion  :            3.58985453 Eh              97.68491 eV
Electronic Energy  :          -42.98978337 Eh           -1169.81148 eV
One Electron Energy:          -59.12963732 Eh           -1608.99923 eV
Two Electron Energy:           16.13985395 Eh             439.18775 eV

Virial components:
Potential Energy   :          -78.60042848 Eh           -2138.82639 eV
Kinetic Energy     :           39.20049964 Eh            1066.69983 eV
Virial Ratio       :            2.00508741


DFT components:
N(Alpha)           :        4.999991971943 electrons
N(Beta)            :        4.999991971943 electrons
N(Total)           :        9.999983943886 electrons
E(XC)              :       -3.963364230989 Eh       

---------------
SCF CONVERGENCE
---------------

  Last Energy change         ...   -2.5247e-07  Tolerance :   1.0000e-06
  Last MAX-Density change    ...    3.3995e-05  Tolerance :   1.0000e-05
  Last RMS-Density change    ...    4.2094e-06  Tolerance :   1.0000e-06
  Last DIIS Error            ...    1.0211e-04  Tolerance :   1.0000e-06

             **** THE GBW FILE WAS UPDATED (Scan_36.gbw) ****
             **** DENSITY FILE WAS UPDATED (Scan_36.scfp.tmp) ****
             **** ENERGY FILE WAS UPDATED (Scan_36.en.tmp) ****
----------------
ORBITAL ENERGIES
----------------

  NO   OCC          E(Eh)            E(eV) 
   0   2.0000     -10.538903      -286.7781 
   1   2.0000      -0.718066       -19.5396 
   2   2.0000      -0.285562        -7.7705 
   3   2.0000      -0.285126        -7.7587 
   4   2.0000      -0.284776        -7.7492 
   5   0.0000      -0.186557        -5.0765 
   6   0.0000      -0.144255        -3.9254 
   7   0.0000      -0.143646        -3.9088 
   8   0.0000      -0.143185        -3.8963 
   9   0.0000       0.580573        15.7982 
  10   0.0000       0.581158        15.8141 
  11   0.0000       0.581241        15.8164 
  12   0.0000       0.629497        17.1295 
  13   0.0000       0.865342        23.5471 
  14   0.0000       0.865530        23.5523 
  15   0.0000       0.865715        23.5573 
  16   0.0000       0.865802        23.5597 
  17   0.0000       1.692720        46.0612 
  18   0.0000       1.692743        46.0619 
  19   0.0000       1.692813        46.0638 
  20   0.0000       1.692966        46.0680 
  21   0.0000       1.693034        46.0698 

                    ********************************
                    * MULLIKEN POPULATION ANALYSIS *
                    ********************************

-----------------------
MULLIKEN ATOMIC CHARGES
-----------------------
   0 C :    0.184578
   1 H :   -0.045590
   2 H :   -0.046245
   3 H :   -0.046250
   4 H :   -0.046493
Sum of atomic charges:    0.0000000

--------------------------------
MULLIKEN REDUCED ORBITAL CHARGES
--------------------------------
  0 C s       :     3.997418  s :     3.997418
      pz      :     0.606562  p :     1.817953
      px      :     0.608288
      py      :     0.603103
      dz2     :     0.000013  d :     0.000051
      dxz     :     0.000006
      dyz     :     0.000011
      dx2y2   :     0.000016
      dxy     :     0.000006
  1 H s       :     1.045590  s :     1.045590
  2 H s       :     1.046245  s :     1.046245
  3 H s       :     1.046250  s :     1.046250
  4 H s       :     1.046493  s :     1.046493


                     *******************************
                     * LOEWDIN POPULATION ANALYSIS *
                     *******************************

----------------------
LOEWDIN ATOMIC CHARGES
----------------------
   0 C :    0.181174
   1 H :   -0.044740
   2 H :   -0.045392
   3 H :   -0.045397
   4 H :   -0.045645

-------------------------------
LOEWDIN REDUCED ORBITAL CHARGES
-------------------------------
  0 C s       :     3.997424  s :     3.997424
      pz      :     0.607696  p :     1.821351
      px      :     0.609420
      py      :     0.604235
      dz2     :     0.000013  d :     0.000051
      dxz     :     0.000006
      dyz     :     0.000011
      dx2y2   :     0.000016
      dxy     :     0.000006
  1 H s       :     1.044740  s :     1.044740
  2 H s       :     1.045392  s :     1.045392
  3 H s       :     1.045397  s :     1.045397
  4 H s       :     1.045645  s :     1.045645


                      *****************************
                      * MAYER POPULATION ANALYSIS *
                      *****************************

  NA   - Mulliken gross atomic population
  ZA   - Total nuclear charge
  QA   - Mulliken gross atomic charge
  VA   - Mayer's total valence
  BVA  - Mayer's bonded valence
  FA   - Mayer's free valence

  ATOM       NA         ZA         QA         VA         BVA        FA
  0 C      5.8154     6.0000     0.1846     2.5393     2.5393     0.0000
  1 H      1.0456     1.0000    -0.0456     0.9979     0.9979    -0.0000
  2 H      1.0462     1.0000    -0.0462     0.9979     0.9979    -0.0000
  3 H      1.0463     1.0000    -0.0463     0.9979     0.9979    -0.0000
  4 H      1.0465     1.0000    -0.0465     0.9979     0.9979    -0.0000

  Mayer bond orders larger than 0.1
B(  0-C ,  1-H ) :   0.6368 B(  0-C ,  2-H ) :   0.6375 B(  0-C ,  3-H ) :   0.6369 
B(  0-C ,  4-H ) :   0.6280 B(  1-H ,  2-H ) :   0.1182 B(  1-H ,  3-H ) :   0.1167 
B(  1-H ,  4-H ) :   0.1262 B(  2-H ,  3-H ) :   0.1213 B(  2-H ,  4-H ) :   0.1208 
B(  3-H ,  4-H ) :   0.1229 

-------
TIMINGS
-------

Total SCF time: 0 days 0 hours 0 min 10 sec 

Total time                  ....      10.546 sec
Sum of individual times     ....      10.191 sec  ( 96.6%)

Fock matrix formation       ....       9.922 sec  ( 94.1%)
  XC integration            ....       1.895 sec  ( 19.1% of F)
    Basis function eval.    ....       0.355 sec  ( 18.7% of XC)
    Density eval.           ....       0.080 sec  (  4.2% of XC)
    XC-Functional eval.     ....       0.658 sec  ( 34.7% of XC)
    XC-Potential eval.      ....       0.027 sec  (  1.4% of XC)
Diagonalization             ....       0.013 sec  (  0.1%)
Density matrix formation    ....       0.000 sec  (  0.0%)
Population analysis         ....       0.009 sec  (  0.1%)
Initial guess               ....       0.101 sec  (  1.0%)
Orbital Transformation      ....       0.000 sec  (  0.0%)
Orbital Orthonormalization  ....       0.000 sec  (  0.0%)
DIIS solution               ....       0.000 sec  (  0.0%)
Grid generation             ....       0.146 sec  (  1.4%)


-------------------------------------------------------------------------------
                          DFT DISPERSION CORRECTION                            
                                                                               
                              DFTD3 V3.1  Rev 1                                
                              USING zero damping                               
-------------------------------------------------------------------------------
The omegaB97X-D3 functional is recognized. Fit by Chai et al.
Active option DFTDOPT                   ...         3   

molecular C6(AA) [au] = 319.262560 


            DFT-D V3
 parameters
 s6 scaling factor         :     1.0000 
 rs6 scaling factor        :     1.2810 
 s8 scaling factor         :     1.0000 
 rs8 scaling factor        :     1.0940 
 Damping factor alpha6     :    14.0000 
 Damping factor alpha8     :    16.0000 
 ad hoc parameters k1-k3   :    16.0000     1.3333    -4.0000 

 Edisp/kcal,au: -0.275665562660  -0.000439300990 
 E6   /kcal   :  -0.204175600 
 E8   /kcal   :  -0.071489963 
 % E8         :  25.933584899 

-------------------------   ----------------
Dispersion correction           -0.000439301
-------------------------   ----------------


-------------------------   --------------------
FINAL SINGLE POINT ENERGY       -39.400368139176
-------------------------   --------------------


                            ***************************************
                            *     ORCA property calculations      *
                            ***************************************

                                    ---------------------
                                    Active property flags
                                    ---------------------
   (+) Dipole Moment


------------------------------------------------------------------------------
                       ORCA ELECTRIC PROPERTIES CALCULATION
------------------------------------------------------------------------------

Dipole Moment Calculation                       ... on
Quadrupole Moment Calculation                   ... off
Polarizability Calculation                      ... off
GBWName                                         ... Scan_36.gbw
Electron density file                           ... Scan_36.scfp.tmp

-------------
DIPOLE MOMENT
-------------
                                X             Y             Z
Electronic contribution:      0.00501      -0.00155       0.00172
Nuclear contribution   :     -0.00000      -0.00000       0.00000
                        -----------------------------------------
Total Dipole Moment    :      0.00501      -0.00155       0.00173
                        -----------------------------------------
Magnitude (a.u.)       :      0.00552
Magnitude (Debye)      :      0.01403


Timings for individual modules:

Sum of individual times         ...       10.860 sec (=   0.181 min)
GTO integral calculation        ...        0.293 sec (=   0.005 min)   2.7 %
SCF iterations                  ...       10.567 sec (=   0.176 min)  97.3 %
                             ****ORCA TERMINATED NORMALLY****
TOTAL RUN TIME: 0 days 0 hours 0 minutes 11 seconds 167 msec
