
                                 *****************
                                 * O   R   C   A *
                                 *****************

           --- An Ab Initio, DFT and Semiempirical electronic structure package ---

                  #######################################################
                  #                        -***-                        #
                  #  Department of molecular theory and spectroscopy    #
                  #              Directorship: Frank Neese              #
                  # Max Planck Institute for Chemical Energy Conversion #
                  #                  D-45470 Muelheim/Ruhr              #
                  #                       Germany                       #
                  #                                                     #
                  #                  All rights reserved                #
                  #                        -***-                        #
                  #######################################################


                         Program Version 4.0.0.2 - RELEASE -


 With contributions from (in alphabetic order):
   Daniel Aravena         : Magnetic Properties
   Michael Atanasov       : Ab Initio Ligand Field Theory
   Ute Becker             : Parallelization
   Martin Brehm           : Molecular dynamics
   Dmytro Bykov           : SCF Hessian
   Vijay G. Chilkuri      : MRCI spin determinant printing
   Dipayan Datta          : RHF DLPNO-CCSD density
   Achintya Kumar Dutta   : EOM-CC, STEOM-CC
   Dmitry Ganyushin       : Spin-Orbit,Spin-Spin,Magnetic field MRCI
   Yang Guo               : DLPNO-NEVPT2, CIM, IAO-localization
   Andreas Hansen         : Spin unrestricted coupled pair/coupled cluster methods
   Lee Huntington         : MR-EOM, pCC
   Robert Izsak           : Overlap fitted RIJCOSX, COSX-SCS-MP3, EOM
   Christian Kollmar      : KDIIS, OOCD, Brueckner-CCSD(T), CCSD density
   Simone Kossmann        : Meta GGA functionals, TD-DFT gradient, OOMP2, MP2 Hessian
   Martin Krupicka        : AUTO-CI
   Dagmar Lenk            : GEPOL surface
   Dimitrios Liakos       : Extrapolation schemes; parallel MDCI
   Dimitrios Manganas     : ROCIS; embedding schemes
   Dimitrios Pantazis     : SARC Basis sets
   Taras Petrenko         : DFT Hessian,TD-DFT gradient, ASA, ECA, R-Raman, ABS, FL, XAS/XES, NRVS
   Peter Pinski           : DLPNO-MP2
   Christoph Reimann      : Effective Core Potentials
   Marius Retegan         : Local ZFS, SOC
   Christoph Riplinger    : Optimizer, TS searches, QM/MM, DLPNO-CCSD(T), (RO)-DLPNO pert. Triples
   Tobias Risthaus        : Range-separated hybrids, TD-DFT gradient, RPA, STAB
   Michael Roemelt        : Restricted open shell CIS
   Masaaki Saitow         : Open-shell DLPNO
   Barbara Sandhoefer     : DKH picture change effects
   Kantharuban Sivalingam : CASSCF convergence, NEVPT2, FIC-MRCI
   Georgi Stoychev        : AutoAux
   Boris Wezisla          : Elementary symmetry handling
   Frank Wennmohs         : Technical directorship


 We gratefully acknowledge several colleagues who have allowed us to
 interface, adapt or use parts of their codes:
   Stefan Grimme, W. Hujo, H. Kruse,             : VdW corrections, initial TS optimization,
                  C. Bannwarth                     DFT functionals, gCP, sTDA/sTD-DF
   Ed Valeev                                     : LibInt (2-el integral package), F12 methods
   Garnet Chan, S. Sharma, J. Yang, R. Olivares  : DMRG
   Ulf Ekstrom                                   : XCFun DFT Library
   Mihaly Kallay                                 : mrcc  (arbitrary order and MRCC methods)
   Jiri Pittner, Ondrej Demel                    : Mk-CCSD
   Frank Weinhold                                : gennbo (NPA and NBO analysis)
   Christopher J. Cramer and Donald G. Truhlar   : smd solvation model


 Your calculation uses the libint2 library for the computation of 2-el integrals
 For citations please refer to: http://libint.valeyev.net

 This ORCA versions uses:
   CBLAS   interface :  Fast vector & matrix operations
   LAPACKE interface :  Fast linear algebra routines
   SCALAPACK package :  Parallel linear algebra routines


Your calculation utilizes the atom-pairwise dispersion correction
with the zero-damping scheme (D30)
Cite in your paper:
S.Grimme, J.Antony, S.Ehrlich and H.Krieg, J.Chem.Phys., 132, (2010), 154104 
   

XCFun DFT library Copyright 2009-2010 Ulf Ekstrom and contributors.
See http://admol.org/xcfun for more information. This is free soft-
ware; see the source code for copying conditions. There is ABSOLUTELY
NO WARRANTY; not even for MERCHANTABILITY or FITNESS FOR A PARTICULAR
PURPOSE. For details see the documentation. Scientific users of this 
library should cite U. Ekstrom, L. Visscher, R. Bast, A. J. Thorvald-
sen and K. Ruud; J.Chem.Theor.Comp. 2010, DOI: 10.1021/ct100117s
XCFun Version 0.99 
Your calculation utilizes the basis: 6-31G(d)
   H-He, Li-Ne : W. J. Hehre, R. Ditchfield and J.A. Pople, J. Chem. Phys. 56, 2257 (1972).
                 Note: He and Ne are unpublished basis sets taken from the Gaussian program.
                 Note: Li and B from J. D. Dill and J. A. Pople, J. Chem. Phys. 62, 2921 (1975).
   Na - Ar     : M. M. Francl, W. J. Pietro, W. J. Hehre, J. S. Binkley, M. S. Gordon, 
                 D. J. DeFrees and J. A. Pople, J. Chem. Phys. 77, 3654 (1982).
   K - Zn      : V. A. Rassolov, J. A. Pople, M. A. Ratner, and T. L. Windus, J. Chem. Phys. 109, 1223 (1998).

================================================================================
                                        WARNINGS
                       Please study these warnings very carefully!
================================================================================

Warning: TCutStore was < 0. Adjusted to Thresh (uncritical)

INFO   : the flag for use of LIBINT has been found!

================================================================================
                                       INPUT FILE
================================================================================
NAME = initial37.inp
|  1> ! WB97X-D3 6-31G(d) VerySlowConv
|  2> ! KDIIS NOSOSCF
|  3> %base "Scan_37"
|  4> 
|  5> %scf
|  6> maxiter 999
|  7> end
|  8> 
|  9> * xyz 0 1
| 10> C         -4.472707992165    1.925921185483    0.000001663158
| 11> H         -0.290981372931    1.925915353646   -0.000015177877
| 12> H         -5.866599988047    3.021344385334    3.787342502643
| 13> H         -5.866623689859   -1.901717894893   -0.944993371799
| 14> H         -5.866626956998    4.658136970431   -2.842325616125
| 15> **                         ****END OF INPUT****
================================================================================

                       ****************************
                       * Single Point Calculation *
                       ****************************

---------------------------------
CARTESIAN COORDINATES (ANGSTROEM)
---------------------------------
  C     -4.472708    1.925921    0.000002
  H     -0.290981    1.925915   -0.000015
  H     -5.866600    3.021344    3.787343
  H     -5.866624   -1.901718   -0.944993
  H     -5.866627    4.658137   -2.842326

----------------------------
CARTESIAN COORDINATES (A.U.)
----------------------------
  NO LB      ZA    FRAG     MASS         X           Y           Z
   0 C     6.0000    0    12.011   -8.452193    3.639464    0.000003
   1 H     1.0000    0     1.008   -0.549875    3.639453   -0.000029
   2 H     1.0000    0     1.008  -11.086267    5.709513    7.157040
   3 H     1.0000    0     1.008  -11.086312   -3.593726   -1.785779
   4 H     1.0000    0     1.008  -11.086318    8.802603   -5.371217

--------------------------------
INTERNAL COORDINATES (ANGSTROEM)
--------------------------------
 C      0   0   0     0.000000000000     0.00000000     0.00000000
 H      1   0   0     4.181726619272     0.00000000     0.00000000
 H      1   2   0     4.181726619159   109.47121923     0.00000000
 H      1   2   3     4.181726619232   109.47118693   240.00006762
 H      1   2   3     4.181726621695   109.47125630   120.00006906

---------------------------
INTERNAL COORDINATES (A.U.)
---------------------------
 C      0   0   0     0.000000000000     0.00000000     0.00000000
 H      1   0   0     7.902318077352     0.00000000     0.00000000
 H      1   2   0     7.902318077140   109.47121923     0.00000000
 H      1   2   3     7.902318077277   109.47118693   240.00006762
 H      1   2   3     7.902318081932   109.47125630   120.00006906

---------------------
BASIS SET INFORMATION
---------------------
There are 2 groups of distinct atoms

 Group   1 Type C   : 10s4p1d contracted to 3s2p1d pattern {631/31/1}
 Group   2 Type H   : 4s contracted to 2s pattern {31}

Atom   0C    basis set group =>   1
Atom   1H    basis set group =>   2
Atom   2H    basis set group =>   2
Atom   3H    basis set group =>   2
Atom   4H    basis set group =>   2
------------------------------------------------------------------------------
                           ORCA GTO INTEGRAL CALCULATION
------------------------------------------------------------------------------

                         BASIS SET STATISTICS AND STARTUP INFO

 # of primitive gaussian shells          ...   31
 # of primitive gaussian functions       ...   43
 # of contracted shells                  ...   14
 # of contracted basis functions         ...   22
 Highest angular momentum                ...    2
 Maximum contraction depth               ...    6
 Integral package used                   ... LIBINT
 Integral threshhold            Thresh   ...  1.000e-10
 Primitive cut-off              TCut     ...  1.000e-11


------------------------------ INTEGRAL EVALUATION ----------------------------


 * One electron integrals 
 Pre-screening matrix                    ... done
 Shell pair data                         ... done (   0.000 sec)

-------------------------------------------------------------------------------
                                 ORCA SCF
-------------------------------------------------------------------------------

------------
SCF SETTINGS
------------
Hamiltonian:
 Density Functional     Method          .... DFT(GTOs)
 Exchange Functional    Exchange        .... WB97X-D3
 Correlation Functional Correlation     .... WB97X-D3
 Gradients option       PostSCFGGA      .... off
 Hybrid DFT is turned on
   Fraction HF Exchange ScalHFX         ....  0.195728
   Scaling of DF-GGA-X  ScalDFX         ....  0.000000
   Scaling of DF-GGA-C  ScalDFC         ....  1.000000
   Scaling of DF-LDA-C  ScalLDAC        ....  1.000000
   Perturbative correction              ....  0.000000
 Long-range corrected/Screened/Range-Separated Hybrid DFT is turned on
   Amount of maximum screened exact exchange              ....  0.804272
   Range separation parameter mu (erf(mu*r12)/r12)        ....  0.250000


General Settings:
 Integral files         IntName         .... Scan_37
 Hartree-Fock type      HFTyp           .... RHF
 Total Charge           Charge          ....    0
 Multiplicity           Mult            ....    1
 Number of Electrons    NEL             ....   10
 Basis Dimension        Dim             ....   22
 Nuclear Repulsion      ENuc            ....      3.5020400773 Eh

Convergence Acceleration:
 DIIS                   CNVDIIS         .... on
   Start iteration      DIISMaxIt       ....     0
   Startup error        DIISStart       ....  0.200000
   # of expansion vecs  DIISMaxEq       ....     5
   Bias factor          DIISBfac        ....   1.050
   Max. coefficient     DIISMaxC        ....  10.000
 Newton-Raphson         CNVNR           .... off
 SOSCF                  CNVSOSCF        .... off
 Level Shifting         CNVShift        .... off
 Zerner damping         CNVZerner       .... off
 Static damping         CNVDamp         .... off
 Fernandez-Rico         CNVRico         .... off

SCF Procedure:
 Maximum # iterations   MaxIter         ....   999
 SCF integral mode      SCFMode         .... Direct
   Integral package                     .... LIBINT
 Reset frequeny         DirectResetFreq ....    20
 Integral Threshold     Thresh          ....  1.000e-10 Eh
 Primitive CutOff       TCut            ....  1.000e-11 Eh

Convergence Tolerance:
 Convergence Check Mode ConvCheckMode   .... All-Criteria
 Convergence forced     ConvForced      .... 0
 Energy Change          TolE            ....  1.000e-06 Eh
 Max Density Change     TolMaxP         ....  1.000e-05
 RMS Density Change     TolRMSP         ....  1.000e-06
 DIIS Error             TolErr          ....  1.000e-06


Diagonalization of the overlap matrix:
Smallest eigenvalue                        ... 1.867e-01
Time for diagonalization                   ...    0.000 sec
Threshold for overlap eigenvalues          ... 1.000e-08
Number of eigenvalues below threshold      ... 0
Time for construction of square roots      ...    0.004 sec
Total time needed                          ...    0.005 sec

-------------------
DFT GRID GENERATION
-------------------

General Integration Accuracy     IntAcc      ...  4.340
Radial Grid Type                 RadialGrid  ... Gauss-Chebyshev
Angular Grid (max. acc.)         AngularGrid ... Lebedev-110
Angular grid pruning method      GridPruning ... 3 (G Style)
Weight generation scheme         WeightScheme... Becke
Basis function cutoff            BFCut       ...    1.0000e-10
Integration weight cutoff        WCut        ...    1.0000e-14
Grids for H and He will be reduced by one unit

# of grid points (after initial pruning)     ...   4832 (   0.0 sec)
# of grid points (after weights+screening)   ...   4811 (   0.0 sec)
nearest neighbour list constructed           ...    0.0 sec
Grid point re-assignment to atoms done       ...    0.0 sec
Grid point division into batches done        ...    0.0 sec
Reduced shell lists constructed in    0.0 sec

Total number of grid points                  ...     4811
Total number of batches                      ...       77
Average number of points per batch           ...       62
Average number of grid points per atom       ...      962
Average number of shells per batch           ...     7.92 (56.59%)
Average number of basis functions per batch  ...    13.08 (59.44%)
Average number of large shells per batch     ...     6.04 (76.21%)
Average number of large basis fcns per batch ...    10.50 (80.29%)
Maximum spatial batch extension              ...  20.70, 25.60, 19.12 au
Average spatial batch extension              ...   6.69,  6.12,  5.72 au

Time for grid setup =    0.025 sec

------------------------------
INITIAL GUESS: MODEL POTENTIAL
------------------------------
Loading Hartree-Fock densities                     ... done
Calculating cut-offs                               ... done
Setting up the integral package                    ... done
Initializing the effective Hamiltonian             ... done
Starting the Coulomb interaction                   ... done (   0.0 sec)
Reading the grid                                   ... done
Mapping shells                                     ... done
Starting the XC term evaluation                    ... done (   0.0 sec)
  promolecular density results
     # of electrons  =      9.998030391
     EX              =     -5.945411047
     EC              =     -0.216537943
     EX+EC           =     -6.161948990
Transforming the Hamiltonian                       ... done (   0.0 sec)
Diagonalizing the Hamiltonian                      ... done (   0.0 sec)
Back transforming the eigenvectors                 ... done (   0.0 sec)
Now organizing SCF variables                       ... done
                      ------------------
                      INITIAL GUESS DONE (   0.1 sec)
                      ------------------
--------------
SCF ITERATIONS
--------------
ITER       Energy         Delta-E        Max-DP      RMS-DP      [F,P]   Gradient Norm
               ***  Starting incremental Fock matrix formation  ***
                             ****Resetting KDIIS****
                             ****Turning on KDIIS(Cayley)****
  0    -38.7309408055   0.000000000000 0.05411591  0.00427700  0.2131111   0.124418078
  1    -38.7632886871  -0.032347881550 0.09280421  0.00756812  0.1927652   0.116087073
  2    -38.8178170891  -0.054528402054 0.15330018  0.01210498  0.1555498   0.102851647
  3    -38.8894299132  -0.071612824082 0.25591925  0.01750291  0.1243090   0.089248449
  4    -38.9776473337  -0.088217420447 0.06944539  0.00875494  0.1513925   0.086529566
  5    -39.0340327088  -0.056385375182 0.13437960  0.01792097  0.1680989   0.093697159
  6    -39.2277310332  -0.193698324369 0.19792547  0.02625860  0.1269435   0.088333087
  7    -38.9401577626   0.287573270617 0.22095647  0.03350992  0.1365042   0.083469830
  8    -39.2781353327  -0.337977570073 0.34586846  0.02897908  0.0942098   0.073721371
  9    -39.0785605567   0.199574775994 0.20928506  0.03127928  0.1632141   0.091768756
 10    -39.3306417228  -0.252081166150 0.07123971  0.00718530  0.0740365   0.053638449
 11    -39.3444136997  -0.013771976882 0.47322494  0.06020615  0.0724531   0.048874406
 12    -39.1985312089   0.145882490840 0.20418886  0.02730962  0.1623477   0.112612031
 13    -39.3836226347  -0.185091425870 0.18980634  0.02875616  0.0341548   0.025422938
 14    -39.3168277182   0.066794916567 0.15453011  0.02135208  0.1171611   0.064357046
 15    -39.3911052186  -0.074277500458 0.02729157  0.00362177  0.0110567   0.007445028
 16    -39.3881630949   0.002942123682 0.01677967  0.00300181  0.0290909   0.015189424
 17    -39.3879998248   0.000163270106 0.02008524  0.00349850  0.0311706   0.015973555
 18    -39.3881111366  -0.000111311792 0.00213627  0.00029164  0.0317334   0.016104361
 19    -39.3881338535  -0.000022716850 0.08016311  0.01326233  0.0311288   0.015822110
               *** Restarting incremental Fock matrix formation ***
                             ****Resetting KDIIS****
 20    -39.3812821977   0.006851655814 0.00844705  0.00116594  0.0233854   0.020887407
 21    -39.3837266996  -0.002444501953 0.00605910  0.00081751  0.0176481   0.013634084
 22    -39.3848089946  -0.001082295005 0.01036160  0.00169603  0.0158625   0.011558760
 23    -39.3866691026  -0.001860107927 0.00943752  0.00108574  0.0129749   0.008435877
 24    -39.3873633598  -0.000694257207 0.05391623  0.00633335  0.0097378   0.005554455
 25    -39.3921210603  -0.004757700510 0.07692151  0.00976071  0.0108153   0.006477119
 26    -39.3983452520  -0.006224191751 0.30084162  0.03428703  0.0133238   0.009884981
 27    -39.3759635720   0.022381680010 0.05720756  0.00647443  0.0072233   0.005033372
 28    -39.3782978787  -0.002334306661 0.04123299  0.00452557  0.0115674   0.008405354
 29    -39.3807881460  -0.002490267291 0.13392440  0.01465477  0.0140131   0.009572721
 30    -39.3750154580   0.005772687944 0.01038542  0.00116070  0.0045225   0.002431050
 31    -39.3747540194   0.000261438665 0.04389358  0.00505318  0.0047727   0.002480049
 32    -39.3736587267   0.001095292625 0.00895797  0.00108859  0.0099715   0.006765118
 33    -39.3740359849  -0.000377258212 0.02144682  0.00309255  0.0077664   0.004938778
 34    -39.3739425531   0.000093431855 0.01206732  0.00185725  0.0102238   0.006641847
 35    -39.3745187409  -0.000576187829 0.02811465  0.00411461  0.0043064   0.002309542
 36    -39.3746838573  -0.000165116380 0.00166297  0.00024820  0.0019638   0.001688898
 37    -39.3746679321   0.000015925182 0.00840909  0.00107400  0.0019342   0.001708488
 38    -39.3747722795  -0.000104347337 0.01636100  0.00187845  0.0019359   0.001674368
 39    -39.3744224120   0.000349867465 0.03829991  0.00501795  0.0019681   0.001583391
               *** Restarting incremental Fock matrix formation ***
                             ****Resetting KDIIS****
 40    -39.3737229113   0.000699500651 0.00040069  0.00005865  0.0015776   0.001175196
 41    -39.3737324686  -0.000009557271 0.00091458  0.00014490  0.0014740   0.001105454
 42    -39.3737542228  -0.000021754158 0.00180811  0.00028599  0.0013639   0.001056768
 43    -39.3737963440  -0.000042121226 0.03039915  0.00486271  0.0013300   0.001002847
 44    -39.3732538864   0.000542457595 0.00148268  0.00019727  0.0011427   0.000993386
 45    -39.3732500650   0.000003821352 0.00428705  0.00056970  0.0010983   0.000857113
 46    -39.3732655276  -0.000015462589 0.00297091  0.00033388  0.0011099   0.000643256
 47    -39.3732956899  -0.000030162305 0.00451903  0.00052788  0.0010731   0.000660745
 48    -39.3733461014  -0.000050411464 0.00672341  0.00076231  0.0010253   0.000635416
 49    -39.3734167036  -0.000070602188 0.00171827  0.00019289  0.0010169   0.000632985
 50    -39.3733998416   0.000016862015 0.00026148  0.00004045  0.0010419   0.000632870
 51    -39.3734029855  -0.000003143874 0.00054562  0.00008108  0.0010485   0.000633526
 52    -39.3733961717   0.000006813745 0.00103197  0.00012930  0.0010381   0.000633283
 53    -39.3734081691  -0.000011997368 0.00186395  0.00025956  0.0010344   0.000636142
 54    -39.3734248283  -0.000016659201 0.00456174  0.00059863  0.0010066   0.000644503
 55    -39.3733838815   0.000040946821 0.00190025  0.00029270  0.0010560   0.000626519
 56    -39.3734047695  -0.000020888011 0.00109997  0.00017366  0.0010584   0.000629180
 57    -39.3733904548   0.000014314648 0.00391535  0.00060005  0.0010499   0.000626878
 58    -39.3733407933   0.000049661560 0.00111711  0.00017126  0.0010260   0.000614678
 59    -39.3733366542   0.000004139018 0.00224194  0.00026809  0.0010243   0.000628455
               *** Restarting incremental Fock matrix formation ***
                             ****Resetting KDIIS****
 60    -39.3733187832   0.000017871024 0.00026034  0.00003105  0.0009843   0.000602714
 61    -39.3733215959  -0.000002812689 0.00060720  0.00007114  0.0009832   0.000596142
 62    -39.3733280280  -0.000006432077 0.00164566  0.00019400  0.0009779   0.000594218
 63    -39.3733455379  -0.000017509939 0.00122547  0.00014000  0.0009695   0.000592236
 64    -39.3733580072  -0.000012469320 0.01014452  0.00112302  0.0009659   0.000589810
 65    -39.3734163178  -0.000058310604 0.00519390  0.00066105  0.0007260   0.000525611
 66    -39.3734397531  -0.000023435300 0.02112513  0.00246695  0.0007736   0.000531761
 67    -39.3735480805  -0.000108327352 0.00149676  0.00018479  0.0006891   0.000588983
 68    -39.3735535277  -0.000005447213 0.00067259  0.00008702  0.0007503   0.000653120
 69    -39.3735558479  -0.000002320221 0.01143874  0.00128634  0.0006565   0.000585535
 70    -39.3735118324   0.000044015563 0.00419637  0.00052996  0.0005619   0.000421379
 71    -39.3735390000  -0.000027167585 0.00151764  0.00025063  0.0005381   0.000403039
 72    -39.3735247213   0.000014278700 0.00625890  0.00094127  0.0005417   0.000414001
 73    -39.3734777160   0.000047005238 0.00886982  0.00097534  0.0005019   0.000359136
 74    -39.3734900776  -0.000012361616 0.00365084  0.00044897  0.0003902   0.000348524
 75    -39.3734946917  -0.000004614118 0.01191032  0.00131706  0.0003352   0.000270205
 76    -39.3735163924  -0.000021700659 0.00020782  0.00003523  0.0004531   0.000321212
                          ***Energy convergence achieved***
 77    -39.3735171839  -0.000000791478 0.00278276  0.00036076  0.0003668   0.000269066
 78    -39.3735125359   0.000004647964 0.00237566  0.00035527  0.0003886   0.000248674
 79    -39.3735205287  -0.000007992786 0.00122970  0.00019928  0.0003884   0.000245948
               *** Restarting incremental Fock matrix formation ***
                             ****Resetting KDIIS****
 80    -39.3735155519   0.000004976798 0.00007512  0.00001272  0.0003957   0.000245302
                          ***Energy convergence achieved***
 81    -39.3735160173  -0.000000465428 0.00016454  0.00002657  0.0003923   0.000243584
 82    -39.3735169912  -0.000000973825 0.00069861  0.00010253  0.0003883   0.000243770
 83    -39.3735133575   0.000003633697 0.00520404  0.00072449  0.0003655   0.000235653
Warning: badly conditioned DIIS matrix, 1 vectors out of 5 destroyed
 84    -39.3734921240   0.000021233515 0.00068820  0.00009641  0.0003295   0.000206732
 85    -39.3734951698  -0.000003045827 0.00110137  0.00015296  0.0003166   0.000205017
 86    -39.3734999985  -0.000004828704 0.00036612  0.00005100  0.0003162   0.000205205
 87    -39.3734983890   0.000001609459 0.00013194  0.00001867  0.0003157   0.000205105
                          ***Energy convergence achieved***
 88    -39.3734977999   0.000000589138 0.00357967  0.00050969  0.0003171   0.000205099
 89    -39.3734817684   0.000016031533 0.00029204  0.00004239  0.0003087   0.000205146
 90    -39.3734806136   0.000001154730 0.00105762  0.00014358  0.0003079   0.000204616
 91    -39.3734851274  -0.000004513731 0.00126496  0.00017345  0.0003068   0.000204693
 92    -39.3734796666   0.000005460762 0.00049522  0.00006841  0.0003073   0.000204592
 93    -39.3734775147   0.000002151870 0.00052802  0.00007523  0.0003084   0.000204586
 94    -39.3734751555   0.000002359206 0.00147086  0.00021101  0.0003085   0.000204555
 95    -39.3734685505   0.000006605061 0.00005976  0.00000795  0.0003105   0.000204551
                          ***Energy convergence achieved***
 96    -39.3734687946  -0.000000244141 0.00091002  0.00011923  0.0003113   0.000204510
 97    -39.3734724745  -0.000003679933 0.00307890  0.00042148  0.0003155   0.000204747
 98    -39.3734592147   0.000013259845 0.00037664  0.00005783  0.0003104   0.000204396
 99    -39.3734574893   0.000001725365 0.00314036  0.00045699  0.0003161   0.000205019
               *** Restarting incremental Fock matrix formation ***
                             ****Resetting KDIIS****
100    -39.3734432778   0.000014211513 0.00007756  0.00001049  0.0003107   0.000204407
                          ***Energy convergence achieved***
101    -39.3734436069  -0.000000329109 0.00017543  0.00002406  0.0003118   0.000204012
102    -39.3734443613  -0.000000754423 0.00040820  0.00005595  0.0003128   0.000203926
103    -39.3734461156  -0.000001754277 0.00147747  0.00020357  0.0003144   0.000203840
Warning: badly conditioned DIIS matrix, 1 vectors out of 5 destroyed
104    -39.3734397377   0.000006377896 0.00079779  0.00011154  0.0003130   0.000203699
105    -39.3734362590   0.000003478721 0.00306431  0.00041644  0.0003110   0.000203626
106    -39.3734491966  -0.000012937602 0.00131345  0.00017951  0.0003134   0.000203899
107    -39.3734548055  -0.000005608876 0.00041861  0.00006088  0.0003100   0.000203335
108    -39.3734529112   0.000001894266 0.00451114  0.00063594  0.0003097   0.000203338
109    -39.3734330807   0.000019830536 0.03481958  0.00489817  0.0003079   0.000203194
110    -39.3732797867   0.000153293947 0.01497532  0.00209565  0.0012324   0.000988742
111    -39.3731887182   0.000091068492 0.01608255  0.00202242  0.0028091   0.002242473
112    -39.3731287284   0.000059989793 0.05585629  0.00758408  0.0031585   0.002539240
113    -39.3733820510  -0.000253322591 0.00288899  0.00042634  0.0012961   0.001017865
114    -39.3733437203   0.000038330683 0.04148628  0.00603594  0.0027018   0.002087738
115    -39.3734996172  -0.000155896820 0.02567649  0.00367747  0.0035923   0.002847459
                          ***Energy convergence achieved***
116    -39.3734995197   0.000000097454 0.01440523  0.00197085  0.0056695   0.004598561
117    -39.3735417290  -0.000042209297 0.03308604  0.00484779  0.0037075   0.003009099
118    -39.3734620225   0.000079706475 0.02420408  0.00329736  0.0012011   0.000957469
119    -39.3735697290  -0.000107706440 0.03644978  0.00523943  0.0003947   0.000292661
               *** Restarting incremental Fock matrix formation ***
                             ****Resetting KDIIS****
120    -39.3734061233   0.000163605713 0.00017225  0.00002128  0.0004357   0.000396067
                          ***Energy convergence achieved***
121    -39.3734070676  -0.000000944314 0.00020431  0.00002827  0.0004082   0.000305209
122    -39.3734080981  -0.000001030517 0.00052944  0.00006982  0.0003785   0.000276875
123    -39.3734104660  -0.000002367880 0.00033158  0.00003917  0.0003425   0.000233396
124    -39.3734114912  -0.000001025191 0.00562846  0.00078726  0.0003016   0.000202671
125    -39.3733875830   0.000023908175 0.00041587  0.00005906  0.0003040   0.000200010
126    -39.3733858773   0.000001705682 0.00080182  0.00011143  0.0003060   0.000199507
127    -39.3733892178  -0.000003340490 0.00065980  0.00009190  0.0003025   0.000200632
128    -39.3733920242  -0.000002806371 0.00444751  0.00061876  0.0003076   0.000198775
129    -39.3733731796   0.000018844538 0.00442661  0.00061417  0.0003223   0.000200283
130    -39.3733549175   0.000018262157 0.02582990  0.00348763  0.0003039   0.000203757
131    -39.3732514336   0.000103483882 0.00199401  0.00026311  0.0007290   0.000645428
132    -39.3732588950  -0.000007461379 0.00594815  0.00078304  0.0007238   0.000635524
133    -39.3732830383  -0.000024143342 0.00114463  0.00012483  0.0002778   0.000297090
                          ***Energy convergence achieved***
134    -39.3732833317  -0.000000293431 0.01399462  0.00188490  0.0003039   0.000193851
135    -39.3732309080   0.000052423781 0.01381387  0.00181405  0.0005476   0.000479338
136    -39.3732823285  -0.000051420578 0.00113327  0.00016823  0.0003216   0.000191928
137    -39.3732811219   0.000001206659 0.00201180  0.00026974  0.0003020   0.000189650
138    -39.3732887585  -0.000007636654 0.01486719  0.00195725  0.0002995   0.000189877
139    -39.3732344790   0.000054279496 0.01053312  0.00136917  0.0002866   0.000192573
               *** Restarting incremental Fock matrix formation ***
                             ****Resetting KDIIS****
140    -39.3731986189   0.000035860123 0.00007789  0.00001210  0.0002737   0.000227424
                          ***Energy convergence achieved***
141    -39.3731989786  -0.000000359659 0.00018739  0.00002180  0.0002744   0.000199947
142    -39.3731996078  -0.000000629191 0.00030666  0.00003564  0.0002757   0.000194658
Warning: badly conditioned DIIS matrix, 1 vectors out of 4 destroyed
Warning: badly conditioned DIIS matrix, 1 vectors out of 3 destroyed
143    -39.3732006281  -0.000001020363 0.00124877  0.00014132  0.0002777   0.000188726
                           ***RMSP convergence achieved***
                           ***MAXP convergence achieved***
                 *** KDIIS - Everything but energy is converged ***
                 *** Energy is reasonable - Signaling convergence ***
                    *** KDIIS BlockDiag ( 0.000 sec) ***

               *****************************************************
               *                     SUCCESS                       *
               *           SCF CONVERGED AFTER 144 CYCLES          *
               *****************************************************

Setting up the final grid:

General Integration Accuracy     IntAcc      ...  4.670
Radial Grid Type                 RadialGrid  ... Gauss-Chebyshev
Angular Grid (max. acc.)         AngularGrid ... Lebedev-302
Angular grid pruning method      GridPruning ... 3 (G Style)
Weight generation scheme         WeightScheme... Becke
Basis function cutoff            BFCut       ...    1.0000e-10
Integration weight cutoff        WCut        ...    1.0000e-14
Grids for H and He will be reduced by one unit

# of grid points (after initial pruning)     ...  19788 (   0.0 sec)
# of grid points (after weights+screening)   ...  19725 (   0.0 sec)
nearest neighbour list constructed           ...    0.0 sec
Grid point re-assignment to atoms done       ...    0.0 sec
Grid point division into batches done        ...    0.0 sec
Reduced shell lists constructed in    0.1 sec

Total number of grid points                  ...    19725
Total number of batches                      ...      311
Average number of points per batch           ...       63
Average number of grid points per atom       ...     3945
Average number of shells per batch           ...     6.46 (46.11%)
Average number of basis functions per batch  ...    10.69 (48.57%)
Average number of large shells per batch     ...     4.96 (76.86%)
Average number of large basis fcns per batch ...     8.35 (78.16%)
Maximum spatial batch extension              ...  20.64, 18.62, 16.85 au
Average spatial batch extension              ...   3.97,  3.84,  3.73 au

Final grid set up in    0.1 sec
Final integration                            ... done (   0.1 sec)
Change in XC energy                          ...    -0.000331256
Integrated number of electrons               ...     9.999974182
Previous integrated no of electrons          ...     9.999314190

----------------
TOTAL SCF ENERGY
----------------

Total Energy       :          -39.37353591 Eh           -1071.40838 eV

Components:
Nuclear Repulsion  :            3.50204008 Eh              95.29536 eV
Electronic Energy  :          -42.87557598 Eh           -1166.70374 eV
One Electron Energy:          -58.94292675 Eh           -1603.91858 eV
Two Electron Energy:           16.06735076 Eh             437.21484 eV

Virial components:
Potential Energy   :          -78.66211308 Eh           -2140.50492 eV
Kinetic Energy     :           39.28857717 Eh            1069.09654 eV
Virial Ratio       :            2.00216243


DFT components:
N(Alpha)           :        4.999987091039 electrons
N(Beta)            :        4.999987091039 electrons
N(Total)           :        9.999974182078 electrons
E(XC)              :       -3.976125413990 Eh       

---------------
SCF CONVERGENCE
---------------

  Last Energy change         ...   -4.0230e-06  Tolerance :   1.0000e-06
  Last MAX-Density change    ...    3.6847e-06  Tolerance :   1.0000e-05
  Last RMS-Density change    ...    4.2747e-07  Tolerance :   1.0000e-06
  Last DIIS Error            ...    2.8266e-04  Tolerance :   1.0000e-06

             **** THE GBW FILE WAS UPDATED (Scan_37.gbw) ****
             **** DENSITY FILE WAS UPDATED (Scan_37.scfp.tmp) ****
             **** ENERGY FILE WAS UPDATED (Scan_37.en.tmp) ****
----------------
ORBITAL ENERGIES
----------------

  NO   OCC          E(Eh)            E(eV) 
   0   2.0000     -10.532998      -286.6175 
   1   2.0000      -0.719439       -19.5769 
   2   2.0000      -0.280518        -7.6333 
   3   2.0000      -0.277803        -7.5594 
   4   2.0000      -0.276747        -7.5307 
   5   0.0000      -0.185683        -5.0527 
   6   0.0000      -0.160383        -4.3642 
   7   0.0000      -0.145738        -3.9657 
   8   0.0000      -0.140833        -3.8323 
   9   0.0000       0.580141        15.7864 
  10   0.0000       0.580678        15.8011 
  11   0.0000       0.580907        15.8073 
  12   0.0000       0.628669        17.1070 
  13   0.0000       0.864739        23.5307 
  14   0.0000       0.867503        23.6059 
  15   0.0000       0.868338        23.6287 
  16   0.0000       0.868704        23.6386 
  17   0.0000       1.689633        45.9773 
  18   0.0000       1.689714        45.9795 
  19   0.0000       1.691292        46.0224 
  20   0.0000       1.692022        46.0422 
  21   0.0000       1.692429        46.0533 

                    ********************************
                    * MULLIKEN POPULATION ANALYSIS *
                    ********************************

-----------------------
MULLIKEN ATOMIC CHARGES
-----------------------
   0 C :    0.210645
   1 H :   -0.048202
   2 H :   -0.059469
   3 H :   -0.058310
   4 H :   -0.044664
Sum of atomic charges:   -0.0000000

--------------------------------
MULLIKEN REDUCED ORBITAL CHARGES
--------------------------------
  0 C s       :     3.999418  s :     3.999418
      pz      :     0.551306  p :     1.789916
      px      :     0.689134
      py      :     0.549476
      dz2     :     0.000009  d :     0.000020
      dxz     :     0.000003
      dyz     :     0.000003
      dx2y2   :     0.000004
      dxy     :     0.000002
  1 H s       :     1.048202  s :     1.048202
  2 H s       :     1.059469  s :     1.059469
  3 H s       :     1.058310  s :     1.058310
  4 H s       :     1.044664  s :     1.044664


                     *******************************
                     * LOEWDIN POPULATION ANALYSIS *
                     *******************************

----------------------
LOEWDIN ATOMIC CHARGES
----------------------
   0 C :    0.209803
   1 H :   -0.048608
   2 H :   -0.058849
   3 H :   -0.057713
   4 H :   -0.044633

-------------------------------
LOEWDIN REDUCED ORBITAL CHARGES
-------------------------------
  0 C s       :     3.999415  s :     3.999415
      pz      :     0.551956  p :     1.790762
      px      :     0.688571
      py      :     0.550235
      dz2     :     0.000009  d :     0.000021
      dxz     :     0.000003
      dyz     :     0.000003
      dx2y2   :     0.000004
      dxy     :     0.000002
  1 H s       :     1.048608  s :     1.048608
  2 H s       :     1.058849  s :     1.058849
  3 H s       :     1.057713  s :     1.057713
  4 H s       :     1.044633  s :     1.044633


                      *****************************
                      * MAYER POPULATION ANALYSIS *
                      *****************************

  NA   - Mulliken gross atomic population
  ZA   - Total nuclear charge
  QA   - Mulliken gross atomic charge
  VA   - Mayer's total valence
  BVA  - Mayer's bonded valence
  FA   - Mayer's free valence

  ATOM       NA         ZA         QA         VA         BVA        FA
  0 C      5.7894     6.0000     0.2106     2.4949     2.4949    -0.0000
  1 H      1.0482     1.0000    -0.0482     0.9977     0.9977     0.0000
  2 H      1.0595     1.0000    -0.0595     0.9965     0.9965    -0.0000
  3 H      1.0583     1.0000    -0.0583     0.9966     0.9966    -0.0000
  4 H      1.0447     1.0000    -0.0447     0.9981     0.9981    -0.0000

  Mayer bond orders larger than 0.1
B(  0-C ,  1-H ) :   0.6867 B(  0-C ,  2-H ) :   0.5597 B(  0-C ,  3-H ) :   0.5693 
B(  0-C ,  4-H ) :   0.6792 B(  1-H ,  2-H ) :   0.1293 B(  1-H ,  3-H ) :   0.1168 
B(  2-H ,  3-H ) :   0.1820 B(  2-H ,  4-H ) :   0.1255 B(  3-H ,  4-H ) :   0.1284 


-------
TIMINGS
-------

Total SCF time: 0 days 0 hours 0 min 36 sec 

Total time                  ....      36.537 sec
Sum of individual times     ....      35.080 sec  ( 96.0%)

Fock matrix formation       ....      34.783 sec  ( 95.2%)
  XC integration            ....       6.703 sec  ( 19.3% of F)
    Basis function eval.    ....       1.209 sec  ( 18.0% of XC)
    Density eval.           ....       0.277 sec  (  4.1% of XC)
    XC-Functional eval.     ....       2.234 sec  ( 33.3% of XC)
    XC-Potential eval.      ....       0.092 sec  (  1.4% of XC)
Diagonalization             ....       0.034 sec  (  0.1%)
Density matrix formation    ....       0.001 sec  (  0.0%)
Population analysis         ....       0.009 sec  (  0.0%)
Initial guess               ....       0.105 sec  (  0.3%)
Orbital Transformation      ....       0.000 sec  (  0.0%)
Orbital Orthonormalization  ....       0.000 sec  (  0.0%)
DIIS solution               ....       0.000 sec  (  0.0%)
Grid generation             ....       0.148 sec  (  0.4%)


-------------------------------------------------------------------------------
                          DFT DISPERSION CORRECTION                            
                                                                               
                              DFTD3 V3.1  Rev 1                                
                              USING zero damping                               
-------------------------------------------------------------------------------
The omegaB97X-D3 functional is recognized. Fit by Chai et al.
Active option DFTDOPT                   ...         3   

molecular C6(AA) [au] = 319.262742 


            DFT-D V3
 parameters
 s6 scaling factor         :     1.0000 
 rs6 scaling factor        :     1.2810 
 s8 scaling factor         :     1.0000 
 rs8 scaling factor        :     1.0940 
 Damping factor alpha6     :    14.0000 
 Damping factor alpha8     :    16.0000 
 ad hoc parameters k1-k3   :    16.0000     1.3333    -4.0000 

 Edisp/kcal,au: -0.241593409830  -0.000385003564 
 E6   /kcal   :  -0.182816272 
 E8   /kcal   :  -0.058777138 
 % E8         :  24.328949342 

-------------------------   ----------------
Dispersion correction           -0.000385004
-------------------------   ----------------


-------------------------   --------------------
FINAL SINGLE POINT ENERGY       -39.373920910461
-------------------------   --------------------


                            ***************************************
                            *     ORCA property calculations      *
                            ***************************************

                                    ---------------------
                                    Active property flags
                                    ---------------------
   (+) Dipole Moment


------------------------------------------------------------------------------
                       ORCA ELECTRIC PROPERTIES CALCULATION
------------------------------------------------------------------------------

Dipole Moment Calculation                       ... on
Quadrupole Moment Calculation                   ... off
Polarizability Calculation                      ... off
GBWName                                         ... Scan_37.gbw
Electron density file                           ... Scan_37.scfp.tmp

-------------
DIPOLE MOMENT
-------------
                                X             Y             Z
Electronic contribution:      0.04441       0.05577      -0.06671
Nuclear contribution   :     -0.00000      -0.00000       0.00000
                        -----------------------------------------
Total Dipole Moment    :      0.04441       0.05577      -0.06671
                        -----------------------------------------
Magnitude (a.u.)       :      0.09764
Magnitude (Debye)      :      0.24818


Timings for individual modules:

Sum of individual times         ...       36.852 sec (=   0.614 min)
GTO integral calculation        ...        0.292 sec (=   0.005 min)   0.8 %
SCF iterations                  ...       36.559 sec (=   0.609 min)  99.2 %
                             ****ORCA TERMINATED NORMALLY****
TOTAL RUN TIME: 0 days 0 hours 0 minutes 37 seconds 172 msec
