
                                 *****************
                                 * O   R   C   A *
                                 *****************

           --- An Ab Initio, DFT and Semiempirical electronic structure package ---

                  #######################################################
                  #                        -***-                        #
                  #  Department of molecular theory and spectroscopy    #
                  #              Directorship: Frank Neese              #
                  # Max Planck Institute for Chemical Energy Conversion #
                  #                  D-45470 Muelheim/Ruhr              #
                  #                       Germany                       #
                  #                                                     #
                  #                  All rights reserved                #
                  #                        -***-                        #
                  #######################################################


                         Program Version 4.0.0.2 - RELEASE -


 With contributions from (in alphabetic order):
   Daniel Aravena         : Magnetic Properties
   Michael Atanasov       : Ab Initio Ligand Field Theory
   Ute Becker             : Parallelization
   Martin Brehm           : Molecular dynamics
   Dmytro Bykov           : SCF Hessian
   Vijay G. Chilkuri      : MRCI spin determinant printing
   Dipayan Datta          : RHF DLPNO-CCSD density
   Achintya Kumar Dutta   : EOM-CC, STEOM-CC
   Dmitry Ganyushin       : Spin-Orbit,Spin-Spin,Magnetic field MRCI
   Yang Guo               : DLPNO-NEVPT2, CIM, IAO-localization
   Andreas Hansen         : Spin unrestricted coupled pair/coupled cluster methods
   Lee Huntington         : MR-EOM, pCC
   Robert Izsak           : Overlap fitted RIJCOSX, COSX-SCS-MP3, EOM
   Christian Kollmar      : KDIIS, OOCD, Brueckner-CCSD(T), CCSD density
   Simone Kossmann        : Meta GGA functionals, TD-DFT gradient, OOMP2, MP2 Hessian
   Martin Krupicka        : AUTO-CI
   Dagmar Lenk            : GEPOL surface
   Dimitrios Liakos       : Extrapolation schemes; parallel MDCI
   Dimitrios Manganas     : ROCIS; embedding schemes
   Dimitrios Pantazis     : SARC Basis sets
   Taras Petrenko         : DFT Hessian,TD-DFT gradient, ASA, ECA, R-Raman, ABS, FL, XAS/XES, NRVS
   Peter Pinski           : DLPNO-MP2
   Christoph Reimann      : Effective Core Potentials
   Marius Retegan         : Local ZFS, SOC
   Christoph Riplinger    : Optimizer, TS searches, QM/MM, DLPNO-CCSD(T), (RO)-DLPNO pert. Triples
   Tobias Risthaus        : Range-separated hybrids, TD-DFT gradient, RPA, STAB
   Michael Roemelt        : Restricted open shell CIS
   Masaaki Saitow         : Open-shell DLPNO
   Barbara Sandhoefer     : DKH picture change effects
   Kantharuban Sivalingam : CASSCF convergence, NEVPT2, FIC-MRCI
   Georgi Stoychev        : AutoAux
   Boris Wezisla          : Elementary symmetry handling
   Frank Wennmohs         : Technical directorship


 We gratefully acknowledge several colleagues who have allowed us to
 interface, adapt or use parts of their codes:
   Stefan Grimme, W. Hujo, H. Kruse,             : VdW corrections, initial TS optimization,
                  C. Bannwarth                     DFT functionals, gCP, sTDA/sTD-DF
   Ed Valeev                                     : LibInt (2-el integral package), F12 methods
   Garnet Chan, S. Sharma, J. Yang, R. Olivares  : DMRG
   Ulf Ekstrom                                   : XCFun DFT Library
   Mihaly Kallay                                 : mrcc  (arbitrary order and MRCC methods)
   Jiri Pittner, Ondrej Demel                    : Mk-CCSD
   Frank Weinhold                                : gennbo (NPA and NBO analysis)
   Christopher J. Cramer and Donald G. Truhlar   : smd solvation model


 Your calculation uses the libint2 library for the computation of 2-el integrals
 For citations please refer to: http://libint.valeyev.net

 This ORCA versions uses:
   CBLAS   interface :  Fast vector & matrix operations
   LAPACKE interface :  Fast linear algebra routines
   SCALAPACK package :  Parallel linear algebra routines


Your calculation utilizes the atom-pairwise dispersion correction
with the zero-damping scheme (D30)
Cite in your paper:
S.Grimme, J.Antony, S.Ehrlich and H.Krieg, J.Chem.Phys., 132, (2010), 154104 
   

XCFun DFT library Copyright 2009-2010 Ulf Ekstrom and contributors.
See http://admol.org/xcfun for more information. This is free soft-
ware; see the source code for copying conditions. There is ABSOLUTELY
NO WARRANTY; not even for MERCHANTABILITY or FITNESS FOR A PARTICULAR
PURPOSE. For details see the documentation. Scientific users of this 
library should cite U. Ekstrom, L. Visscher, R. Bast, A. J. Thorvald-
sen and K. Ruud; J.Chem.Theor.Comp. 2010, DOI: 10.1021/ct100117s
XCFun Version 0.99 
Your calculation utilizes the basis: 6-31G(d)
   H-He, Li-Ne : W. J. Hehre, R. Ditchfield and J.A. Pople, J. Chem. Phys. 56, 2257 (1972).
                 Note: He and Ne are unpublished basis sets taken from the Gaussian program.
                 Note: Li and B from J. D. Dill and J. A. Pople, J. Chem. Phys. 62, 2921 (1975).
   Na - Ar     : M. M. Francl, W. J. Pietro, W. J. Hehre, J. S. Binkley, M. S. Gordon, 
                 D. J. DeFrees and J. A. Pople, J. Chem. Phys. 77, 3654 (1982).
   K - Zn      : V. A. Rassolov, J. A. Pople, M. A. Ratner, and T. L. Windus, J. Chem. Phys. 109, 1223 (1998).

================================================================================
                                        WARNINGS
                       Please study these warnings very carefully!
================================================================================

Warning: TCutStore was < 0. Adjusted to Thresh (uncritical)

INFO   : the flag for use of LIBINT has been found!

================================================================================
                                       INPUT FILE
================================================================================
NAME = initial38.inp
|  1> ! WB97X-D3 6-31G(d) VerySlowConv
|  2> ! KDIIS NOSOSCF
|  3> %base "Scan_38"
|  4> 
|  5> %scf
|  6> maxiter 999
|  7> end
|  8> 
|  9> * xyz 0 1
| 10> C         -4.472707994050    1.925921270604    0.000001634633
| 11> H         -0.188694097521    1.925915191166   -0.000015580752
| 12> H         -5.900695330779    3.048139003490    3.879982896448
| 13> H         -5.900719585229   -1.995343941332   -0.968108428938
| 14> H         -5.900722992420    4.724968476071   -2.911850521391
| 15> **                         ****END OF INPUT****
================================================================================

                       ****************************
                       * Single Point Calculation *
                       ****************************

---------------------------------
CARTESIAN COORDINATES (ANGSTROEM)
---------------------------------
  C     -4.472708    1.925921    0.000002
  H     -0.188694    1.925915   -0.000016
  H     -5.900695    3.048139    3.879983
  H     -5.900720   -1.995344   -0.968108
  H     -5.900723    4.724968   -2.911851

----------------------------
CARTESIAN COORDINATES (A.U.)
----------------------------
  NO LB      ZA    FRAG     MASS         X           Y           Z
   0 C     6.0000    0    12.011   -8.452193    3.639464    0.000003
   1 H     1.0000    0     1.008   -0.356580    3.639452   -0.000029
   2 H     1.0000    0     1.008  -11.150698    5.760148    7.332105
   3 H     1.0000    0     1.008  -11.150744   -3.770654   -1.829460
   4 H     1.0000    0     1.008  -11.150750    8.928896   -5.502600

--------------------------------
INTERNAL COORDINATES (ANGSTROEM)
--------------------------------
 C      0   0   0     0.000000000000     0.00000000     0.00000000
 H      1   0   0     4.284013896568     0.00000000     0.00000000
 H      1   2   0     4.284013896557   109.47121906     0.00000000
 H      1   2   3     4.284013896111   109.47118523   240.00007089
 H      1   2   3     4.284013897333   109.47125804   120.00007210

---------------------------
INTERNAL COORDINATES (A.U.)
---------------------------
 C      0   0   0     0.000000000000     0.00000000     0.00000000
 H      1   0   0     8.095613018426     0.00000000     0.00000000
 H      1   2   0     8.095613018407   109.47121906     0.00000000
 H      1   2   3     8.095613017562   109.47118523   240.00007089
 H      1   2   3     8.095613019872   109.47125804   120.00007210

---------------------
BASIS SET INFORMATION
---------------------
There are 2 groups of distinct atoms

 Group   1 Type C   : 10s4p1d contracted to 3s2p1d pattern {631/31/1}
 Group   2 Type H   : 4s contracted to 2s pattern {31}

Atom   0C    basis set group =>   1
Atom   1H    basis set group =>   2
Atom   2H    basis set group =>   2
Atom   3H    basis set group =>   2
Atom   4H    basis set group =>   2
------------------------------------------------------------------------------
                           ORCA GTO INTEGRAL CALCULATION
------------------------------------------------------------------------------

                         BASIS SET STATISTICS AND STARTUP INFO

 # of primitive gaussian shells          ...   31
 # of primitive gaussian functions       ...   43
 # of contracted shells                  ...   14
 # of contracted basis functions         ...   22
 Highest angular momentum                ...    2
 Maximum contraction depth               ...    6
 Integral package used                   ... LIBINT
 Integral threshhold            Thresh   ...  1.000e-10
 Primitive cut-off              TCut     ...  1.000e-11


------------------------------ INTEGRAL EVALUATION ----------------------------


 * One electron integrals 
 Pre-screening matrix                    ... done
 Shell pair data                         ... done (   0.000 sec)

-------------------------------------------------------------------------------
                                 ORCA SCF
-------------------------------------------------------------------------------

------------
SCF SETTINGS
------------
Hamiltonian:
 Density Functional     Method          .... DFT(GTOs)
 Exchange Functional    Exchange        .... WB97X-D3
 Correlation Functional Correlation     .... WB97X-D3
 Gradients option       PostSCFGGA      .... off
 Hybrid DFT is turned on
   Fraction HF Exchange ScalHFX         ....  0.195728
   Scaling of DF-GGA-X  ScalDFX         ....  0.000000
   Scaling of DF-GGA-C  ScalDFC         ....  1.000000
   Scaling of DF-LDA-C  ScalLDAC        ....  1.000000
   Perturbative correction              ....  0.000000
 Long-range corrected/Screened/Range-Separated Hybrid DFT is turned on
   Amount of maximum screened exact exchange              ....  0.804272
   Range separation parameter mu (erf(mu*r12)/r12)        ....  0.250000


General Settings:
 Integral files         IntName         .... Scan_38
 Hartree-Fock type      HFTyp           .... RHF
 Total Charge           Charge          ....    0
 Multiplicity           Mult            ....    1
 Number of Electrons    NEL             ....   10
 Basis Dimension        Dim             ....   22
 Nuclear Repulsion      ENuc            ....      3.4184236019 Eh

Convergence Acceleration:
 DIIS                   CNVDIIS         .... on
   Start iteration      DIISMaxIt       ....     0
   Startup error        DIISStart       ....  0.200000
   # of expansion vecs  DIISMaxEq       ....     5
   Bias factor          DIISBfac        ....   1.050
   Max. coefficient     DIISMaxC        ....  10.000
 Newton-Raphson         CNVNR           .... off
 SOSCF                  CNVSOSCF        .... off
 Level Shifting         CNVShift        .... off
 Zerner damping         CNVZerner       .... off
 Static damping         CNVDamp         .... off
 Fernandez-Rico         CNVRico         .... off

SCF Procedure:
 Maximum # iterations   MaxIter         ....   999
 SCF integral mode      SCFMode         .... Direct
   Integral package                     .... LIBINT
 Reset frequeny         DirectResetFreq ....    20
 Integral Threshold     Thresh          ....  1.000e-10 Eh
 Primitive CutOff       TCut            ....  1.000e-11 Eh

Convergence Tolerance:
 Convergence Check Mode ConvCheckMode   .... All-Criteria
 Convergence forced     ConvForced      .... 0
 Energy Change          TolE            ....  1.000e-06 Eh
 Max Density Change     TolMaxP         ....  1.000e-05
 RMS Density Change     TolRMSP         ....  1.000e-06
 DIIS Error             TolErr          ....  1.000e-06


Diagonalization of the overlap matrix:
Smallest eigenvalue                        ... 1.868e-01
Time for diagonalization                   ...    0.001 sec
Threshold for overlap eigenvalues          ... 1.000e-08
Number of eigenvalues below threshold      ... 0
Time for construction of square roots      ...    0.004 sec
Total time needed                          ...    0.005 sec

-------------------
DFT GRID GENERATION
-------------------

General Integration Accuracy     IntAcc      ...  4.340
Radial Grid Type                 RadialGrid  ... Gauss-Chebyshev
Angular Grid (max. acc.)         AngularGrid ... Lebedev-110
Angular grid pruning method      GridPruning ... 3 (G Style)
Weight generation scheme         WeightScheme... Becke
Basis function cutoff            BFCut       ...    1.0000e-10
Integration weight cutoff        WCut        ...    1.0000e-14
Grids for H and He will be reduced by one unit

# of grid points (after initial pruning)     ...   4832 (   0.0 sec)
# of grid points (after weights+screening)   ...   4812 (   0.0 sec)
nearest neighbour list constructed           ...    0.0 sec
Grid point re-assignment to atoms done       ...    0.0 sec
Grid point division into batches done        ...    0.0 sec
Reduced shell lists constructed in    0.0 sec

Total number of grid points                  ...     4812
Total number of batches                      ...       77
Average number of points per batch           ...       62
Average number of grid points per atom       ...      962
Average number of shells per batch           ...     7.63 (54.49%)
Average number of basis functions per batch  ...    12.71 (57.75%)
Average number of large shells per batch     ...     5.50 (72.10%)
Average number of large basis fcns per batch ...     9.45 (74.37%)
Maximum spatial batch extension              ...  20.90, 25.60, 18.99 au
Average spatial batch extension              ...   6.68,  6.21,  5.77 au

Time for grid setup =    0.027 sec

------------------------------
INITIAL GUESS: MODEL POTENTIAL
------------------------------
Loading Hartree-Fock densities                     ... done
Calculating cut-offs                               ... done
Setting up the integral package                    ... done
Initializing the effective Hamiltonian             ... done
Starting the Coulomb interaction                   ... done (   0.0 sec)
Reading the grid                                   ... done
Mapping shells                                     ... done
Starting the XC term evaluation                    ... done (   0.0 sec)
  promolecular density results
     # of electrons  =      9.997965643
     EX              =     -5.945352481
     EC              =     -0.216526546
     EX+EC           =     -6.161879027
Transforming the Hamiltonian                       ... done (   0.0 sec)
Diagonalizing the Hamiltonian                      ... done (   0.0 sec)
Back transforming the eigenvectors                 ... done (   0.0 sec)
Now organizing SCF variables                       ... done
                      ------------------
                      INITIAL GUESS DONE (   0.2 sec)
                      ------------------
--------------
SCF ITERATIONS
--------------
ITER       Energy         Delta-E        Max-DP      RMS-DP      [F,P]   Gradient Norm
               ***  Starting incremental Fock matrix formation  ***
                             ****Resetting KDIIS****
                             ****Turning on KDIIS(Cayley)****
  0    -38.6939164304   0.000000000000 0.05452012  0.00431875  0.2144514   0.127701353
  1    -38.7268625374  -0.032946107044 0.09294092  0.00749380  0.1944280   0.117787727
  2    -38.7663491073  -0.039486569839 0.17007234  0.01323820  0.1598155   0.097759397
  3    -38.8059126349  -0.039563527613 0.28956226  0.01993699  0.0997199   0.065588010
  4    -38.8287059498  -0.022793314896 0.07013544  0.00680889  0.0633403   0.035628774
  5    -38.8292262089  -0.000520259154 0.11960814  0.01275497  0.0551248   0.035378092
  6    -38.8952338098  -0.066007600899 0.02213565  0.00219254  0.1434068   0.067799839
  7    -38.9117261123  -0.016492302465 0.09523925  0.01046732  0.1541519   0.072397656
  8    -38.9930614138  -0.081335301535 0.07101267  0.00892380  0.1854301   0.085539427
  9    -39.0820391997  -0.088977785873 0.04575611  0.00602645  0.1917862   0.088395553
 10    -39.1330726102  -0.051033410545 0.02830746  0.00332282  0.1820089   0.084839840
 11    -39.1630933389  -0.030020728710 0.00387081  0.00046512  0.1743180   0.081818342
 12    -39.1642039128  -0.001110573865 0.02300406  0.00411981  0.1732333   0.081487426
 13    -39.1489229277   0.015280985084 0.07316215  0.00935574  0.1748304   0.082210390
 14    -39.2240699915  -0.075147063769 0.01940579  0.00248017  0.1442801   0.070545608
 15    -39.2259225661  -0.001852574597 0.02771113  0.00417342  0.1412588   0.069975876
 16    -39.2102596842   0.015662881887 0.05480175  0.00733517  0.1479321   0.072888520
 17    -39.2463389700  -0.036079285804 0.07649175  0.00877312  0.1350277   0.067231234
 18    -39.3047758863  -0.058436916257 0.07534359  0.00941427  0.0999649   0.053325553
 19    -39.3500193624  -0.045243476178 0.11043352  0.01403580  0.0626652   0.039752315
               *** Restarting incremental Fock matrix formation ***
                             ****Resetting KDIIS****
 20    -39.2848259180   0.065193444420 0.01556471  0.00190476  0.1136483   0.059976970
 21    -39.2970510260  -0.012225107984 0.04018348  0.00501124  0.1058625   0.057023834
 22    -39.3260962278  -0.029045201819 0.13812911  0.01776623  0.0847763   0.049329390
 23    -39.3901117876  -0.064015559773 0.10807915  0.00972623  0.0438659   0.027773718
 24    -39.3971108110  -0.006999023441 0.02287635  0.00411013  0.0396642   0.019869373
 25    -39.3951798060   0.001931005005 0.03907275  0.00644613  0.0426698   0.020436747
 26    -39.4019444988  -0.006764692713 0.05861175  0.00970362  0.0239849   0.012011659
 27    -39.4000849894   0.001859509353 0.01857477  0.00249404  0.0136966   0.011024322
 28    -39.4017974278  -0.001712438371 0.00708372  0.00094062  0.0138814   0.010044680
 29    -39.4023649577  -0.000567529890 0.05403058  0.00738252  0.0137944   0.010271607
 30    -39.3963888833   0.005976074330 0.10142909  0.01672069  0.0143275   0.010672627
 31    -39.4103625323  -0.013973648922 0.01325075  0.00260689  0.0063300   0.005286128
 32    -39.4115846774  -0.001222145173 0.00701048  0.00123859  0.0050029   0.004613050
 33    -39.4122787524  -0.000694075011 0.01829296  0.00343696  0.0044190   0.003606852
 34    -39.4139029624  -0.001624209969 0.02870183  0.00560295  0.0035203   0.003162630
 35    -39.4156033457  -0.001700383311 0.01626988  0.00318723  0.0021662   0.002393312
 36    -39.4160006487  -0.000397302974 0.01506607  0.00228084  0.0021610   0.001429456
 37    -39.4159347838   0.000065864908 0.01292457  0.00269114  0.0019105   0.001630484
 38    -39.4161605449  -0.000225761098 0.00626663  0.00085600  0.0009454   0.000853457
 39    -39.4162034925  -0.000042947629 0.00205818  0.00035184  0.0005744   0.000443389
               *** Restarting incremental Fock matrix formation ***
                             ****Resetting KDIIS****
 40    -39.4162084473  -0.000004954747 0.00009723  0.00001093  0.0002496   0.000219133
                          ***Energy convergence achieved***
 41    -39.4162087457  -0.000000298444 0.00014267  0.00002124  0.0002414   0.000195933
 42    -39.4162092563  -0.000000510561 0.00075792  0.00010940  0.0002229   0.000178605
 43    -39.4162112932  -0.000002036931 0.00121820  0.00017646  0.0001293   0.000113709
 44    -39.4162127874  -0.000001494236 0.00023233  0.00003460  0.0000464   0.000037258
                          ***Energy convergence achieved***
 45    -39.4162129574  -0.000000170015 0.00049729  0.00007411  0.0000435   0.000034049
 46    -39.4162132465  -0.000000289089 0.00028372  0.00004243  0.0000366   0.000026346
 47    -39.4162133792  -0.000000132700 0.00017467  0.00002592  0.0000346   0.000024875
 48    -39.4162134478  -0.000000068569 0.00046345  0.00007004  0.0000334   0.000021127
 49    -39.4162136328  -0.000000184962 0.00022600  0.00003165  0.0000295   0.000017964
 50    -39.4162137101  -0.000000077305 0.00102579  0.00014127  0.0000276   0.000016697
 51    -39.4162139681  -0.000000258079 0.00022247  0.00002899  0.0000194   0.000012096
 52    -39.4162140089  -0.000000040754 0.00008783  0.00001124  0.0000175   0.000011235
 53    -39.4162140248  -0.000000015866 0.00012315  0.00001726  0.0000167   0.000010851
 54    -39.4162140508  -0.000000025990 0.00028812  0.00003823  0.0000155   0.000010145
 55    -39.4162141025  -0.000000051759 0.00029100  0.00003764  0.0000126   0.000009454
 56    -39.4162141425  -0.000000039958 0.00024729  0.00003191  0.0000109   0.000007998
 57    -39.4162141725  -0.000000030029 0.00014332  0.00001797  0.0000107   0.000007028
 58    -39.4162141888  -0.000000016323 0.00015867  0.00002095  0.0000106   0.000006633
 59    -39.4162142072  -0.000000018346 0.00015430  0.00001776  0.0000105   0.000006546
               *** Restarting incremental Fock matrix formation ***
                             ****Resetting KDIIS****
                           ***RMSP convergence achieved***
                           ***MAXP convergence achieved***
                    *** KDIIS BlockDiag ( 0.000 sec) ***

               *****************************************************
               *                     SUCCESS                       *
               *           SCF CONVERGED AFTER  60 CYCLES          *
               *****************************************************

Setting up the final grid:

General Integration Accuracy     IntAcc      ...  4.670
Radial Grid Type                 RadialGrid  ... Gauss-Chebyshev
Angular Grid (max. acc.)         AngularGrid ... Lebedev-302
Angular grid pruning method      GridPruning ... 3 (G Style)
Weight generation scheme         WeightScheme... Becke
Basis function cutoff            BFCut       ...    1.0000e-10
Integration weight cutoff        WCut        ...    1.0000e-14
Grids for H and He will be reduced by one unit

# of grid points (after initial pruning)     ...  19788 (   0.0 sec)
# of grid points (after weights+screening)   ...  19730 (   0.0 sec)
nearest neighbour list constructed           ...    0.0 sec
Grid point re-assignment to atoms done       ...    0.0 sec
Grid point division into batches done        ...    0.1 sec
Reduced shell lists constructed in    0.1 sec

Total number of grid points                  ...    19730
Total number of batches                      ...      312
Average number of points per batch           ...       63
Average number of grid points per atom       ...     3946
Average number of shells per batch           ...     6.27 (44.75%)
Average number of basis functions per batch  ...    10.36 (47.10%)
Average number of large shells per batch     ...     4.85 (77.46%)
Average number of large basis fcns per batch ...     8.25 (79.65%)
Maximum spatial batch extension              ...  20.64, 17.96, 16.89 au
Average spatial batch extension              ...   3.99,  3.84,  3.78 au

Final grid set up in    0.1 sec
Final integration                            ... done (   0.1 sec)
Change in XC energy                          ...     0.000048762
Integrated number of electrons               ...     9.999961565
Previous integrated no of electrons          ...     9.997495384

----------------
TOTAL SCF ENERGY
----------------

Total Energy       :          -39.41616546 Eh           -1072.56839 eV

Components:
Nuclear Repulsion  :            3.41842360 Eh              93.02004 eV
Electronic Energy  :          -42.83458906 Eh           -1165.58843 eV
One Electron Energy:          -58.98858792 Eh           -1605.16108 eV
Two Electron Energy:           16.15399886 Eh             439.57266 eV

Virial components:
Potential Energy   :          -78.77194783 Eh           -2143.49367 eV
Kinetic Energy     :           39.35578237 Eh            1070.92528 eV
Virial Ratio       :            2.00153429


DFT components:
N(Alpha)           :        4.999980782548 electrons
N(Beta)            :        4.999980782548 electrons
N(Total)           :        9.999961565096 electrons
E(XC)              :       -4.026171605675 Eh       

---------------
SCF CONVERGENCE
---------------

  Last Energy change         ...   -1.5036e-08  Tolerance :   1.0000e-06
  Last MAX-Density change    ...    2.4244e-06  Tolerance :   1.0000e-05
  Last RMS-Density change    ...    2.8639e-07  Tolerance :   1.0000e-06
  Last DIIS Error            ...    1.0396e-05  Tolerance :   1.0000e-06

             **** THE GBW FILE WAS UPDATED (Scan_38.gbw) ****
             **** DENSITY FILE WAS UPDATED (Scan_38.scfp.tmp) ****
             **** ENERGY FILE WAS UPDATED (Scan_38.en.tmp) ****
----------------
ORBITAL ENERGIES
----------------

  NO   OCC          E(Eh)            E(eV) 
   0   2.0000     -10.478413      -285.1321 
   1   2.0000      -0.674514       -18.3544 
   2   2.0000      -0.321563        -8.7502 
   3   2.0000      -0.264625        -7.2008 
   4   2.0000      -0.264198        -7.1892 
   5   0.0000      -0.188283        -5.1234 
   6   0.0000      -0.184612        -5.0235 
   7   0.0000      -0.067902        -1.8477 
   8   0.0000      -0.067519        -1.8373 
   9   0.0000       0.614810        16.7298 
  10   0.0000       0.620790        16.8926 
  11   0.0000       0.621308        16.9067 
  12   0.0000       0.666614        18.1395 
  13   0.0000       0.861342        23.4383 
  14   0.0000       0.861506        23.4428 
  15   0.0000       0.863515        23.4974 
  16   0.0000       0.863756        23.5040 
  17   0.0000       1.721607        46.8473 
  18   0.0000       1.722243        46.8646 
  19   0.0000       1.740944        47.3735 
  20   0.0000       1.741101        47.3778 
  21   0.0000       1.760010        47.8923 

                    ********************************
                    * MULLIKEN POPULATION ANALYSIS *
                    ********************************

-----------------------
MULLIKEN ATOMIC CHARGES
-----------------------
   0 C :    0.125398
   1 H :   -0.039669
   2 H :   -0.022685
   3 H :   -0.023436
   4 H :   -0.039607
Sum of atomic charges:    0.0000000

--------------------------------
MULLIKEN REDUCED ORBITAL CHARGES
--------------------------------
  0 C s       :     3.999864  s :     3.999864
      pz      :     0.939602  p :     1.874635
      px      :     0.005261
      py      :     0.929772
      dz2     :     0.000007  d :     0.000103
      dxz     :     0.000000
      dyz     :     0.000076
      dx2y2   :     0.000020
      dxy     :     0.000000
  1 H s       :     1.039669  s :     1.039669
  2 H s       :     1.022685  s :     1.022685
  3 H s       :     1.023436  s :     1.023436
  4 H s       :     1.039607  s :     1.039607


                     *******************************
                     * LOEWDIN POPULATION ANALYSIS *
                     *******************************

----------------------
LOEWDIN ATOMIC CHARGES
----------------------
   0 C :    0.124871
   1 H :   -0.039613
   2 H :   -0.022477
   3 H :   -0.023230
   4 H :   -0.039551

-------------------------------
LOEWDIN REDUCED ORBITAL CHARGES
-------------------------------
  0 C s       :     3.999839  s :     3.999839
      pz      :     0.939836  p :     1.875186
      px      :     0.005349
      py      :     0.930002
      dz2     :     0.000007  d :     0.000103
      dxz     :     0.000000
      dyz     :     0.000076
      dx2y2   :     0.000020
      dxy     :     0.000000
  1 H s       :     1.039613  s :     1.039613
  2 H s       :     1.022477  s :     1.022477
  3 H s       :     1.023230  s :     1.023230
  4 H s       :     1.039551  s :     1.039551


                      *****************************
                      * MAYER POPULATION ANALYSIS *
                      *****************************

  NA   - Mulliken gross atomic population
  ZA   - Total nuclear charge
  QA   - Mulliken gross atomic charge
  VA   - Mayer's total valence
  BVA  - Mayer's bonded valence
  FA   - Mayer's free valence

  ATOM       NA         ZA         QA         VA         BVA        FA
  0 C      5.8746     6.0000     0.1254     0.2725     0.2725    -0.0000
  1 H      1.0397     1.0000    -0.0397     0.9984     0.9984     0.0000
  2 H      1.0227     1.0000    -0.0227     0.9996     0.9996     0.0000
  3 H      1.0234     1.0000    -0.0234     0.9995     0.9995     0.0000
  4 H      1.0396     1.0000    -0.0396     0.9984     0.9984     0.0000

  Mayer bond orders larger than 0.1
B(  0-C ,  2-H ) :   0.1299 B(  0-C ,  3-H ) :   0.1305 B(  1-H ,  4-H ) :   0.9040 
B(  2-H ,  3-H ) :   0.7810 

-------
TIMINGS
-------

Total SCF time: 0 days 0 hours 0 min 21 sec 

Total time                  ....      21.053 sec
Sum of individual times     ....      20.542 sec  ( 97.6%)

Fock matrix formation       ....      20.200 sec  ( 95.9%)
  XC integration            ....       3.017 sec  ( 14.9% of F)
    Basis function eval.    ....       0.561 sec  ( 18.6% of XC)
    Density eval.           ....       0.137 sec  (  4.5% of XC)
    XC-Functional eval.     ....       1.075 sec  ( 35.6% of XC)
    XC-Potential eval.      ....       0.045 sec  (  1.5% of XC)
Diagonalization             ....       0.044 sec  (  0.2%)
Density matrix formation    ....       0.000 sec  (  0.0%)
Population analysis         ....       0.009 sec  (  0.0%)
Initial guess               ....       0.132 sec  (  0.6%)
Orbital Transformation      ....       0.000 sec  (  0.0%)
Orbital Orthonormalization  ....       0.000 sec  (  0.0%)
DIIS solution               ....       0.000 sec  (  0.0%)
Grid generation             ....       0.156 sec  (  0.7%)


-------------------------------------------------------------------------------
                          DFT DISPERSION CORRECTION                            
                                                                               
                              DFTD3 V3.1  Rev 1                                
                              USING zero damping                               
-------------------------------------------------------------------------------
The omegaB97X-D3 functional is recognized. Fit by Chai et al.
Active option DFTDOPT                   ...         3   

molecular C6(AA) [au] = 319.262893 


            DFT-D V3
 parameters
 s6 scaling factor         :     1.0000 
 rs6 scaling factor        :     1.2810 
 s8 scaling factor         :     1.0000 
 rs8 scaling factor        :     1.0940 
 Damping factor alpha6     :    14.0000 
 Damping factor alpha8     :    16.0000 
 ad hoc parameters k1-k3   :    16.0000     1.3333    -4.0000 

 Edisp/kcal,au: -0.211040779065  -0.000336314853 
 E6   /kcal   :  -0.162521591 
 E8   /kcal   :  -0.048519188 
 % E8         :  22.990432415 

-------------------------   ----------------
Dispersion correction           -0.000336315
-------------------------   ----------------


-------------------------   --------------------
FINAL SINGLE POINT ENERGY       -39.416501775183
-------------------------   --------------------


                            ***************************************
                            *     ORCA property calculations      *
                            ***************************************

                                    ---------------------
                                    Active property flags
                                    ---------------------
   (+) Dipole Moment


------------------------------------------------------------------------------
                       ORCA ELECTRIC PROPERTIES CALCULATION
------------------------------------------------------------------------------

Dipole Moment Calculation                       ... on
Quadrupole Moment Calculation                   ... off
Polarizability Calculation                      ... off
GBWName                                         ... Scan_38.gbw
Electron density file                           ... Scan_38.scfp.tmp

-------------
DIPOLE MOMENT
-------------
                                X             Y             Z
Electronic contribution:     -0.08972      -0.08366       0.09420
Nuclear contribution   :     -0.00000      -0.00000       0.00000
                        -----------------------------------------
Total Dipole Moment    :     -0.08972      -0.08366       0.09420
                        -----------------------------------------
Magnitude (a.u.)       :      0.15467
Magnitude (Debye)      :      0.39314


Timings for individual modules:

Sum of individual times         ...       21.488 sec (=   0.358 min)
GTO integral calculation        ...        0.411 sec (=   0.007 min)   1.9 %
SCF iterations                  ...       21.077 sec (=   0.351 min)  98.1 %
                             ****ORCA TERMINATED NORMALLY****
TOTAL RUN TIME: 0 days 0 hours 0 minutes 21 seconds 872 msec
