
                                 *****************
                                 * O   R   C   A *
                                 *****************

           --- An Ab Initio, DFT and Semiempirical electronic structure package ---

                  #######################################################
                  #                        -***-                        #
                  #  Department of molecular theory and spectroscopy    #
                  #              Directorship: Frank Neese              #
                  # Max Planck Institute for Chemical Energy Conversion #
                  #                  D-45470 Muelheim/Ruhr              #
                  #                       Germany                       #
                  #                                                     #
                  #                  All rights reserved                #
                  #                        -***-                        #
                  #######################################################


                         Program Version 4.0.0.2 - RELEASE -


 With contributions from (in alphabetic order):
   Daniel Aravena         : Magnetic Properties
   Michael Atanasov       : Ab Initio Ligand Field Theory
   Ute Becker             : Parallelization
   Martin Brehm           : Molecular dynamics
   Dmytro Bykov           : SCF Hessian
   Vijay G. Chilkuri      : MRCI spin determinant printing
   Dipayan Datta          : RHF DLPNO-CCSD density
   Achintya Kumar Dutta   : EOM-CC, STEOM-CC
   Dmitry Ganyushin       : Spin-Orbit,Spin-Spin,Magnetic field MRCI
   Yang Guo               : DLPNO-NEVPT2, CIM, IAO-localization
   Andreas Hansen         : Spin unrestricted coupled pair/coupled cluster methods
   Lee Huntington         : MR-EOM, pCC
   Robert Izsak           : Overlap fitted RIJCOSX, COSX-SCS-MP3, EOM
   Christian Kollmar      : KDIIS, OOCD, Brueckner-CCSD(T), CCSD density
   Simone Kossmann        : Meta GGA functionals, TD-DFT gradient, OOMP2, MP2 Hessian
   Martin Krupicka        : AUTO-CI
   Dagmar Lenk            : GEPOL surface
   Dimitrios Liakos       : Extrapolation schemes; parallel MDCI
   Dimitrios Manganas     : ROCIS; embedding schemes
   Dimitrios Pantazis     : SARC Basis sets
   Taras Petrenko         : DFT Hessian,TD-DFT gradient, ASA, ECA, R-Raman, ABS, FL, XAS/XES, NRVS
   Peter Pinski           : DLPNO-MP2
   Christoph Reimann      : Effective Core Potentials
   Marius Retegan         : Local ZFS, SOC
   Christoph Riplinger    : Optimizer, TS searches, QM/MM, DLPNO-CCSD(T), (RO)-DLPNO pert. Triples
   Tobias Risthaus        : Range-separated hybrids, TD-DFT gradient, RPA, STAB
   Michael Roemelt        : Restricted open shell CIS
   Masaaki Saitow         : Open-shell DLPNO
   Barbara Sandhoefer     : DKH picture change effects
   Kantharuban Sivalingam : CASSCF convergence, NEVPT2, FIC-MRCI
   Georgi Stoychev        : AutoAux
   Boris Wezisla          : Elementary symmetry handling
   Frank Wennmohs         : Technical directorship


 We gratefully acknowledge several colleagues who have allowed us to
 interface, adapt or use parts of their codes:
   Stefan Grimme, W. Hujo, H. Kruse,             : VdW corrections, initial TS optimization,
                  C. Bannwarth                     DFT functionals, gCP, sTDA/sTD-DF
   Ed Valeev                                     : LibInt (2-el integral package), F12 methods
   Garnet Chan, S. Sharma, J. Yang, R. Olivares  : DMRG
   Ulf Ekstrom                                   : XCFun DFT Library
   Mihaly Kallay                                 : mrcc  (arbitrary order and MRCC methods)
   Jiri Pittner, Ondrej Demel                    : Mk-CCSD
   Frank Weinhold                                : gennbo (NPA and NBO analysis)
   Christopher J. Cramer and Donald G. Truhlar   : smd solvation model


 Your calculation uses the libint2 library for the computation of 2-el integrals
 For citations please refer to: http://libint.valeyev.net

 This ORCA versions uses:
   CBLAS   interface :  Fast vector & matrix operations
   LAPACKE interface :  Fast linear algebra routines
   SCALAPACK package :  Parallel linear algebra routines


Your calculation utilizes the atom-pairwise dispersion correction
with the zero-damping scheme (D30)
Cite in your paper:
S.Grimme, J.Antony, S.Ehrlich and H.Krieg, J.Chem.Phys., 132, (2010), 154104 
   

XCFun DFT library Copyright 2009-2010 Ulf Ekstrom and contributors.
See http://admol.org/xcfun for more information. This is free soft-
ware; see the source code for copying conditions. There is ABSOLUTELY
NO WARRANTY; not even for MERCHANTABILITY or FITNESS FOR A PARTICULAR
PURPOSE. For details see the documentation. Scientific users of this 
library should cite U. Ekstrom, L. Visscher, R. Bast, A. J. Thorvald-
sen and K. Ruud; J.Chem.Theor.Comp. 2010, DOI: 10.1021/ct100117s
XCFun Version 0.99 
Your calculation utilizes the basis: 6-31G(d)
   H-He, Li-Ne : W. J. Hehre, R. Ditchfield and J.A. Pople, J. Chem. Phys. 56, 2257 (1972).
                 Note: He and Ne are unpublished basis sets taken from the Gaussian program.
                 Note: Li and B from J. D. Dill and J. A. Pople, J. Chem. Phys. 62, 2921 (1975).
   Na - Ar     : M. M. Francl, W. J. Pietro, W. J. Hehre, J. S. Binkley, M. S. Gordon, 
                 D. J. DeFrees and J. A. Pople, J. Chem. Phys. 77, 3654 (1982).
   K - Zn      : V. A. Rassolov, J. A. Pople, M. A. Ratner, and T. L. Windus, J. Chem. Phys. 109, 1223 (1998).

================================================================================
                                        WARNINGS
                       Please study these warnings very carefully!
================================================================================

Warning: TCutStore was < 0. Adjusted to Thresh (uncritical)

INFO   : the flag for use of LIBINT has been found!

================================================================================
                                       INPUT FILE
================================================================================
NAME = initial39.inp
|  1> ! WB97X-D3 6-31G(d) VerySlowConv
|  2> ! KDIIS NOSOSCF
|  3> %base "Scan_39"
|  4> 
|  5> %scf
|  6> maxiter 999
|  7> end
|  8> 
|  9> * xyz 0 1
| 10> C         -4.472707997874    1.925921361113    0.000001601389
| 11> H         -0.086410264468    1.925915024104   -0.000015979608
| 12> H         -5.934789523717    3.074932714759    3.972620174599
| 13> H         -5.934814330169   -2.088966837923   -0.991222703230
| 14> H         -5.934817883773    4.791797737948   -2.981373093151
| 15> **                         ****END OF INPUT****
================================================================================

                       ****************************
                       * Single Point Calculation *
                       ****************************

---------------------------------
CARTESIAN COORDINATES (ANGSTROEM)
---------------------------------
  C     -4.472708    1.925921    0.000002
  H     -0.086410    1.925915   -0.000016
  H     -5.934790    3.074933    3.972620
  H     -5.934814   -2.088967   -0.991223
  H     -5.934818    4.791798   -2.981373

----------------------------
CARTESIAN COORDINATES (A.U.)
----------------------------
  NO LB      ZA    FRAG     MASS         X           Y           Z
   0 C     6.0000    0    12.011   -8.452193    3.639464    0.000003
   1 H     1.0000    0     1.008   -0.163292    3.639452   -0.000030
   2 H     1.0000    0     1.008  -11.215127    5.810781    7.507164
   3 H     1.0000    0     1.008  -11.215174   -3.947575   -1.873139
   4 H     1.0000    0     1.008  -11.215180    9.055185   -5.633979

--------------------------------
INTERNAL COORDINATES (ANGSTROEM)
--------------------------------
 C      0   0   0     0.000000000000     0.00000000     0.00000000
 H      1   0   0     4.386297733446     0.00000000     0.00000000
 H      1   2   0     4.386297733537   109.47121875     0.00000000
 H      1   2   3     4.386297732686   109.47118343   240.00007443
 H      1   2   3     4.386297732141   109.47125988   120.00007525

---------------------------
INTERNAL COORDINATES (A.U.)
---------------------------
 C      0   0   0     0.000000000000     0.00000000     0.00000000
 H      1   0   0     8.288901458052     0.00000000     0.00000000
 H      1   2   0     8.288901458224   109.47121875     0.00000000
 H      1   2   3     8.288901456616   109.47118343   240.00007443
 H      1   2   3     8.288901455587   109.47125988   120.00007525

---------------------
BASIS SET INFORMATION
---------------------
There are 2 groups of distinct atoms

 Group   1 Type C   : 10s4p1d contracted to 3s2p1d pattern {631/31/1}
 Group   2 Type H   : 4s contracted to 2s pattern {31}

Atom   0C    basis set group =>   1
Atom   1H    basis set group =>   2
Atom   2H    basis set group =>   2
Atom   3H    basis set group =>   2
Atom   4H    basis set group =>   2
------------------------------------------------------------------------------
                           ORCA GTO INTEGRAL CALCULATION
------------------------------------------------------------------------------

                         BASIS SET STATISTICS AND STARTUP INFO

 # of primitive gaussian shells          ...   31
 # of primitive gaussian functions       ...   43
 # of contracted shells                  ...   14
 # of contracted basis functions         ...   22
 Highest angular momentum                ...    2
 Maximum contraction depth               ...    6
 Integral package used                   ... LIBINT
 Integral threshhold            Thresh   ...  1.000e-10
 Primitive cut-off              TCut     ...  1.000e-11


------------------------------ INTEGRAL EVALUATION ----------------------------


 * One electron integrals 
 Pre-screening matrix                    ... done
 Shell pair data                         ... done (   0.000 sec)

-------------------------------------------------------------------------------
                                 ORCA SCF
-------------------------------------------------------------------------------

------------
SCF SETTINGS
------------
Hamiltonian:
 Density Functional     Method          .... DFT(GTOs)
 Exchange Functional    Exchange        .... WB97X-D3
 Correlation Functional Correlation     .... WB97X-D3
 Gradients option       PostSCFGGA      .... off
 Hybrid DFT is turned on
   Fraction HF Exchange ScalHFX         ....  0.195728
   Scaling of DF-GGA-X  ScalDFX         ....  0.000000
   Scaling of DF-GGA-C  ScalDFC         ....  1.000000
   Scaling of DF-LDA-C  ScalLDAC        ....  1.000000
   Perturbative correction              ....  0.000000
 Long-range corrected/Screened/Range-Separated Hybrid DFT is turned on
   Amount of maximum screened exact exchange              ....  0.804272
   Range separation parameter mu (erf(mu*r12)/r12)        ....  0.250000


General Settings:
 Integral files         IntName         .... Scan_39
 Hartree-Fock type      HFTyp           .... RHF
 Total Charge           Charge          ....    0
 Multiplicity           Mult            ....    1
 Number of Electrons    NEL             ....   10
 Basis Dimension        Dim             ....   22
 Nuclear Repulsion      ENuc            ....      3.3387095693 Eh

Convergence Acceleration:
 DIIS                   CNVDIIS         .... on
   Start iteration      DIISMaxIt       ....     0
   Startup error        DIISStart       ....  0.200000
   # of expansion vecs  DIISMaxEq       ....     5
   Bias factor          DIISBfac        ....   1.050
   Max. coefficient     DIISMaxC        ....  10.000
 Newton-Raphson         CNVNR           .... off
 SOSCF                  CNVSOSCF        .... off
 Level Shifting         CNVShift        .... off
 Zerner damping         CNVZerner       .... off
 Static damping         CNVDamp         .... off
 Fernandez-Rico         CNVRico         .... off

SCF Procedure:
 Maximum # iterations   MaxIter         ....   999
 SCF integral mode      SCFMode         .... Direct
   Integral package                     .... LIBINT
 Reset frequeny         DirectResetFreq ....    20
 Integral Threshold     Thresh          ....  1.000e-10 Eh
 Primitive CutOff       TCut            ....  1.000e-11 Eh

Convergence Tolerance:
 Convergence Check Mode ConvCheckMode   .... All-Criteria
 Convergence forced     ConvForced      .... 0
 Energy Change          TolE            ....  1.000e-06 Eh
 Max Density Change     TolMaxP         ....  1.000e-05
 RMS Density Change     TolRMSP         ....  1.000e-06
 DIIS Error             TolErr          ....  1.000e-06


Diagonalization of the overlap matrix:
Smallest eigenvalue                        ... 1.869e-01
Time for diagonalization                   ...    0.001 sec
Threshold for overlap eigenvalues          ... 1.000e-08
Number of eigenvalues below threshold      ... 0
Time for construction of square roots      ...    0.006 sec
Total time needed                          ...    0.006 sec

-------------------
DFT GRID GENERATION
-------------------

General Integration Accuracy     IntAcc      ...  4.340
Radial Grid Type                 RadialGrid  ... Gauss-Chebyshev
Angular Grid (max. acc.)         AngularGrid ... Lebedev-110
Angular grid pruning method      GridPruning ... 3 (G Style)
Weight generation scheme         WeightScheme... Becke
Basis function cutoff            BFCut       ...    1.0000e-10
Integration weight cutoff        WCut        ...    1.0000e-14
Grids for H and He will be reduced by one unit

# of grid points (after initial pruning)     ...   4832 (   0.0 sec)
# of grid points (after weights+screening)   ...   4813 (   0.0 sec)
nearest neighbour list constructed           ...    0.0 sec
Grid point re-assignment to atoms done       ...    0.0 sec
Grid point division into batches done        ...    0.0 sec
Reduced shell lists constructed in    0.0 sec

Total number of grid points                  ...     4813
Total number of batches                      ...       78
Average number of points per batch           ...       61
Average number of grid points per atom       ...      963
Average number of shells per batch           ...     7.49 (53.53%)
Average number of basis functions per batch  ...    12.46 (56.62%)
Average number of large shells per batch     ...     5.27 (70.27%)
Average number of large basis fcns per batch ...     9.19 (73.78%)
Maximum spatial batch extension              ...  21.09, 25.60, 18.86 au
Average spatial batch extension              ...   6.46,  6.12,  5.69 au

Time for grid setup =    0.027 sec

------------------------------
INITIAL GUESS: MODEL POTENTIAL
------------------------------
Loading Hartree-Fock densities                     ... done
Calculating cut-offs                               ... done
Setting up the integral package                    ... done
Initializing the effective Hamiltonian             ... done
Starting the Coulomb interaction                   ... done (   0.0 sec)
Reading the grid                                   ... done
Mapping shells                                     ... done
Starting the XC term evaluation                    ... done (   0.0 sec)
  promolecular density results
     # of electrons  =      9.997963584
     EX              =     -5.945320955
     EC              =     -0.216513749
     EX+EC           =     -6.161834704
Transforming the Hamiltonian                       ... done (   0.0 sec)
Diagonalizing the Hamiltonian                      ... done (   0.0 sec)
Back transforming the eigenvectors                 ... done (   0.0 sec)
Now organizing SCF variables                       ... done
                      ------------------
                      INITIAL GUESS DONE (   0.2 sec)
                      ------------------
--------------
SCF ITERATIONS
--------------
ITER       Energy         Delta-E        Max-DP      RMS-DP      [F,P]   Gradient Norm
               ***  Starting incremental Fock matrix formation  ***
                             ****Resetting KDIIS****
                             ****Turning on KDIIS(Cayley)****
  0    -38.6077714846   0.000000000000 0.05479071  0.00458901  0.2154487   0.141083090
  1    -38.6491605101  -0.041389025555 0.09316634  0.00795974  0.1956543   0.128509618
  2    -38.7030020897  -0.053841579642 0.16728995  0.01519224  0.1609455   0.105004580
  3    -38.7706879789  -0.067685889178 0.28902637  0.02379284  0.1014866   0.065496138
  4    -38.8424096147  -0.071721635745 0.04792470  0.00679770  0.0938509   0.056041645
  5    -38.8896435835  -0.047233968823 0.11349740  0.01134030  0.1134952   0.071487677
  6    -38.8912539721  -0.001610388655 0.14036972  0.01516967  0.1239477   0.071545739
  7    -38.8040309330   0.087223039187 0.08978897  0.01009388  0.0529928   0.033917925
  8    -38.8500774626  -0.046046529675 0.05530779  0.00468329  0.0960745   0.055991808
  9    -38.8772983412  -0.027220878528 0.11630607  0.01600447  0.1246823   0.065633586
 10    -38.9586341875  -0.081335846329 0.14685537  0.01122057  0.1758639   0.083382914
 11    -39.0557743158  -0.097140128274 0.20283133  0.01543692  0.1915055   0.088482682
 12    -39.1940686778  -0.138294362030 0.06032714  0.00406863  0.1554624   0.074020693
 13    -39.1629469039   0.031121773864 0.18956929  0.01257870  0.1707072   0.079875589
 14    -39.2507349526  -0.087788048688 0.03501590  0.00613229  0.1158271   0.061409386
 15    -39.2739927628  -0.023257810167 0.03086737  0.00448437  0.1062147   0.056954920
 16    -39.2970306577  -0.023037894920 0.00922847  0.00120421  0.0913152   0.051128349
 17    -39.3032254613  -0.006194803637 0.07119731  0.00985318  0.0860215   0.049457740
 18    -39.3239611615  -0.020735700135 0.05265218  0.00917390  0.0704327   0.044489889
 19    -39.3434098957  -0.019448734251 0.27389299  0.03609670  0.0496520   0.036722645
               *** Restarting incremental Fock matrix formation ***
                             ****Resetting KDIIS****
 20    -39.3208145701   0.022595325644 0.02570455  0.00276335  0.0867235   0.063425817
 21    -39.3348056557  -0.013991085574 0.03664939  0.00440560  0.0741304   0.054475730
 22    -39.3529137821  -0.018108126426 0.07903705  0.00989370  0.0623367   0.045482877
 23    -39.3819188459  -0.029005063788 0.11637054  0.01466033  0.0401574   0.027957093
 24    -39.4025818155  -0.020662969644 0.02795257  0.00436234  0.0111744   0.009775165
 25    -39.4062806272  -0.003698811689 0.05223084  0.00765338  0.0103002   0.007647509
 26    -39.4104224439  -0.004141816702 0.02101782  0.00303771  0.0045311   0.003776020
 27    -39.4110777193  -0.000655275358 0.01055407  0.00153164  0.0026647   0.002216030
 28    -39.4112161280  -0.000138408733 0.01341025  0.00182769  0.0024665   0.002065356
 29    -39.4114505803  -0.000234452254 0.00943672  0.00138283  0.0011739   0.001249782
 30    -39.4115692502  -0.000118669931 0.00660419  0.00090609  0.0012015   0.000716973
 31    -39.4116482197  -0.000078969507 0.00505474  0.00065175  0.0011813   0.000629600
 32    -39.4117067143  -0.000058494600 0.01047066  0.00134061  0.0011470   0.000603930
 33    -39.4118191166  -0.000112402357 0.04739596  0.00593965  0.0010263   0.000608068
 34    -39.4121475343  -0.000328417649 0.02220248  0.00285868  0.0022444   0.001740527
 35    -39.4120443442   0.000103190102 0.01245831  0.00162917  0.0005615   0.000513757
 36    -39.4121312516  -0.000086907429 0.00367200  0.00055524  0.0007490   0.000591913
 37    -39.4121597748  -0.000028523163 0.00811433  0.00087196  0.0006702   0.000481091
 38    -39.4121333098   0.000026464958 0.00942303  0.00134797  0.0006402   0.000598844
 39    -39.4122060856  -0.000072775725 0.00486021  0.00066921  0.0004492   0.000366371
               *** Restarting incremental Fock matrix formation ***
                             ****Resetting KDIIS****
 40    -39.4122352500  -0.000029164455 0.00015130  0.00001886  0.0005300   0.000353916
                          ***Energy convergence achieved***
 41    -39.4122361811  -0.000000931044 0.00038209  0.00004918  0.0005230   0.000347065
 42    -39.4122385778  -0.000002396700 0.00335111  0.00047851  0.0005160   0.000341655
 43    -39.4122611257  -0.000022547905 0.01360888  0.00193523  0.0004623   0.000323810
 44    -39.4123434778  -0.000082352186 0.00571551  0.00081247  0.0003727   0.000298553
 45    -39.4123755587  -0.000032080821 0.00933539  0.00136419  0.0003762   0.000284576
 46    -39.4124270383  -0.000051479678 0.02009252  0.00301435  0.0003906   0.000274427
 47    -39.4125295117  -0.000102473347 0.00209593  0.00031043  0.0004199   0.000288863
 48    -39.4125394019  -0.000009890193 0.00033644  0.00004049  0.0004233   0.000275057
                          ***Energy convergence achieved***
 49    -39.4125393332   0.000000068690 0.00690179  0.00110081  0.0004223   0.000280777
 50    -39.4125051934   0.000034139747 0.00115747  0.00016418  0.0004052   0.000249296
 51    -39.4125106240  -0.000005430534 0.00107587  0.00018500  0.0004071   0.000249382
 52    -39.4125049447   0.000005679322 0.00524378  0.00070505  0.0004018   0.000245015
 53    -39.4125294694  -0.000024524715 0.00533224  0.00074980  0.0004071   0.000244450
 54    -39.4125551202  -0.000025650782 0.00211069  0.00029678  0.0004139   0.000244986
 55    -39.4125653708  -0.000010250610 0.00130344  0.00020376  0.0004170   0.000242715
 56    -39.4125588031   0.000006567644 0.00015290  0.00002365  0.0004135   0.000242712
                          ***Energy convergence achieved***
 57    -39.4125585845   0.000000218589 0.00346227  0.00047681  0.0004135   0.000242980
 58    -39.4125421309   0.000016453632 0.00003501  0.00000550  0.0004102   0.000242807
                          ***Energy convergence achieved***
 59    -39.4125422209  -0.000000090038 0.00167070  0.00022023  0.0004099   0.000242753
               *** Restarting incremental Fock matrix formation ***
                             ****Resetting KDIIS****
 60    -39.4125345263   0.000007694619 0.00010117  0.00001315  0.0004089   0.000242788
                          ***Energy convergence achieved***
 61    -39.4125349868  -0.000000460449 0.00028000  0.00003629  0.0004089   0.000242760
 62    -39.4125362570  -0.000001270238 0.00103976  0.00013449  0.0004089   0.000242743
Warning: badly conditioned DIIS matrix, 1 vectors out of 4 destroyed
Warning: badly conditioned DIIS matrix, 1 vectors out of 3 destroyed
 63    -39.4125409631  -0.000004706085 0.00095791  0.00012422  0.0004094   0.000242720
 64    -39.4125453107  -0.000004347659 0.00012169  0.00001576  0.0004097   0.000242766
Warning: badly conditioned DIIS matrix, 1 vectors out of 4 destroyed
                          ***Energy convergence achieved***
 65    -39.4125447592   0.000000551587 0.00021667  0.00002803  0.0004096   0.000242750
Warning: badly conditioned DIIS matrix, 1 vectors out of 4 destroyed
 66    -39.4125457402  -0.000000981000 0.00481122  0.00061642  0.0004097   0.000242761
Warning: badly conditioned DIIS matrix, 1 vectors out of 4 destroyed
 67    -39.4125242057   0.000021534433 0.00324852  0.00041120  0.0004064   0.000242635
Warning: badly conditioned DIIS matrix, 1 vectors out of 4 destroyed
 68    -39.4125385362  -0.000014330470 0.00046921  0.00005512  0.0004094   0.000243070
 69    -39.4125367236   0.000001812599 0.02057448  0.00250278  0.0004074   0.000242636
 70    -39.4124510029   0.000085720657 0.00306384  0.00039824  0.0003741   0.000245186
 71    -39.4124369597   0.000014043285 0.01158915  0.00129922  0.0003771   0.000257599
 72    -39.4123958010   0.000041158611 0.01092987  0.00139587  0.0003847   0.000277531
 73    -39.4124433940  -0.000047592917 0.00719948  0.00085962  0.0003409   0.000237241
 74    -39.4124718385  -0.000028444549 0.00445080  0.00050359  0.0003519   0.000238323
 75    -39.4124560086   0.000015829951 0.03525898  0.00384984  0.0003392   0.000235431
 76    -39.4123471494   0.000108859124 0.00428118  0.00038705  0.0003821   0.000258602
 77    -39.4123567889  -0.000009639446 0.01141979  0.00171991  0.0003152   0.000223636
 78    -39.4124056376  -0.000048848756 0.02977448  0.00309454  0.0004529   0.000390841
 79    -39.4123470378   0.000058599874 0.01014362  0.00104774  0.0003292   0.000221781
               *** Restarting incremental Fock matrix formation ***
                             ****Resetting KDIIS****
 80    -39.4123382096   0.000008828179 0.00009501  0.00001082  0.0003161   0.000219000
                          ***Energy convergence achieved***
 81    -39.4123385418  -0.000000332222 0.00027128  0.00003009  0.0003166   0.000214596
 82    -39.4123394518  -0.000000909949 0.00143371  0.00015726  0.0003188   0.000209220
 83    -39.4123440880  -0.000004636210 0.00531290  0.00057524  0.0003268   0.000198327
 84    -39.4123603109  -0.000016222929 0.00196957  0.00021167  0.0003421   0.000188528
 85    -39.4123661815  -0.000005870590 0.00374396  0.00040041  0.0003545   0.000188080
 86    -39.4123772249  -0.000011043422 0.00579470  0.00062293  0.0003532   0.000186772
 87    -39.4123943231  -0.000017098226 0.00125667  0.00013473  0.0003591   0.000185342
 88    -39.4123908193   0.000003503878 0.00201648  0.00021859  0.0003544   0.000185586
 89    -39.4123847876   0.000006031650 0.00254591  0.00027316  0.0003539   0.000186245
 90    -39.4123923020  -0.000007514396 0.00284586  0.00030851  0.0003561   0.000184981
 91    -39.4123837941   0.000008507894 0.02560559  0.00272419  0.0003595   0.000185158
 92    -39.4124585103  -0.000074716203 0.01220765  0.00129608  0.0003672   0.000208255
 93    -39.4124936432  -0.000035132916 0.00389298  0.00050141  0.0003389   0.000229149
 94    -39.4125042623  -0.000010619077 0.03090296  0.00333829  0.0003563   0.000191625
 95    -39.4124126624   0.000091599853 0.00872554  0.00093638  0.0003884   0.000208751
 96    -39.4123878087   0.000024853706 0.01809513  0.00195159  0.0003721   0.000190660
 97    -39.4123319567   0.000055852089 0.06363543  0.00674673  0.0004381   0.000227267
 98    -39.4124828478  -0.000150891122 0.01087879  0.00125836  0.0007789   0.000682074
 99    -39.4125173464  -0.000034498625 0.00623119  0.00073999  0.0007655   0.000648237
               *** Restarting incremental Fock matrix formation ***
                             ****Resetting KDIIS****
100    -39.4125365903  -0.000019243908 0.00015142  0.00002225  0.0006955   0.000621628
101    -39.4125378735  -0.000001283171 0.00041949  0.00007075  0.0006237   0.000572812
102    -39.4125416418  -0.000003768297 0.00108585  0.00016763  0.0004764   0.000480359
103    -39.4125493500  -0.000007708257 0.00587527  0.00084289  0.0003013   0.000336491
104    -39.4125759046  -0.000026554576 0.00234949  0.00029796  0.0002791   0.000190617
105    -39.4125836997  -0.000007795120 0.00149445  0.00019323  0.0002712   0.000179023
106    -39.4125884670  -0.000004767267 0.00114208  0.00014706  0.0002699   0.000180038
107    -39.4125921620  -0.000003695039 0.00038705  0.00005262  0.0002674   0.000174638
108    -39.4125934912  -0.000001329165 0.00060012  0.00008148  0.0002679   0.000174457
109    -39.4125955443  -0.000002053148 0.00268333  0.00036444  0.0002702   0.000174543
110    -39.4125863655   0.000009178879 0.00479415  0.00062959  0.0002615   0.000173854
111    -39.4125707138   0.000015651620 0.00456461  0.00056981  0.0002661   0.000173071
112    -39.4125569082   0.000013805696 0.00070004  0.00007558  0.0002705   0.000172895
113    -39.4125552598   0.000001648324 0.00126832  0.00013362  0.0002702   0.000172624
114    -39.4125524664   0.000002793435 0.00955602  0.00092602  0.0002713   0.000172339
115    -39.4125378488   0.000014617561 0.00675358  0.00064231  0.0002604   0.000168606
116    -39.4125294833   0.000008365542 0.00831400  0.00087898  0.0002675   0.000164050
117    -39.4125282856   0.000001197671 0.01081810  0.00135784  0.0002410   0.000153116
118    -39.4125318133  -0.000003527681 0.00484691  0.00055008  0.0001802   0.000142941
                          ***Energy convergence achieved***
119    -39.4125313286   0.000000484709 0.00170276  0.00016009  0.0001679   0.000138721
               *** Restarting incremental Fock matrix formation ***
                             ****Resetting KDIIS****
120    -39.4125329351  -0.000001606516 0.00006643  0.00000733  0.0001696   0.000138611
                          ***Energy convergence achieved***
121    -39.4125330805  -0.000000145349 0.00017263  0.00001874  0.0001705   0.000137645
122    -39.4125334507  -0.000000370233 0.00115701  0.00012551  0.0001710   0.000137218
123    -39.4125359206  -0.000002469958 0.00098060  0.00010643  0.0001721   0.000136456
124    -39.4125380034  -0.000002082756 0.00383546  0.00041683  0.0001743   0.000136220
125    -39.4125298304   0.000008172988 0.01621945  0.00175852  0.0001744   0.000136267
126    -39.4124955026   0.000034327816 0.06349168  0.00682621  0.0001624   0.000137164
127    -39.4123656353   0.000129867268 0.09543150  0.01028338  0.0003755   0.000367826
128    -39.4120931449   0.000272490445 0.03077563  0.00334032  0.0019592   0.001625944
129    -39.4122052591  -0.000112114202 0.00593399  0.00064397  0.0013568   0.001132566
130    -39.4121852672   0.000019991868 0.15293887  0.01640614  0.0014843   0.001233681
131    -39.4125352545  -0.000349987294 0.02792278  0.00304613  0.0001763   0.000153684
132    -39.4125940060  -0.000058751494 0.01721524  0.00189953  0.0002151   0.000221691
133    -39.4126287741  -0.000034768042 0.00006395  0.00000811  0.0002922   0.000284115
                          ***Energy convergence achieved***
134    -39.4126289472  -0.000000173116 0.00449230  0.00049629  0.0002942   0.000282320
135    -39.4126201561   0.000008791057 0.08299717  0.00901163  0.0002651   0.000257905
136    -39.4124471534   0.000173002738 0.02853495  0.00306450  0.0001997   0.000154797
137    -39.4123901218   0.000057031622 0.19774367  0.02169894  0.0002846   0.000237144
138    -39.4126862093  -0.000296087507 0.03124180  0.00361969  0.0017157   0.001635633
139    -39.4126920172  -0.000005807936 0.01571506  0.00182651  0.0009916   0.001048182
               *** Restarting incremental Fock matrix formation ***
                             ****Resetting KDIIS****
140    -39.4126993588  -0.000007341640 0.00052310  0.00005315  0.0012965   0.001267998
141    -39.4127073490  -0.000007990136 0.00158918  0.00016048  0.0012424   0.001156166
142    -39.4127272815  -0.000019932557 0.00323592  0.00032164  0.0010817   0.000955149
143    -39.4127571947  -0.000029913201 0.00651200  0.00067617  0.0007803   0.000611461
144    -39.4127853295  -0.000028134789 0.00070650  0.00009917  0.0002980   0.000187266
145    -39.4127878086  -0.000002479052 0.00119809  0.00016326  0.0002999   0.000180394
146    -39.4127919362  -0.000004127595 0.00116419  0.00016933  0.0003061   0.000177134
147    -39.4127962026  -0.000004266481 0.00165310  0.00022416  0.0003112   0.000174307
148    -39.4127905691   0.000005633507 0.00070135  0.00009507  0.0003058   0.000173991
149    -39.4127929399  -0.000002370715 0.00173108  0.00023221  0.0003082   0.000174604
150    -39.4127987724  -0.000005832539 0.00054972  0.00007435  0.0003118   0.000175078
151    -39.4128006424  -0.000001869967 0.00339905  0.00044731  0.0003132   0.000174939
152    -39.4127895044   0.000011137958 0.00025969  0.00004050  0.0003058   0.000174378
                          ***Energy convergence achieved***
153    -39.4127903649  -0.000000860501 0.00262613  0.00032102  0.0003059   0.000174288
154    -39.4127826612   0.000007703713 0.00991356  0.00110318  0.0002997   0.000171516
155    -39.4127596033   0.000023057906 0.01372860  0.00140990  0.0002736   0.000165201
156    -39.4127371064   0.000022496848 0.01521901  0.00153301  0.0002364   0.000146235
157    -39.4127137339   0.000023372498 0.01084340  0.00103867  0.0001929   0.000137651
158    -39.4127008333   0.000012900592 0.01389107  0.00142653  0.0001584   0.000129983
159    -39.4126833722   0.000017461149 0.00135904  0.00018406  0.0001531   0.000125341
               *** Restarting incremental Fock matrix formation ***
                             ****Resetting KDIIS****
160    -39.4126855651  -0.000002192871 0.00005227  0.00000617  0.0001481   0.000118239
                          ***Energy convergence achieved***
161    -39.4126856695  -0.000000104415 0.00013852  0.00001606  0.0001481   0.000117394
162    -39.4126859402  -0.000000270668 0.00104332  0.00012054  0.0001469   0.000116835
163    -39.4126879569  -0.000002016795 0.00229484  0.00026584  0.0001394   0.000114907
164    -39.4126923513  -0.000004394306 0.00488573  0.00056441  0.0001375   0.000113217
165    -39.4127015990  -0.000009247792 0.00343888  0.00039924  0.0001351   0.000112618
166    -39.4127080974  -0.000006498346 0.00053233  0.00006291  0.0001369   0.000112319
167    -39.4127070728   0.000001024628 0.00044587  0.00005212  0.0001374   0.000112359
                          ***Energy convergence achieved***
168    -39.4127062247   0.000000848036 0.00040985  0.00005435  0.0001381   0.000112292
169    -39.4127053997   0.000000825057 0.00064029  0.00007670  0.0001374   0.000112399
170    -39.4127041600   0.000001239631 0.01073643  0.00128570  0.0001360   0.000112314
171    -39.4126836359   0.000020524150 0.00237332  0.00028694  0.0001364   0.000111447
172    -39.4126791346   0.000004501292 0.00215434  0.00027143  0.0001379   0.000111407
173    -39.4126749789   0.000004155719 0.00292930  0.00038028  0.0001410   0.000111201
174    -39.4126693382   0.000005640626 0.00133119  0.00013627  0.0001447   0.000110972
175    -39.4126715465  -0.000002208258 0.00141392  0.00017990  0.0001457   0.000110590
176    -39.4126688329   0.000002713569 0.00524304  0.00054923  0.0001486   0.000110551
177    -39.4126776836  -0.000008850704 0.01945309  0.00213597  0.0001508   0.000109696
178    -39.4127115952  -0.000033911553 0.00337711  0.00044072  0.0001404   0.000110276
179    -39.4127049414   0.000006653841 0.00034473  0.00003263  0.0001532   0.000108450
               *** Restarting incremental Fock matrix formation ***
                             ****Resetting KDIIS****
                          ***Energy convergence achieved***
180    -39.4127053165  -0.000000375166 0.00005213  0.00000564  0.0001516   0.000108184
181    -39.4127054063  -0.000000089812 0.00024593  0.00002658  0.0001515   0.000108172
182    -39.4127058293  -0.000000422939 0.00085215  0.00009237  0.0001506   0.000108156
183    -39.4127072973  -0.000001468023 0.00186150  0.00020255  0.0001485   0.000108141
184    -39.4127105135  -0.000003216173 0.00158003  0.00017345  0.0001449   0.000108232
185    -39.4127077627   0.000002750794 0.00418688  0.00046061  0.0001451   0.000108289
186    -39.4127004719   0.000007290782 0.00103081  0.00011637  0.0001447   0.000108358
187    -39.4127022992  -0.000001827330 0.00017879  0.00001692  0.0001407   0.000108659
                          ***Energy convergence achieved***
188    -39.4127025397  -0.000000240506 0.00280175  0.00031410  0.0001472   0.000108214
189    -39.4126975995   0.000004940248 0.00325792  0.00036335  0.0001496   0.000108040
190    -39.4127033226  -0.000005723121 0.00055151  0.00005860  0.0001472   0.000108171
                          ***Energy convergence achieved***
191    -39.4127042548  -0.000000932156 0.00018217  0.00001678  0.0001479   0.000108060
192    -39.4127039973   0.000000257415 0.00470893  0.00045576  0.0001472   0.000108139
193    -39.4126993391   0.000004658196 0.00387893  0.00038201  0.0001339   0.000107978
194    -39.4126953154   0.000004023746 0.00336905  0.00036793  0.0001499   0.000106390
195    -39.4126906811   0.000004634321 0.00323624  0.00036504  0.0001421   0.000106122
196    -39.4126860069   0.000004674209 0.00093379  0.00009097  0.0001435   0.000105844
197    -39.4126874163  -0.000001409450 0.03215797  0.00314713  0.0001443   0.000105682
198    -39.4127348303  -0.000047414028 0.01301213  0.00132321  0.0001510   0.000107628
199    -39.4127539188  -0.000019088477 0.00176043  0.00016876  0.0001654   0.000112728
               *** Restarting incremental Fock matrix formation ***
                             ****Resetting KDIIS****
                          ***Energy convergence achieved***
200    -39.4127548611  -0.000000942244 0.00004413  0.00000585  0.0001658   0.000114414
201    -39.4127549549  -0.000000093795 0.00013793  0.00001722  0.0001616   0.000111789
202    -39.4127552241  -0.000000269236 0.00047142  0.00005863  0.0001546   0.000109054
203    -39.4127561204  -0.000000896308 0.00105920  0.00013117  0.0001394   0.000104747
204    -39.4127580811  -0.000001960706 0.00046244  0.00005711  0.0001187   0.000101918
                          ***Energy convergence achieved***
205    -39.4127589286  -0.000000847503 0.00123256  0.00015262  0.0001188   0.000101871
206    -39.4127611910  -0.000002262362 0.00103151  0.00012784  0.0001219   0.000101640
207    -39.4127630837  -0.000001892680 0.00049116  0.00006132  0.0001210   0.000101636
                          ***Energy convergence achieved***
208    -39.4127639910  -0.000000907350 0.00068952  0.00008640  0.0001213   0.000101653
209    -39.4127627142   0.000001276797 0.00056460  0.00007273  0.0001220   0.000101594
210    -39.4127616533   0.000001060907 0.00010774  0.00001479  0.0001229   0.000101503
                          ***Energy convergence achieved***
211    -39.4127617437  -0.000000090408 0.00027066  0.00003998  0.0001230   0.000101436
212    -39.4127615663   0.000000177422 0.00074001  0.00008912  0.0001256   0.000101162
213    -39.4127625557  -0.000000989421 0.00161231  0.00018486  0.0001260   0.000100841
214    -39.4127651496  -0.000002593878 0.00077054  0.00008662  0.0001287   0.000100643
215    -39.4127663751  -0.000001225472 0.00054158  0.00006066  0.0001284   0.000100548
                          ***Energy convergence achieved***
216    -39.4127672596  -0.000000884554 0.00011687  0.00001713  0.0001277   0.000100550

            ***Energy convergence in two consecutive cycles with***
                    ***'reasonable' density convergence***
                       *** signaling convergence ***

                    *** KDIIS BlockDiag ( 0.000 sec) ***

               *****************************************************
               *                     SUCCESS                       *
               *           SCF CONVERGED AFTER 217 CYCLES          *
               *****************************************************

Setting up the final grid:

General Integration Accuracy     IntAcc      ...  4.670
Radial Grid Type                 RadialGrid  ... Gauss-Chebyshev
Angular Grid (max. acc.)         AngularGrid ... Lebedev-302
Angular grid pruning method      GridPruning ... 3 (G Style)
Weight generation scheme         WeightScheme... Becke
Basis function cutoff            BFCut       ...    1.0000e-10
Integration weight cutoff        WCut        ...    1.0000e-14
Grids for H and He will be reduced by one unit

# of grid points (after initial pruning)     ...  19788 (   0.0 sec)
# of grid points (after weights+screening)   ...  19734 (   0.0 sec)
nearest neighbour list constructed           ...    0.0 sec
Grid point re-assignment to atoms done       ...    0.0 sec
Grid point division into batches done        ...    0.1 sec
Reduced shell lists constructed in    0.1 sec

Total number of grid points                  ...    19734
Total number of batches                      ...      312
Average number of points per batch           ...       63
Average number of grid points per atom       ...     3947
Average number of shells per batch           ...     6.16 (43.98%)
Average number of basis functions per batch  ...    10.21 (46.43%)
Average number of large shells per batch     ...     4.56 (74.10%)
Average number of large basis fcns per batch ...     7.76 (75.95%)
Maximum spatial batch extension              ...  20.64, 17.73, 17.20 au
Average spatial batch extension              ...   3.96,  3.79,  3.74 au

Final grid set up in    0.1 sec
Final integration                            ... done (   0.1 sec)
Change in XC energy                          ...    -0.000034487
Integrated number of electrons               ...     9.999988414
Previous integrated no of electrons          ...    10.000042683

----------------
TOTAL SCF ENERGY
----------------

Total Energy       :          -39.41280194 Eh           -1072.47686 eV

Components:
Nuclear Repulsion  :            3.33870957 Eh              90.85091 eV
Electronic Energy  :          -42.75151150 Eh           -1163.32777 eV
One Electron Energy:          -58.85795789 Eh           -1601.60646 eV
Two Electron Energy:           16.10644638 Eh             438.27869 eV

Virial components:
Potential Energy   :          -78.77580986 Eh           -2143.59876 eV
Kinetic Energy     :           39.36300792 Eh            1071.12190 eV
Virial Ratio       :            2.00126500


DFT components:
N(Alpha)           :        4.999994206756 electrons
N(Beta)            :        4.999994206756 electrons
N(Total)           :        9.999988413513 electrons
E(XC)              :       -4.028397141531 Eh       

---------------
SCF CONVERGENCE
---------------

  Last Energy change         ...   -1.8866e-07  Tolerance :   1.0000e-06
  Last MAX-Density change    ...    2.3955e-05  Tolerance :   1.0000e-05
  Last RMS-Density change    ...    2.4856e-06  Tolerance :   1.0000e-06
  Last DIIS Error            ...    1.2749e-04  Tolerance :   1.0000e-06

             **** THE GBW FILE WAS UPDATED (Scan_39.gbw) ****
             **** DENSITY FILE WAS UPDATED (Scan_39.scfp.tmp) ****
             **** ENERGY FILE WAS UPDATED (Scan_39.en.tmp) ****
----------------
ORBITAL ENERGIES
----------------

  NO   OCC          E(Eh)            E(eV) 
   0   2.0000     -10.471332      -284.9394 
   1   2.0000      -0.669403       -18.2154 
   2   2.0000      -0.317068        -8.6279 
   3   2.0000      -0.263653        -7.1744 
   4   2.0000      -0.263382        -7.1670 
   5   0.0000      -0.189723        -5.1626 
   6   0.0000      -0.186198        -5.0667 
   7   0.0000      -0.063362        -1.7242 
   8   0.0000      -0.063208        -1.7200 
   9   0.0000       0.619786        16.8652 
  10   0.0000       0.624305        16.9882 
  11   0.0000       0.624805        17.0018 
  12   0.0000       0.670809        18.2536 
  13   0.0000       0.859476        23.3875 
  14   0.0000       0.861558        23.4442 
  15   0.0000       0.861855        23.4523 
  16   0.0000       0.861961        23.4552 
  17   0.0000       1.726954        46.9928 
  18   0.0000       1.727264        47.0012 
  19   0.0000       1.747222        47.5443 
  20   0.0000       1.747425        47.5499 
  21   0.0000       1.765336        48.0372 

                    ********************************
                    * MULLIKEN POPULATION ANALYSIS *
                    ********************************

-----------------------
MULLIKEN ATOMIC CHARGES
-----------------------
   0 C :    0.109409
   1 H :   -0.015748
   2 H :   -0.029658
   3 H :   -0.030724
   4 H :   -0.033280
Sum of atomic charges:   -0.0000000

--------------------------------
MULLIKEN REDUCED ORBITAL CHARGES
--------------------------------
  0 C s       :     3.999926  s :     3.999926
      pz      :     0.277604  p :     1.890555
      px      :     1.432111
      py      :     0.180840
      dz2     :     0.000009  d :     0.000109
      dxz     :     0.000037
      dyz     :     0.000004
      dx2y2   :     0.000036
      dxy     :     0.000024
  1 H s       :     1.015748  s :     1.015748
  2 H s       :     1.029658  s :     1.029658
  3 H s       :     1.030724  s :     1.030724
  4 H s       :     1.033280  s :     1.033280


                     *******************************
                     * LOEWDIN POPULATION ANALYSIS *
                     *******************************

----------------------
LOEWDIN ATOMIC CHARGES
----------------------
   0 C :    0.109124
   1 H :   -0.015651
   2 H :   -0.029542
   3 H :   -0.030643
   4 H :   -0.033288

-------------------------------
LOEWDIN REDUCED ORBITAL CHARGES
-------------------------------
  0 C s       :     3.999902  s :     3.999902
      pz      :     0.277678  p :     1.890865
      px      :     1.432314
      py      :     0.180873
      dz2     :     0.000009  d :     0.000109
      dxz     :     0.000037
      dyz     :     0.000004
      dx2y2   :     0.000036
      dxy     :     0.000024
  1 H s       :     1.015651  s :     1.015651
  2 H s       :     1.029542  s :     1.029542
  3 H s       :     1.030643  s :     1.030643
  4 H s       :     1.033288  s :     1.033288


                      *****************************
                      * MAYER POPULATION ANALYSIS *
                      *****************************

  NA   - Mulliken gross atomic population
  ZA   - Total nuclear charge
  QA   - Mulliken gross atomic charge
  VA   - Mayer's total valence
  BVA  - Mayer's bonded valence
  FA   - Mayer's free valence

  ATOM       NA         ZA         QA         VA         BVA        FA
  0 C      5.8906     6.0000     0.1094     0.2217     0.2217    -0.0000
  1 H      1.0157     1.0000    -0.0157     0.9998     0.9998    -0.0000
  2 H      1.0297     1.0000    -0.0297     0.9991     0.9991     0.0000
  3 H      1.0307     1.0000    -0.0307     0.9991     0.9991    -0.0000
  4 H      1.0333     1.0000    -0.0333     0.9989     0.9989    -0.0000

  Mayer bond orders larger than 0.1
B(  0-C ,  2-H ) :   0.1047 B(  1-H ,  2-H ) :   0.2034 B(  1-H ,  4-H ) :   0.7401 
B(  2-H ,  3-H ) :   0.6910 B(  3-H ,  4-H ) :   0.2503 

-------
TIMINGS
-------

Total SCF time: 0 days 0 hours 1 min 12 sec 

Total time                  ....      72.301 sec
Sum of individual times     ....      70.445 sec  ( 97.4%)

Fock matrix formation       ....      70.062 sec  ( 96.9%)
  XC integration            ....      10.394 sec  ( 14.8% of F)
    Basis function eval.    ....       1.820 sec  ( 17.5% of XC)
    Density eval.           ....       0.464 sec  (  4.5% of XC)
    XC-Functional eval.     ....       3.577 sec  ( 34.4% of XC)
    XC-Potential eval.      ....       0.138 sec  (  1.3% of XC)
Diagonalization             ....       0.085 sec  (  0.1%)
Density matrix formation    ....       0.002 sec  (  0.0%)
Population analysis         ....       0.009 sec  (  0.0%)
Initial guess               ....       0.131 sec  (  0.2%)
Orbital Transformation      ....       0.000 sec  (  0.0%)
Orbital Orthonormalization  ....       0.000 sec  (  0.0%)
DIIS solution               ....       0.000 sec  (  0.0%)
Grid generation             ....       0.156 sec  (  0.2%)


-------------------------------------------------------------------------------
                          DFT DISPERSION CORRECTION                            
                                                                               
                              DFTD3 V3.1  Rev 1                                
                              USING zero damping                               
-------------------------------------------------------------------------------
The omegaB97X-D3 functional is recognized. Fit by Chai et al.
Active option DFTDOPT                   ...         3   

molecular C6(AA) [au] = 319.263020 


            DFT-D V3
 parameters
 s6 scaling factor         :     1.0000 
 rs6 scaling factor        :     1.2810 
 s8 scaling factor         :     1.0000 
 rs8 scaling factor        :     1.0940 
 Damping factor alpha6     :    14.0000 
 Damping factor alpha8     :    16.0000 
 ad hoc parameters k1-k3   :    16.0000     1.3333    -4.0000 

 Edisp/kcal,au: -0.184071071472  -0.000293335893 
 E6   /kcal   :  -0.143856772 
 E8   /kcal   :  -0.040214299 
 % E8         :  21.847158817 

-------------------------   ----------------
Dispersion correction           -0.000293336
-------------------------   ----------------


-------------------------   --------------------
FINAL SINGLE POINT ENERGY       -39.413095271513
-------------------------   --------------------


                            ***************************************
                            *     ORCA property calculations      *
                            ***************************************

                                    ---------------------
                                    Active property flags
                                    ---------------------
   (+) Dipole Moment


------------------------------------------------------------------------------
                       ORCA ELECTRIC PROPERTIES CALCULATION
------------------------------------------------------------------------------

Dipole Moment Calculation                       ... on
Quadrupole Moment Calculation                   ... off
Polarizability Calculation                      ... off
GBWName                                         ... Scan_39.gbw
Electron density file                           ... Scan_39.scfp.tmp

-------------
DIPOLE MOMENT
-------------
                                X             Y             Z
Electronic contribution:      0.12628      -0.01165       0.02278
Nuclear contribution   :     -0.00000      -0.00000       0.00000
                        -----------------------------------------
Total Dipole Moment    :      0.12628      -0.01165       0.02279
                        -----------------------------------------
Magnitude (a.u.)       :      0.12884
Magnitude (Debye)      :      0.32750


Timings for individual modules:

Sum of individual times         ...       72.754 sec (=   1.213 min)
GTO integral calculation        ...        0.428 sec (=   0.007 min)   0.6 %
SCF iterations                  ...       72.325 sec (=   1.205 min)  99.4 %
                             ****ORCA TERMINATED NORMALLY****
TOTAL RUN TIME: 0 days 0 hours 1 minutes 13 seconds 156 msec
