
                                 *****************
                                 * O   R   C   A *
                                 *****************

           --- An Ab Initio, DFT and Semiempirical electronic structure package ---

                  #######################################################
                  #                        -***-                        #
                  #  Department of molecular theory and spectroscopy    #
                  #              Directorship: Frank Neese              #
                  # Max Planck Institute for Chemical Energy Conversion #
                  #                  D-45470 Muelheim/Ruhr              #
                  #                       Germany                       #
                  #                                                     #
                  #                  All rights reserved                #
                  #                        -***-                        #
                  #######################################################


                         Program Version 4.0.0.2 - RELEASE -


 With contributions from (in alphabetic order):
   Daniel Aravena         : Magnetic Properties
   Michael Atanasov       : Ab Initio Ligand Field Theory
   Ute Becker             : Parallelization
   Martin Brehm           : Molecular dynamics
   Dmytro Bykov           : SCF Hessian
   Vijay G. Chilkuri      : MRCI spin determinant printing
   Dipayan Datta          : RHF DLPNO-CCSD density
   Achintya Kumar Dutta   : EOM-CC, STEOM-CC
   Dmitry Ganyushin       : Spin-Orbit,Spin-Spin,Magnetic field MRCI
   Yang Guo               : DLPNO-NEVPT2, CIM, IAO-localization
   Andreas Hansen         : Spin unrestricted coupled pair/coupled cluster methods
   Lee Huntington         : MR-EOM, pCC
   Robert Izsak           : Overlap fitted RIJCOSX, COSX-SCS-MP3, EOM
   Christian Kollmar      : KDIIS, OOCD, Brueckner-CCSD(T), CCSD density
   Simone Kossmann        : Meta GGA functionals, TD-DFT gradient, OOMP2, MP2 Hessian
   Martin Krupicka        : AUTO-CI
   Dagmar Lenk            : GEPOL surface
   Dimitrios Liakos       : Extrapolation schemes; parallel MDCI
   Dimitrios Manganas     : ROCIS; embedding schemes
   Dimitrios Pantazis     : SARC Basis sets
   Taras Petrenko         : DFT Hessian,TD-DFT gradient, ASA, ECA, R-Raman, ABS, FL, XAS/XES, NRVS
   Peter Pinski           : DLPNO-MP2
   Christoph Reimann      : Effective Core Potentials
   Marius Retegan         : Local ZFS, SOC
   Christoph Riplinger    : Optimizer, TS searches, QM/MM, DLPNO-CCSD(T), (RO)-DLPNO pert. Triples
   Tobias Risthaus        : Range-separated hybrids, TD-DFT gradient, RPA, STAB
   Michael Roemelt        : Restricted open shell CIS
   Masaaki Saitow         : Open-shell DLPNO
   Barbara Sandhoefer     : DKH picture change effects
   Kantharuban Sivalingam : CASSCF convergence, NEVPT2, FIC-MRCI
   Georgi Stoychev        : AutoAux
   Boris Wezisla          : Elementary symmetry handling
   Frank Wennmohs         : Technical directorship


 We gratefully acknowledge several colleagues who have allowed us to
 interface, adapt or use parts of their codes:
   Stefan Grimme, W. Hujo, H. Kruse,             : VdW corrections, initial TS optimization,
                  C. Bannwarth                     DFT functionals, gCP, sTDA/sTD-DF
   Ed Valeev                                     : LibInt (2-el integral package), F12 methods
   Garnet Chan, S. Sharma, J. Yang, R. Olivares  : DMRG
   Ulf Ekstrom                                   : XCFun DFT Library
   Mihaly Kallay                                 : mrcc  (arbitrary order and MRCC methods)
   Jiri Pittner, Ondrej Demel                    : Mk-CCSD
   Frank Weinhold                                : gennbo (NPA and NBO analysis)
   Christopher J. Cramer and Donald G. Truhlar   : smd solvation model


 Your calculation uses the libint2 library for the computation of 2-el integrals
 For citations please refer to: http://libint.valeyev.net

 This ORCA versions uses:
   CBLAS   interface :  Fast vector & matrix operations
   LAPACKE interface :  Fast linear algebra routines
   SCALAPACK package :  Parallel linear algebra routines


Your calculation utilizes the atom-pairwise dispersion correction
with the zero-damping scheme (D30)
Cite in your paper:
S.Grimme, J.Antony, S.Ehrlich and H.Krieg, J.Chem.Phys., 132, (2010), 154104 
   

XCFun DFT library Copyright 2009-2010 Ulf Ekstrom and contributors.
See http://admol.org/xcfun for more information. This is free soft-
ware; see the source code for copying conditions. There is ABSOLUTELY
NO WARRANTY; not even for MERCHANTABILITY or FITNESS FOR A PARTICULAR
PURPOSE. For details see the documentation. Scientific users of this 
library should cite U. Ekstrom, L. Visscher, R. Bast, A. J. Thorvald-
sen and K. Ruud; J.Chem.Theor.Comp. 2010, DOI: 10.1021/ct100117s
XCFun Version 0.99 
Your calculation utilizes the basis: 6-31G(d)
   H-He, Li-Ne : W. J. Hehre, R. Ditchfield and J.A. Pople, J. Chem. Phys. 56, 2257 (1972).
                 Note: He and Ne are unpublished basis sets taken from the Gaussian program.
                 Note: Li and B from J. D. Dill and J. A. Pople, J. Chem. Phys. 62, 2921 (1975).
   Na - Ar     : M. M. Francl, W. J. Pietro, W. J. Hehre, J. S. Binkley, M. S. Gordon, 
                 D. J. DeFrees and J. A. Pople, J. Chem. Phys. 77, 3654 (1982).
   K - Zn      : V. A. Rassolov, J. A. Pople, M. A. Ratner, and T. L. Windus, J. Chem. Phys. 109, 1223 (1998).

================================================================================
                                        WARNINGS
                       Please study these warnings very carefully!
================================================================================

Warning: TCutStore was < 0. Adjusted to Thresh (uncritical)

INFO   : the flag for use of LIBINT has been found!

================================================================================
                                       INPUT FILE
================================================================================
NAME = initial40.inp
|  1> ! WB97X-D3 6-31G(d) VerySlowConv
|  2> ! KDIIS NOSOSCF
|  3> %base "Scan_40"
|  4> 
|  5> %scf
|  6> maxiter 999
|  7> end
|  8> 
|  9> * xyz 0 1
| 10> C         -4.472708000976    1.925921453785    0.000001568807
| 11> H          0.015871343274    1.925914854446   -0.000016377983
| 12> H         -5.968882975096    3.101725840558    4.065255437988
| 13> H         -5.968908331836   -2.182587695828   -1.014336473050
| 14> H         -5.968912035366    4.858625547039   -3.050894155761
| 15> **                         ****END OF INPUT****
================================================================================

                       ****************************
                       * Single Point Calculation *
                       ****************************

---------------------------------
CARTESIAN COORDINATES (ANGSTROEM)
---------------------------------
  C     -4.472708    1.925921    0.000002
  H      0.015871    1.925915   -0.000016
  H     -5.968883    3.101726    4.065255
  H     -5.968908   -2.182588   -1.014336
  H     -5.968912    4.858626   -3.050894

----------------------------
CARTESIAN COORDINATES (A.U.)
----------------------------
  NO LB      ZA    FRAG     MASS         X           Y           Z
   0 C     6.0000    0    12.011   -8.452193    3.639464    0.000003
   1 H     1.0000    0     1.008    0.029992    3.639452   -0.000031
   2 H     1.0000    0     1.008  -11.279554    5.861412    7.682219
   3 H     1.0000    0     1.008  -11.279602   -4.124493   -1.916818
   4 H     1.0000    0     1.008  -11.279609    9.181472   -5.765354

--------------------------------
INTERNAL COORDINATES (ANGSTROEM)
--------------------------------
 C      0   0   0     0.000000000000     0.00000000     0.00000000
 H      1   0   0     4.488579344291     0.00000000     0.00000000
 H      1   2   0     4.488579344295   109.47121850     0.00000000
 H      1   2   3     4.488579343810   109.47118164   240.00007790
 H      1   2   3     4.488579344659   109.47126170   120.00007839

---------------------------
INTERNAL COORDINATES (A.U.)
---------------------------
 C      0   0   0     0.000000000000     0.00000000     0.00000000
 H      1   0   0     8.482185691085     0.00000000     0.00000000
 H      1   2   0     8.482185691093   109.47121850     0.00000000
 H      1   2   3     8.482185690177   109.47118164   240.00007790
 H      1   2   3     8.482185691782   109.47126170   120.00007839

---------------------
BASIS SET INFORMATION
---------------------
There are 2 groups of distinct atoms

 Group   1 Type C   : 10s4p1d contracted to 3s2p1d pattern {631/31/1}
 Group   2 Type H   : 4s contracted to 2s pattern {31}

Atom   0C    basis set group =>   1
Atom   1H    basis set group =>   2
Atom   2H    basis set group =>   2
Atom   3H    basis set group =>   2
Atom   4H    basis set group =>   2
------------------------------------------------------------------------------
                           ORCA GTO INTEGRAL CALCULATION
------------------------------------------------------------------------------

                         BASIS SET STATISTICS AND STARTUP INFO

 # of primitive gaussian shells          ...   31
 # of primitive gaussian functions       ...   43
 # of contracted shells                  ...   14
 # of contracted basis functions         ...   22
 Highest angular momentum                ...    2
 Maximum contraction depth               ...    6
 Integral package used                   ... LIBINT
 Integral threshhold            Thresh   ...  1.000e-10
 Primitive cut-off              TCut     ...  1.000e-11


------------------------------ INTEGRAL EVALUATION ----------------------------


 * One electron integrals 
 Pre-screening matrix                    ... done
 Shell pair data                         ... done (   0.000 sec)

-------------------------------------------------------------------------------
                                 ORCA SCF
-------------------------------------------------------------------------------

------------
SCF SETTINGS
------------
Hamiltonian:
 Density Functional     Method          .... DFT(GTOs)
 Exchange Functional    Exchange        .... WB97X-D3
 Correlation Functional Correlation     .... WB97X-D3
 Gradients option       PostSCFGGA      .... off
 Hybrid DFT is turned on
   Fraction HF Exchange ScalHFX         ....  0.195728
   Scaling of DF-GGA-X  ScalDFX         ....  0.000000
   Scaling of DF-GGA-C  ScalDFC         ....  1.000000
   Scaling of DF-LDA-C  ScalLDAC        ....  1.000000
   Perturbative correction              ....  0.000000
 Long-range corrected/Screened/Range-Separated Hybrid DFT is turned on
   Amount of maximum screened exact exchange              ....  0.804272
   Range separation parameter mu (erf(mu*r12)/r12)        ....  0.250000


General Settings:
 Integral files         IntName         .... Scan_40
 Hartree-Fock type      HFTyp           .... RHF
 Total Charge           Charge          ....    0
 Multiplicity           Mult            ....    1
 Number of Electrons    NEL             ....   10
 Basis Dimension        Dim             ....   22
 Nuclear Repulsion      ENuc            ....      3.2626301312 Eh

Convergence Acceleration:
 DIIS                   CNVDIIS         .... on
   Start iteration      DIISMaxIt       ....     0
   Startup error        DIISStart       ....  0.200000
   # of expansion vecs  DIISMaxEq       ....     5
   Bias factor          DIISBfac        ....   1.050
   Max. coefficient     DIISMaxC        ....  10.000
 Newton-Raphson         CNVNR           .... off
 SOSCF                  CNVSOSCF        .... off
 Level Shifting         CNVShift        .... off
 Zerner damping         CNVZerner       .... off
 Static damping         CNVDamp         .... off
 Fernandez-Rico         CNVRico         .... off

SCF Procedure:
 Maximum # iterations   MaxIter         ....   999
 SCF integral mode      SCFMode         .... Direct
   Integral package                     .... LIBINT
 Reset frequeny         DirectResetFreq ....    20
 Integral Threshold     Thresh          ....  1.000e-10 Eh
 Primitive CutOff       TCut            ....  1.000e-11 Eh

Convergence Tolerance:
 Convergence Check Mode ConvCheckMode   .... All-Criteria
 Convergence forced     ConvForced      .... 0
 Energy Change          TolE            ....  1.000e-06 Eh
 Max Density Change     TolMaxP         ....  1.000e-05
 RMS Density Change     TolRMSP         ....  1.000e-06
 DIIS Error             TolErr          ....  1.000e-06


Diagonalization of the overlap matrix:
Smallest eigenvalue                        ... 1.869e-01
Time for diagonalization                   ...    0.001 sec
Threshold for overlap eigenvalues          ... 1.000e-08
Number of eigenvalues below threshold      ... 0
Time for construction of square roots      ...    0.017 sec
Total time needed                          ...    0.018 sec

-------------------
DFT GRID GENERATION
-------------------

General Integration Accuracy     IntAcc      ...  4.340
Radial Grid Type                 RadialGrid  ... Gauss-Chebyshev
Angular Grid (max. acc.)         AngularGrid ... Lebedev-110
Angular grid pruning method      GridPruning ... 3 (G Style)
Weight generation scheme         WeightScheme... Becke
Basis function cutoff            BFCut       ...    1.0000e-10
Integration weight cutoff        WCut        ...    1.0000e-14
Grids for H and He will be reduced by one unit

# of grid points (after initial pruning)     ...   4832 (   0.0 sec)
# of grid points (after weights+screening)   ...   4814 (   0.0 sec)
nearest neighbour list constructed           ...    0.0 sec
Grid point re-assignment to atoms done       ...    0.0 sec
Grid point division into batches done        ...    0.0 sec
Reduced shell lists constructed in    0.0 sec

Total number of grid points                  ...     4814
Total number of batches                      ...       78
Average number of points per batch           ...       61
Average number of grid points per atom       ...      963
Average number of shells per batch           ...     7.29 (52.08%)
Average number of basis functions per batch  ...    12.10 (55.01%)
Average number of large shells per batch     ...     5.04 (69.10%)
Average number of large basis fcns per batch ...     8.89 (73.43%)
Maximum spatial batch extension              ...  21.28, 25.60, 18.77 au
Average spatial batch extension              ...   6.50,  6.11,  5.65 au

Time for grid setup =    0.024 sec

------------------------------
INITIAL GUESS: MODEL POTENTIAL
------------------------------
Loading Hartree-Fock densities                     ... done
Calculating cut-offs                               ... done
Setting up the integral package                    ... done
Initializing the effective Hamiltonian             ... done
Starting the Coulomb interaction                   ... done (   0.0 sec)
Reading the grid                                   ... done
Mapping shells                                     ... done
Starting the XC term evaluation                    ... done (   0.0 sec)
  promolecular density results
     # of electrons  =      9.998003818
     EX              =     -5.945313760
     EC              =     -0.216485462
     EX+EC           =     -6.161799222
Transforming the Hamiltonian                       ... done (   0.0 sec)
Diagonalizing the Hamiltonian                      ... done (   0.0 sec)
Back transforming the eigenvectors                 ... done (   0.0 sec)
Now organizing SCF variables                       ... done
                      ------------------
                      INITIAL GUESS DONE (   0.1 sec)
                      ------------------
--------------
SCF ITERATIONS
--------------
ITER       Energy         Delta-E        Max-DP      RMS-DP      [F,P]   Gradient Norm
               ***  Starting incremental Fock matrix formation  ***
                             ****Resetting KDIIS****
                             ****Turning on KDIIS(Cayley)****
  0    -38.4326528177   0.000000000000 0.05498156  0.00481655  0.2161725   0.162561271
  1    -38.4837415022  -0.051088684467 0.09346885  0.00852386  0.1964750   0.150097893
  2    -38.5601603093  -0.076418807153 0.17145219  0.01559032  0.1613863   0.127181918
  3    -38.6838037792  -0.123643469835 0.29037045  0.02128899  0.1007167   0.083132470
  4    -38.7462392671  -0.062435487950 0.62069005  0.04148091  0.0535284   0.041607124
  5    -38.7681019251  -0.021862658004 0.19250813  0.01736464  0.0430104   0.038096345
  6    -38.7960806086  -0.027978683441 0.00878628  0.00079673  0.0284300   0.024376667
  7    -38.7947319208   0.001348687805 0.02726999  0.00338995  0.0251914   0.023323155
  8    -38.7940713305   0.000660590301 0.01792206  0.00201541  0.0316918   0.018804975
  9    -38.7916355848   0.002435745662 0.05992834  0.00656351  0.0196293   0.013080348
 10    -38.8017818016  -0.010146216796 0.04946108  0.00484780  0.0390362   0.025327095
 11    -38.7926045246   0.009177277010 0.02094428  0.00237695  0.0108174   0.007348000
 12    -38.7927996055  -0.000195080874 0.01591822  0.00166536  0.0071358   0.005726003
 13    -38.7940325352  -0.001232929727 0.02216328  0.00243481  0.0123187   0.010630648
 14    -38.7936806476   0.000351887588 0.02112805  0.00182822  0.0114445   0.009486494
 15    -38.7925099720   0.001170675658 0.00938894  0.00114550  0.0047330   0.003548184
 16    -38.7928915214  -0.000381549475 0.00808482  0.00083172  0.0112820   0.005878723
 17    -38.7924932449   0.000398276570 0.01471082  0.00160133  0.0053240   0.003314621
 18    -38.7937096652  -0.001216420353 0.02480559  0.00201175  0.0123669   0.009392614
 19    -38.7924717767   0.001237888540 0.00747449  0.00068700  0.0032971   0.002389200
               *** Restarting incremental Fock matrix formation ***
                             ****Resetting KDIIS****
 20    -38.7926703156  -0.000198538884 0.00251072  0.00024855  0.0047504   0.004362819
 21    -38.7928392929  -0.000168977331 0.00230526  0.00023457  0.0060138   0.005487331
 22    -38.7926818165   0.000157476406 0.00379310  0.00037874  0.0048301   0.004398992
 23    -38.7924973599   0.000184456590 0.00568462  0.00056807  0.0028869   0.002638489
Warning: badly conditioned DIIS matrix, 1 vectors out of 5 destroyed
 24    -38.7923937993   0.000103560583 0.00026690  0.00002174  0.0000845   0.000070897
                          ***Energy convergence achieved***
 25    -38.7923937154   0.000000083871 0.00007069  0.00000895  0.0001334   0.000088356
Warning: badly conditioned DIIS matrix, 1 vectors out of 5 destroyed
 26    -38.7923937351  -0.000000019667 0.00037705  0.00002944  0.0001201   0.000071305
 27    -38.7923938741  -0.000000138953 0.00010041  0.00001025  0.0000895   0.000082579

            ***Energy convergence in two consecutive cycles with***
                    ***'reasonable' density convergence***
                       *** signaling convergence ***

                    *** KDIIS BlockDiag ( 0.000 sec) ***

               *****************************************************
               *                     SUCCESS                       *
               *           SCF CONVERGED AFTER  28 CYCLES          *
               *****************************************************

Setting up the final grid:

General Integration Accuracy     IntAcc      ...  4.670
Radial Grid Type                 RadialGrid  ... Gauss-Chebyshev
Angular Grid (max. acc.)         AngularGrid ... Lebedev-302
Angular grid pruning method      GridPruning ... 3 (G Style)
Weight generation scheme         WeightScheme... Becke
Basis function cutoff            BFCut       ...    1.0000e-10
Integration weight cutoff        WCut        ...    1.0000e-14
Grids for H and He will be reduced by one unit

# of grid points (after initial pruning)     ...  19788 (   0.0 sec)
# of grid points (after weights+screening)   ...  19738 (   0.0 sec)
nearest neighbour list constructed           ...    0.0 sec
Grid point re-assignment to atoms done       ...    0.0 sec
Grid point division into batches done        ...    0.0 sec
Reduced shell lists constructed in    0.1 sec

Total number of grid points                  ...    19738
Total number of batches                      ...      310
Average number of points per batch           ...       63
Average number of grid points per atom       ...     3948
Average number of shells per batch           ...     6.05 (43.25%)
Average number of basis functions per batch  ...    10.11 (45.97%)
Average number of large shells per batch     ...     4.34 (71.69%)
Average number of large basis fcns per batch ...     7.50 (74.21%)
Maximum spatial batch extension              ...  20.64, 17.68, 16.85 au
Average spatial batch extension              ...   4.02,  3.81,  3.79 au

Final grid set up in    0.1 sec
Final integration                            ... done (   0.1 sec)
Change in XC energy                          ...    -0.000844160
Integrated number of electrons               ...    10.000011050
Previous integrated no of electrons          ...     9.998078590

----------------
TOTAL SCF ENERGY
----------------

Total Energy       :          -38.79323795 Eh           -1055.61767 eV

Components:
Nuclear Repulsion  :            3.26263013 Eh              88.78068 eV
Electronic Energy  :          -42.05586808 Eh           -1144.39835 eV
One Electron Energy:          -54.44239072 Eh           -1481.45277 eV
Two Electron Energy:           12.38652264 Eh             337.05442 eV

Virial components:
Potential Energy   :          -77.24355040 Eh           -2101.90387 eV
Kinetic Energy     :           38.45031245 Eh            1046.28619 eV
Virial Ratio       :            2.00891867


DFT components:
N(Alpha)           :        5.000005524773 electrons
N(Beta)            :        5.000005524773 electrons
N(Total)           :       10.000011049545 electrons
E(XC)              :       -3.890284174600 Eh       

---------------
SCF CONVERGENCE
---------------

  Last Energy change         ...    8.2607e-08  Tolerance :   1.0000e-06
  Last MAX-Density change    ...    7.0260e-05  Tolerance :   1.0000e-05
  Last RMS-Density change    ...    8.9258e-06  Tolerance :   1.0000e-06
  Last DIIS Error            ...    3.7807e-05  Tolerance :   1.0000e-06

             **** THE GBW FILE WAS UPDATED (Scan_40.gbw) ****
             **** DENSITY FILE WAS UPDATED (Scan_40.scfp.tmp) ****
             **** ENERGY FILE WAS UPDATED (Scan_40.en.tmp) ****
----------------
ORBITAL ENERGIES
----------------

  NO   OCC          E(Eh)            E(eV) 
   0   2.0000     -11.508721      -313.1682 
   1   2.0000      -1.392129       -37.8818 
   2   2.0000      -0.210511        -5.7283 
   3   2.0000      -0.210496        -5.7279 
   4   2.0000      -0.210481        -5.7275 
   5   0.0000      -0.759317       -20.6621 
   6   0.0000      -0.759275       -20.6609 
   7   0.0000      -0.759268       -20.6607 
   8   0.0000      -0.138173        -3.7599 
   9   0.0000       0.122219         3.3258 
  10   0.0000       0.122298         3.3279 
  11   0.0000       0.122394         3.3305 
  12   0.0000       0.167676         4.5627 
  13   0.0000       0.968490        26.3540 
  14   0.0000       0.968791        26.3621 
  15   0.0000       0.968928        26.3659 
  16   0.0000       0.968981        26.3673 
  17   0.0000       0.999529        27.1986 
  18   0.0000       0.999531        27.1986 
  19   0.0000       0.999545        27.1990 
  20   0.0000       0.999602        27.2005 
  21   0.0000       0.999604        27.2006 

                    ********************************
                    * MULLIKEN POPULATION ANALYSIS *
                    ********************************

-----------------------
MULLIKEN ATOMIC CHARGES
-----------------------
   0 C :    1.991966
   1 H :   -0.497783
   2 H :   -0.498247
   3 H :   -0.498288
   4 H :   -0.497648
Sum of atomic charges:    0.0000000

--------------------------------
MULLIKEN REDUCED ORBITAL CHARGES
--------------------------------
  0 C s       :     4.000000  s :     4.000000
      pz      :     0.002677  p :     0.008033
      px      :     0.002681
      py      :     0.002675
      dz2     :     0.000000  d :     0.000001
      dxz     :     0.000000
      dyz     :     0.000000
      dx2y2   :     0.000000
      dxy     :     0.000000
  1 H s       :     1.497783  s :     1.497783
  2 H s       :     1.498247  s :     1.498247
  3 H s       :     1.498288  s :     1.498288
  4 H s       :     1.497648  s :     1.497648


                     *******************************
                     * LOEWDIN POPULATION ANALYSIS *
                     *******************************

----------------------
LOEWDIN ATOMIC CHARGES
----------------------
   0 C :    1.992186
   1 H :   -0.497838
   2 H :   -0.498302
   3 H :   -0.498343
   4 H :   -0.497703

-------------------------------
LOEWDIN REDUCED ORBITAL CHARGES
-------------------------------
  0 C s       :     3.999999  s :     3.999999
      pz      :     0.002604  p :     0.007814
      px      :     0.002608
      py      :     0.002602
      dz2     :     0.000000  d :     0.000001
      dxz     :     0.000000
      dyz     :     0.000000
      dx2y2   :     0.000000
      dxy     :     0.000000
  1 H s       :     1.497838  s :     1.497838
  2 H s       :     1.498302  s :     1.498302
  3 H s       :     1.498343  s :     1.498343
  4 H s       :     1.497703  s :     1.497703


                      *****************************
                      * MAYER POPULATION ANALYSIS *
                      *****************************

  NA   - Mulliken gross atomic population
  ZA   - Total nuclear charge
  QA   - Mulliken gross atomic charge
  VA   - Mayer's total valence
  BVA  - Mayer's bonded valence
  FA   - Mayer's free valence

  ATOM       NA         ZA         QA         VA         BVA        FA
  0 C      4.0080     6.0000     1.9920     0.0160     0.0160     0.0000
  1 H      1.4978     1.0000    -0.4978     0.7522     0.7522     0.0000
  2 H      1.4982     1.0000    -0.4982     0.7517     0.7517     0.0000
  3 H      1.4983     1.0000    -0.4983     0.7517     0.7517     0.0000
  4 H      1.4976     1.0000    -0.4976     0.7523     0.7523     0.0000

  Mayer bond orders larger than 0.1
B(  1-H ,  2-H ) :   0.2493 B(  1-H ,  3-H ) :   0.2493 B(  1-H ,  4-H ) :   0.2496 
B(  2-H ,  3-H ) :   0.2491 B(  2-H ,  4-H ) :   0.2494 B(  3-H ,  4-H ) :   0.2494 


-------
TIMINGS
-------

Total SCF time: 0 days 0 hours 0 min 7 sec 

Total time                  ....       7.649 sec
Sum of individual times     ....       7.339 sec  ( 96.0%)

Fock matrix formation       ....       7.075 sec  ( 92.5%)
  XC integration            ....       1.397 sec  ( 19.7% of F)
    Basis function eval.    ....       0.238 sec  ( 17.0% of XC)
    Density eval.           ....       0.058 sec  (  4.1% of XC)
    XC-Functional eval.     ....       0.507 sec  ( 36.3% of XC)
    XC-Potential eval.      ....       0.019 sec  (  1.4% of XC)
Diagonalization             ....       0.009 sec  (  0.1%)
Density matrix formation    ....       0.000 sec  (  0.0%)
Population analysis         ....       0.010 sec  (  0.1%)
Initial guess               ....       0.104 sec  (  1.4%)
Orbital Transformation      ....       0.000 sec  (  0.0%)
Orbital Orthonormalization  ....       0.000 sec  (  0.0%)
DIIS solution               ....       0.000 sec  (  0.0%)
Grid generation             ....       0.141 sec  (  1.8%)


-------------------------------------------------------------------------------
                          DFT DISPERSION CORRECTION                            
                                                                               
                              DFTD3 V3.1  Rev 1                                
                              USING zero damping                               
-------------------------------------------------------------------------------
The omegaB97X-D3 functional is recognized. Fit by Chai et al.
Active option DFTDOPT                   ...         3   

molecular C6(AA) [au] = 319.263128 


            DFT-D V3
 parameters
 s6 scaling factor         :     1.0000 
 rs6 scaling factor        :     1.2810 
 s8 scaling factor         :     1.0000 
 rs8 scaling factor        :     1.0940 
 Damping factor alpha6     :    14.0000 
 Damping factor alpha8     :    16.0000 
 ad hoc parameters k1-k3   :    16.0000     1.3333    -4.0000 

 Edisp/kcal,au: -0.160512420324  -0.000255792797 
 E6   /kcal   :  -0.127047209 
 E8   /kcal   :  -0.033465211 
 % E8         :  20.848985527 

-------------------------   ----------------
Dispersion correction           -0.000255793
-------------------------   ----------------


-------------------------   --------------------
FINAL SINGLE POINT ENERGY       -38.793493744154
-------------------------   --------------------


                            ***************************************
                            *     ORCA property calculations      *
                            ***************************************

                                    ---------------------
                                    Active property flags
                                    ---------------------
   (+) Dipole Moment


------------------------------------------------------------------------------
                       ORCA ELECTRIC PROPERTIES CALCULATION
------------------------------------------------------------------------------

Dipole Moment Calculation                       ... on
Quadrupole Moment Calculation                   ... off
Polarizability Calculation                      ... off
GBWName                                         ... Scan_40.gbw
Electron density file                           ... Scan_40.scfp.tmp

-------------
DIPOLE MOMENT
-------------
                                X             Y             Z
Electronic contribution:      0.00214       0.00362      -0.00332
Nuclear contribution   :      0.00000      -0.00001       0.00000
                        -----------------------------------------
Total Dipole Moment    :      0.00214       0.00362      -0.00332
                        -----------------------------------------
Magnitude (a.u.)       :      0.00535
Magnitude (Debye)      :      0.01361


Timings for individual modules:

Sum of individual times         ...        7.971 sec (=   0.133 min)
GTO integral calculation        ...        0.298 sec (=   0.005 min)   3.7 %
SCF iterations                  ...        7.673 sec (=   0.128 min)  96.3 %
                             ****ORCA TERMINATED NORMALLY****
TOTAL RUN TIME: 0 days 0 hours 0 minutes 8 seconds 281 msec
