
                                 *****************
                                 * O   R   C   A *
                                 *****************

           --- An Ab Initio, DFT and Semiempirical electronic structure package ---

                  #######################################################
                  #                        -***-                        #
                  #  Department of molecular theory and spectroscopy    #
                  #              Directorship: Frank Neese              #
                  # Max Planck Institute for Chemical Energy Conversion #
                  #                  D-45470 Muelheim/Ruhr              #
                  #                       Germany                       #
                  #                                                     #
                  #                  All rights reserved                #
                  #                        -***-                        #
                  #######################################################


                         Program Version 4.0.0.2 - RELEASE -


 With contributions from (in alphabetic order):
   Daniel Aravena         : Magnetic Properties
   Michael Atanasov       : Ab Initio Ligand Field Theory
   Ute Becker             : Parallelization
   Martin Brehm           : Molecular dynamics
   Dmytro Bykov           : SCF Hessian
   Vijay G. Chilkuri      : MRCI spin determinant printing
   Dipayan Datta          : RHF DLPNO-CCSD density
   Achintya Kumar Dutta   : EOM-CC, STEOM-CC
   Dmitry Ganyushin       : Spin-Orbit,Spin-Spin,Magnetic field MRCI
   Yang Guo               : DLPNO-NEVPT2, CIM, IAO-localization
   Andreas Hansen         : Spin unrestricted coupled pair/coupled cluster methods
   Lee Huntington         : MR-EOM, pCC
   Robert Izsak           : Overlap fitted RIJCOSX, COSX-SCS-MP3, EOM
   Christian Kollmar      : KDIIS, OOCD, Brueckner-CCSD(T), CCSD density
   Simone Kossmann        : Meta GGA functionals, TD-DFT gradient, OOMP2, MP2 Hessian
   Martin Krupicka        : AUTO-CI
   Dagmar Lenk            : GEPOL surface
   Dimitrios Liakos       : Extrapolation schemes; parallel MDCI
   Dimitrios Manganas     : ROCIS; embedding schemes
   Dimitrios Pantazis     : SARC Basis sets
   Taras Petrenko         : DFT Hessian,TD-DFT gradient, ASA, ECA, R-Raman, ABS, FL, XAS/XES, NRVS
   Peter Pinski           : DLPNO-MP2
   Christoph Reimann      : Effective Core Potentials
   Marius Retegan         : Local ZFS, SOC
   Christoph Riplinger    : Optimizer, TS searches, QM/MM, DLPNO-CCSD(T), (RO)-DLPNO pert. Triples
   Tobias Risthaus        : Range-separated hybrids, TD-DFT gradient, RPA, STAB
   Michael Roemelt        : Restricted open shell CIS
   Masaaki Saitow         : Open-shell DLPNO
   Barbara Sandhoefer     : DKH picture change effects
   Kantharuban Sivalingam : CASSCF convergence, NEVPT2, FIC-MRCI
   Georgi Stoychev        : AutoAux
   Boris Wezisla          : Elementary symmetry handling
   Frank Wennmohs         : Technical directorship


 We gratefully acknowledge several colleagues who have allowed us to
 interface, adapt or use parts of their codes:
   Stefan Grimme, W. Hujo, H. Kruse,             : VdW corrections, initial TS optimization,
                  C. Bannwarth                     DFT functionals, gCP, sTDA/sTD-DF
   Ed Valeev                                     : LibInt (2-el integral package), F12 methods
   Garnet Chan, S. Sharma, J. Yang, R. Olivares  : DMRG
   Ulf Ekstrom                                   : XCFun DFT Library
   Mihaly Kallay                                 : mrcc  (arbitrary order and MRCC methods)
   Jiri Pittner, Ondrej Demel                    : Mk-CCSD
   Frank Weinhold                                : gennbo (NPA and NBO analysis)
   Christopher J. Cramer and Donald G. Truhlar   : smd solvation model


 Your calculation uses the libint2 library for the computation of 2-el integrals
 For citations please refer to: http://libint.valeyev.net

 This ORCA versions uses:
   CBLAS   interface :  Fast vector & matrix operations
   LAPACKE interface :  Fast linear algebra routines
   SCALAPACK package :  Parallel linear algebra routines


Your calculation utilizes the atom-pairwise dispersion correction
with the zero-damping scheme (D30)
Cite in your paper:
S.Grimme, J.Antony, S.Ehrlich and H.Krieg, J.Chem.Phys., 132, (2010), 154104 
   

XCFun DFT library Copyright 2009-2010 Ulf Ekstrom and contributors.
See http://admol.org/xcfun for more information. This is free soft-
ware; see the source code for copying conditions. There is ABSOLUTELY
NO WARRANTY; not even for MERCHANTABILITY or FITNESS FOR A PARTICULAR
PURPOSE. For details see the documentation. Scientific users of this 
library should cite U. Ekstrom, L. Visscher, R. Bast, A. J. Thorvald-
sen and K. Ruud; J.Chem.Theor.Comp. 2010, DOI: 10.1021/ct100117s
XCFun Version 0.99 
Your calculation utilizes the basis: 6-31G(d)
   H-He, Li-Ne : W. J. Hehre, R. Ditchfield and J.A. Pople, J. Chem. Phys. 56, 2257 (1972).
                 Note: He and Ne are unpublished basis sets taken from the Gaussian program.
                 Note: Li and B from J. D. Dill and J. A. Pople, J. Chem. Phys. 62, 2921 (1975).
   Na - Ar     : M. M. Francl, W. J. Pietro, W. J. Hehre, J. S. Binkley, M. S. Gordon, 
                 D. J. DeFrees and J. A. Pople, J. Chem. Phys. 77, 3654 (1982).
   K - Zn      : V. A. Rassolov, J. A. Pople, M. A. Ratner, and T. L. Windus, J. Chem. Phys. 109, 1223 (1998).

================================================================================
                                        WARNINGS
                       Please study these warnings very carefully!
================================================================================

Warning: TCutStore was < 0. Adjusted to Thresh (uncritical)

INFO   : the flag for use of LIBINT has been found!

================================================================================
                                       INPUT FILE
================================================================================
NAME = initial41.inp
|  1> ! WB97X-D3 6-31G(d) VerySlowConv
|  2> ! KDIIS NOSOSCF
|  3> %base "Scan_41"
|  4> 
|  5> %scf
|  6> maxiter 999
|  7> end
|  8> 
|  9> * xyz 0 1
| 10> C         -4.472708003197    1.925921548357    0.000001537172
| 11> H          0.118151453275    1.925914682776   -0.000016776639
| 12> H         -6.002975927975    3.128518572192    4.157889345252
| 13> H         -6.003001833128   -2.276207180392   -1.037449903582
| 14> H         -6.003005688975    4.925452377066   -3.120414202203
| 15> **                         ****END OF INPUT****
================================================================================

                       ****************************
                       * Single Point Calculation *
                       ****************************

---------------------------------
CARTESIAN COORDINATES (ANGSTROEM)
---------------------------------
  C     -4.472708    1.925922    0.000002
  H      0.118151    1.925915   -0.000017
  H     -6.002976    3.128519    4.157889
  H     -6.003002   -2.276207   -1.037450
  H     -6.003006    4.925452   -3.120414

----------------------------
CARTESIAN COORDINATES (A.U.)
----------------------------
  NO LB      ZA    FRAG     MASS         X           Y           Z
   0 C     6.0000    0    12.011   -8.452193    3.639464    0.000003
   1 H     1.0000    0     1.008    0.223274    3.639451   -0.000032
   2 H     1.0000    0     1.008  -11.343980    5.912043    7.857272
   3 H     1.0000    0     1.008  -11.344029   -4.301408   -1.960496
   4 H     1.0000    0     1.008  -11.344037    9.307756   -5.896728

--------------------------------
INTERNAL COORDINATES (ANGSTROEM)
--------------------------------
 C      0   0   0     0.000000000000     0.00000000     0.00000000
 H      1   0   0     4.590859456514     0.00000000     0.00000000
 H      1   2   0     4.590859456346   109.47121831     0.00000000
 H      1   2   3     4.590859456662   109.47117988   240.00008128
 H      1   2   3     4.590859460495   109.47126348   120.00008152

---------------------------
INTERNAL COORDINATES (A.U.)
---------------------------
 C      0   0   0     0.000000000000     0.00000000     0.00000000
 H      1   0   0     8.675467092133     0.00000000     0.00000000
 H      1   2   0     8.675467091817   109.47121831     0.00000000
 H      1   2   3     8.675467092414   109.47117988   240.00008128
 H      1   2   3     8.675467099656   109.47126348   120.00008152

---------------------
BASIS SET INFORMATION
---------------------
There are 2 groups of distinct atoms

 Group   1 Type C   : 10s4p1d contracted to 3s2p1d pattern {631/31/1}
 Group   2 Type H   : 4s contracted to 2s pattern {31}

Atom   0C    basis set group =>   1
Atom   1H    basis set group =>   2
Atom   2H    basis set group =>   2
Atom   3H    basis set group =>   2
Atom   4H    basis set group =>   2
------------------------------------------------------------------------------
                           ORCA GTO INTEGRAL CALCULATION
------------------------------------------------------------------------------

                         BASIS SET STATISTICS AND STARTUP INFO

 # of primitive gaussian shells          ...   31
 # of primitive gaussian functions       ...   43
 # of contracted shells                  ...   14
 # of contracted basis functions         ...   22
 Highest angular momentum                ...    2
 Maximum contraction depth               ...    6
 Integral package used                   ... LIBINT
 Integral threshhold            Thresh   ...  1.000e-10
 Primitive cut-off              TCut     ...  1.000e-11


------------------------------ INTEGRAL EVALUATION ----------------------------


 * One electron integrals 
 Pre-screening matrix                    ... done
 Shell pair data                         ... done (   0.000 sec)

-------------------------------------------------------------------------------
                                 ORCA SCF
-------------------------------------------------------------------------------

------------
SCF SETTINGS
------------
Hamiltonian:
 Density Functional     Method          .... DFT(GTOs)
 Exchange Functional    Exchange        .... WB97X-D3
 Correlation Functional Correlation     .... WB97X-D3
 Gradients option       PostSCFGGA      .... off
 Hybrid DFT is turned on
   Fraction HF Exchange ScalHFX         ....  0.195728
   Scaling of DF-GGA-X  ScalDFX         ....  0.000000
   Scaling of DF-GGA-C  ScalDFC         ....  1.000000
   Scaling of DF-LDA-C  ScalLDAC        ....  1.000000
   Perturbative correction              ....  0.000000
 Long-range corrected/Screened/Range-Separated Hybrid DFT is turned on
   Amount of maximum screened exact exchange              ....  0.804272
   Range separation parameter mu (erf(mu*r12)/r12)        ....  0.250000


General Settings:
 Integral files         IntName         .... Scan_41
 Hartree-Fock type      HFTyp           .... RHF
 Total Charge           Charge          ....    0
 Multiplicity           Mult            ....    1
 Number of Electrons    NEL             ....   10
 Basis Dimension        Dim             ....   22
 Nuclear Repulsion      ENuc            ....      3.1899417420 Eh

Convergence Acceleration:
 DIIS                   CNVDIIS         .... on
   Start iteration      DIISMaxIt       ....     0
   Startup error        DIISStart       ....  0.200000
   # of expansion vecs  DIISMaxEq       ....     5
   Bias factor          DIISBfac        ....   1.050
   Max. coefficient     DIISMaxC        ....  10.000
 Newton-Raphson         CNVNR           .... off
 SOSCF                  CNVSOSCF        .... off
 Level Shifting         CNVShift        .... off
 Zerner damping         CNVZerner       .... off
 Static damping         CNVDamp         .... off
 Fernandez-Rico         CNVRico         .... off

SCF Procedure:
 Maximum # iterations   MaxIter         ....   999
 SCF integral mode      SCFMode         .... Direct
   Integral package                     .... LIBINT
 Reset frequeny         DirectResetFreq ....    20
 Integral Threshold     Thresh          ....  1.000e-10 Eh
 Primitive CutOff       TCut            ....  1.000e-11 Eh

Convergence Tolerance:
 Convergence Check Mode ConvCheckMode   .... All-Criteria
 Convergence forced     ConvForced      .... 0
 Energy Change          TolE            ....  1.000e-06 Eh
 Max Density Change     TolMaxP         ....  1.000e-05
 RMS Density Change     TolRMSP         ....  1.000e-06
 DIIS Error             TolErr          ....  1.000e-06


Diagonalization of the overlap matrix:
Smallest eigenvalue                        ... 1.869e-01
Time for diagonalization                   ...    0.000 sec
Threshold for overlap eigenvalues          ... 1.000e-08
Number of eigenvalues below threshold      ... 0
Time for construction of square roots      ...    0.004 sec
Total time needed                          ...    0.005 sec

-------------------
DFT GRID GENERATION
-------------------

General Integration Accuracy     IntAcc      ...  4.340
Radial Grid Type                 RadialGrid  ... Gauss-Chebyshev
Angular Grid (max. acc.)         AngularGrid ... Lebedev-110
Angular grid pruning method      GridPruning ... 3 (G Style)
Weight generation scheme         WeightScheme... Becke
Basis function cutoff            BFCut       ...    1.0000e-10
Integration weight cutoff        WCut        ...    1.0000e-14
Grids for H and He will be reduced by one unit

# of grid points (after initial pruning)     ...   4832 (   0.0 sec)
# of grid points (after weights+screening)   ...   4814 (   0.0 sec)
nearest neighbour list constructed           ...    0.0 sec
Grid point re-assignment to atoms done       ...    0.0 sec
Grid point division into batches done        ...    0.0 sec
Reduced shell lists constructed in    0.0 sec

Total number of grid points                  ...     4814
Total number of batches                      ...       78
Average number of points per batch           ...       61
Average number of grid points per atom       ...      963
Average number of shells per batch           ...     7.18 (51.27%)
Average number of basis functions per batch  ...    12.01 (54.60%)
Average number of large shells per batch     ...     4.84 (67.37%)
Average number of large basis fcns per batch ...     8.51 (70.81%)
Maximum spatial batch extension              ...  21.48, 25.60, 18.77 au
Average spatial batch extension              ...   6.53,  6.21,  5.78 au

Time for grid setup =    0.024 sec

------------------------------
INITIAL GUESS: MODEL POTENTIAL
------------------------------
Loading Hartree-Fock densities                     ... done
Calculating cut-offs                               ... done
Setting up the integral package                    ... done
Initializing the effective Hamiltonian             ... done
Starting the Coulomb interaction                   ... done (   0.0 sec)
Reading the grid                                   ... done
Mapping shells                                     ... done
Starting the XC term evaluation                    ... done (   0.0 sec)
  promolecular density results
     # of electrons  =      9.998009549
     EX              =     -5.945296032
     EC              =     -0.216465296
     EX+EC           =     -6.161761328
Transforming the Hamiltonian                       ... done (   0.0 sec)
Diagonalizing the Hamiltonian                      ... done (   0.0 sec)
Back transforming the eigenvectors                 ... done (   0.0 sec)
Now organizing SCF variables                       ... done
                      ------------------
                      INITIAL GUESS DONE (   0.1 sec)
                      ------------------
--------------
SCF ITERATIONS
--------------
ITER       Energy         Delta-E        Max-DP      RMS-DP      [F,P]   Gradient Norm
               ***  Starting incremental Fock matrix formation  ***
                             ****Resetting KDIIS****
                             ****Turning on KDIIS(Cayley)****
  0    -38.2945988972   0.000000000000 0.05513906  0.00498951  0.2166132   0.163700060
  1    -38.3454047001  -0.050805802861 0.09392753  0.00889499  0.1970864   0.152145461
  2    -38.4280536580  -0.082648957911 0.17604753  0.01598223  0.1618142   0.131943836
  3    -38.5713270426  -0.143273384640 0.30635726  0.02709742  0.1395144   0.098411288
  4    -38.7361022360  -0.164775193339 0.07177972  0.01029725  0.0562340   0.041914306
  5    -38.7580891851  -0.021986949101 0.30881772  0.02240894  0.0736165   0.056949336
  6    -38.7781362458  -0.020047060791 0.09370803  0.01027862  0.0177824   0.023717500
  7    -38.7982850467  -0.020148800816 0.06182901  0.00560511  0.0471742   0.037818091
  8    -38.7776605483   0.020624498331 0.16174927  0.01182300  0.0241553   0.021637719
  9    -38.7845602282  -0.006899679889 0.03118213  0.00264738  0.0181915   0.012976318
 10    -38.7870609314  -0.002500703144 0.04736073  0.00389931  0.0273833   0.017639665
 11    -38.7841094110   0.002951520321 0.01418293  0.00169490  0.0154666   0.010219748
 12    -38.7858537353  -0.001744324211 0.02799970  0.00285503  0.0225618   0.015504557
 13    -38.7832105092   0.002643226038 0.00063360  0.00005709  0.0069845   0.006357183
 14    -38.7831955837   0.000014925497 0.00690414  0.00076288  0.0069893   0.006284100
 15    -38.7836049142  -0.000409330469 0.01477994  0.00161193  0.0100736   0.008279101
 16    -38.7831860455   0.000418868677 0.00769684  0.00076551  0.0111472   0.006544111
 17    -38.7838314232  -0.000645377729 0.01826395  0.00193133  0.0158691   0.009004059
 18    -38.7828631335   0.000968289722 0.01439354  0.00140927  0.0047717   0.003126154
 19    -38.7839073263  -0.001044192832 0.02183688  0.00198385  0.0113182   0.008919592
               *** Restarting incremental Fock matrix formation ***
                             ****Resetting KDIIS****
 20    -38.7832325366   0.000674789790 0.00351353  0.00033810  0.0069689   0.005930699
 21    -38.7835446724  -0.000312135816 0.00313615  0.00031743  0.0088337   0.007463801
 22    -38.7832602597   0.000284412631 0.00521790  0.00051282  0.0071103   0.005990831
 23    -38.7829222819   0.000337977824 0.00788767  0.00076898  0.0042693   0.003591885
 24    -38.7827327290   0.000189552899 0.00028749  0.00002282  0.0001101   0.000080168
                          ***Energy convergence achieved***
 25    -38.7827327625  -0.000000033527 0.00018728  0.00001846  0.0000393   0.000038876

            ***Energy convergence in two consecutive cycles with***
                    ***'reasonable' density convergence***
                       *** signaling convergence ***

                    *** KDIIS BlockDiag ( 0.000 sec) ***

               *****************************************************
               *                     SUCCESS                       *
               *           SCF CONVERGED AFTER  26 CYCLES          *
               *****************************************************

Setting up the final grid:

General Integration Accuracy     IntAcc      ...  4.670
Radial Grid Type                 RadialGrid  ... Gauss-Chebyshev
Angular Grid (max. acc.)         AngularGrid ... Lebedev-302
Angular grid pruning method      GridPruning ... 3 (G Style)
Weight generation scheme         WeightScheme... Becke
Basis function cutoff            BFCut       ...    1.0000e-10
Integration weight cutoff        WCut        ...    1.0000e-14
Grids for H and He will be reduced by one unit

# of grid points (after initial pruning)     ...  19788 (   0.0 sec)
# of grid points (after weights+screening)   ...  19742 (   0.0 sec)
nearest neighbour list constructed           ...    0.0 sec
Grid point re-assignment to atoms done       ...    0.0 sec
Grid point division into batches done        ...    0.0 sec
Reduced shell lists constructed in    0.1 sec

Total number of grid points                  ...    19742
Total number of batches                      ...      311
Average number of points per batch           ...       63
Average number of grid points per atom       ...     3948
Average number of shells per batch           ...     5.93 (42.33%)
Average number of basis functions per batch  ...     9.88 (44.89%)
Average number of large shells per batch     ...     4.15 (69.98%)
Average number of large basis fcns per batch ...     7.17 (72.57%)
Maximum spatial batch extension              ...  20.64, 17.62, 16.85 au
Average spatial batch extension              ...   4.05,  3.82,  3.79 au

Final grid set up in    0.1 sec
Final integration                            ... done (   0.1 sec)
Change in XC energy                          ...    -0.000820082
Integrated number of electrons               ...    10.000017347
Previous integrated no of electrons          ...     9.998139267

----------------
TOTAL SCF ENERGY
----------------

Total Energy       :          -38.78355285 Eh           -1055.35413 eV

Components:
Nuclear Repulsion  :            3.18994174 Eh              86.80273 eV
Electronic Energy  :          -41.97349460 Eh           -1142.15685 eV
One Electron Energy:          -54.27368120 Eh           -1476.86195 eV
Two Electron Energy:           12.30018660 Eh             334.70509 eV

Virial components:
Potential Energy   :          -77.23280238 Eh           -2101.61140 eV
Kinetic Energy     :           38.44924953 Eh            1046.25727 eV
Virial Ratio       :            2.00869466


DFT components:
N(Alpha)           :        5.000008673368 electrons
N(Beta)            :        5.000008673368 electrons
N(Total)           :       10.000017346736 electrons
E(XC)              :       -3.890612462046 Eh       

---------------
SCF CONVERGENCE
---------------

  Last Energy change         ...   -1.0132e-08  Tolerance :   1.0000e-06
  Last MAX-Density change    ...    2.9014e-05  Tolerance :   1.0000e-05
  Last RMS-Density change    ...    3.1310e-06  Tolerance :   1.0000e-06
  Last DIIS Error            ...    3.6346e-05  Tolerance :   1.0000e-06

             **** THE GBW FILE WAS UPDATED (Scan_41.gbw) ****
             **** DENSITY FILE WAS UPDATED (Scan_41.scfp.tmp) ****
             **** ENERGY FILE WAS UPDATED (Scan_41.en.tmp) ****
----------------
ORBITAL ENERGIES
----------------

  NO   OCC          E(Eh)            E(eV) 
   0   2.0000     -11.514928      -313.3371 
   1   2.0000      -1.398028       -38.0423 
   2   2.0000      -0.207093        -5.6353 
   3   2.0000      -0.207084        -5.6350 
   4   2.0000      -0.207079        -5.6349 
   5   0.0000      -0.765191       -20.8219 
   6   0.0000      -0.765157       -20.8210 
   7   0.0000      -0.765151       -20.8208 
   8   0.0000      -0.136404        -3.7117 
   9   0.0000       0.116582         3.1724 
  10   0.0000       0.116598         3.1728 
  11   0.0000       0.116665         3.1746 
  12   0.0000       0.161927         4.4062 
  13   0.0000       0.971377        26.4325 
  14   0.0000       0.971628        26.4393 
  15   0.0000       0.971758        26.4429 
  16   0.0000       0.971829        26.4448 
  17   0.0000       0.993625        27.0379 
  18   0.0000       0.993627        27.0380 
  19   0.0000       0.993641        27.0383 
  20   0.0000       0.993686        27.0396 
  21   0.0000       0.993688        27.0396 

                    ********************************
                    * MULLIKEN POPULATION ANALYSIS *
                    ********************************

-----------------------
MULLIKEN ATOMIC CHARGES
-----------------------
   0 C :    1.994308
   1 H :   -0.498313
   2 H :   -0.498930
   3 H :   -0.498854
   4 H :   -0.498211
Sum of atomic charges:   -0.0000000

--------------------------------
MULLIKEN REDUCED ORBITAL CHARGES
--------------------------------
  0 C s       :     4.000000  s :     4.000000
      pz      :     0.001897  p :     0.005692
      px      :     0.001898
      py      :     0.001897
      dz2     :     0.000000  d :     0.000000
      dxz     :     0.000000
      dyz     :     0.000000
      dx2y2   :     0.000000
      dxy     :     0.000000
  1 H s       :     1.498313  s :     1.498313
  2 H s       :     1.498930  s :     1.498930
  3 H s       :     1.498854  s :     1.498854
  4 H s       :     1.498211  s :     1.498211


                     *******************************
                     * LOEWDIN POPULATION ANALYSIS *
                     *******************************

----------------------
LOEWDIN ATOMIC CHARGES
----------------------
   0 C :    1.994458
   1 H :   -0.498350
   2 H :   -0.498968
   3 H :   -0.498892
   4 H :   -0.498248

-------------------------------
LOEWDIN REDUCED ORBITAL CHARGES
-------------------------------
  0 C s       :     3.999999  s :     3.999999
      pz      :     0.001847  p :     0.005542
      px      :     0.001848
      py      :     0.001847
      dz2     :     0.000000  d :     0.000000
      dxz     :     0.000000
      dyz     :     0.000000
      dx2y2   :     0.000000
      dxy     :     0.000000
  1 H s       :     1.498350  s :     1.498350
  2 H s       :     1.498968  s :     1.498968
  3 H s       :     1.498892  s :     1.498892
  4 H s       :     1.498248  s :     1.498248


                      *****************************
                      * MAYER POPULATION ANALYSIS *
                      *****************************

  NA   - Mulliken gross atomic population
  ZA   - Total nuclear charge
  QA   - Mulliken gross atomic charge
  VA   - Mayer's total valence
  BVA  - Mayer's bonded valence
  FA   - Mayer's free valence

  ATOM       NA         ZA         QA         VA         BVA        FA
  0 C      4.0057     6.0000     1.9943     0.0114     0.0114    -0.0000
  1 H      1.4983     1.0000    -0.4983     0.7517     0.7517    -0.0000
  2 H      1.4989     1.0000    -0.4989     0.7511     0.7511     0.0000
  3 H      1.4989     1.0000    -0.4989     0.7511     0.7511     0.0000
  4 H      1.4982     1.0000    -0.4982     0.7518     0.7518     0.0000

  Mayer bond orders larger than 0.1
B(  1-H ,  2-H ) :   0.2495 B(  1-H ,  3-H ) :   0.2495 B(  1-H ,  4-H ) :   0.2498 
B(  2-H ,  3-H ) :   0.2492 B(  2-H ,  4-H ) :   0.2495 B(  3-H ,  4-H ) :   0.2496 


-------
TIMINGS
-------

Total SCF time: 0 days 0 hours 0 min 7 sec 

Total time                  ....       7.279 sec
Sum of individual times     ....       7.013 sec  ( 96.4%)

Fock matrix formation       ....       6.748 sec  ( 92.7%)
  XC integration            ....       1.262 sec  ( 18.7% of F)
    Basis function eval.    ....       0.218 sec  ( 17.3% of XC)
    Density eval.           ....       0.053 sec  (  4.2% of XC)
    XC-Functional eval.     ....       0.451 sec  ( 35.8% of XC)
    XC-Potential eval.      ....       0.018 sec  (  1.4% of XC)
Diagonalization             ....       0.010 sec  (  0.1%)
Density matrix formation    ....       0.000 sec  (  0.0%)
Population analysis         ....       0.010 sec  (  0.1%)
Initial guess               ....       0.104 sec  (  1.4%)
Orbital Transformation      ....       0.000 sec  (  0.0%)
Orbital Orthonormalization  ....       0.000 sec  (  0.0%)
DIIS solution               ....       0.000 sec  (  0.0%)
Grid generation             ....       0.142 sec  (  1.9%)


-------------------------------------------------------------------------------
                          DFT DISPERSION CORRECTION                            
                                                                               
                              DFTD3 V3.1  Rev 1                                
                              USING zero damping                               
-------------------------------------------------------------------------------
The omegaB97X-D3 functional is recognized. Fit by Chai et al.
Active option DFTDOPT                   ...         3   

molecular C6(AA) [au] = 319.263220 


            DFT-D V3
 parameters
 s6 scaling factor         :     1.0000 
 rs6 scaling factor        :     1.2810 
 s8 scaling factor         :     1.0000 
 rs8 scaling factor        :     1.0940 
 Damping factor alpha6     :    14.0000 
 Damping factor alpha8     :    16.0000 
 ad hoc parameters k1-k3   :    16.0000     1.3333    -4.0000 

 Edisp/kcal,au: -0.140068351189  -0.000223213102 
 E6   /kcal   :  -0.112109701 
 E8   /kcal   :  -0.027958650 
 % E8         :  19.960719150 

-------------------------   ----------------
Dispersion correction           -0.000223213
-------------------------   ----------------


-------------------------   --------------------
FINAL SINGLE POINT ENERGY       -38.783776068083
-------------------------   --------------------


                            ***************************************
                            *     ORCA property calculations      *
                            ***************************************

                                    ---------------------
                                    Active property flags
                                    ---------------------
   (+) Dipole Moment


------------------------------------------------------------------------------
                       ORCA ELECTRIC PROPERTIES CALCULATION
------------------------------------------------------------------------------

Dipole Moment Calculation                       ... on
Quadrupole Moment Calculation                   ... off
Polarizability Calculation                      ... off
GBWName                                         ... Scan_41.gbw
Electron density file                           ... Scan_41.scfp.tmp

-------------
DIPOLE MOMENT
-------------
                                X             Y             Z
Electronic contribution:      0.00290       0.00347      -0.00436
Nuclear contribution   :      0.00000      -0.00001       0.00000
                        -----------------------------------------
Total Dipole Moment    :      0.00290       0.00346      -0.00435
                        -----------------------------------------
Magnitude (a.u.)       :      0.00627
Magnitude (Debye)      :      0.01595


Timings for individual modules:

Sum of individual times         ...        7.602 sec (=   0.127 min)
GTO integral calculation        ...        0.301 sec (=   0.005 min)   4.0 %
SCF iterations                  ...        7.300 sec (=   0.122 min)  96.0 %
                             ****ORCA TERMINATED NORMALLY****
TOTAL RUN TIME: 0 days 0 hours 0 minutes 7 seconds 920 msec
