
                                 *****************
                                 * O   R   C   A *
                                 *****************

           --- An Ab Initio, DFT and Semiempirical electronic structure package ---

                  #######################################################
                  #                        -***-                        #
                  #  Department of molecular theory and spectroscopy    #
                  #              Directorship: Frank Neese              #
                  # Max Planck Institute for Chemical Energy Conversion #
                  #                  D-45470 Muelheim/Ruhr              #
                  #                       Germany                       #
                  #                                                     #
                  #                  All rights reserved                #
                  #                        -***-                        #
                  #######################################################


                         Program Version 4.0.0.2 - RELEASE -


 With contributions from (in alphabetic order):
   Daniel Aravena         : Magnetic Properties
   Michael Atanasov       : Ab Initio Ligand Field Theory
   Ute Becker             : Parallelization
   Martin Brehm           : Molecular dynamics
   Dmytro Bykov           : SCF Hessian
   Vijay G. Chilkuri      : MRCI spin determinant printing
   Dipayan Datta          : RHF DLPNO-CCSD density
   Achintya Kumar Dutta   : EOM-CC, STEOM-CC
   Dmitry Ganyushin       : Spin-Orbit,Spin-Spin,Magnetic field MRCI
   Yang Guo               : DLPNO-NEVPT2, CIM, IAO-localization
   Andreas Hansen         : Spin unrestricted coupled pair/coupled cluster methods
   Lee Huntington         : MR-EOM, pCC
   Robert Izsak           : Overlap fitted RIJCOSX, COSX-SCS-MP3, EOM
   Christian Kollmar      : KDIIS, OOCD, Brueckner-CCSD(T), CCSD density
   Simone Kossmann        : Meta GGA functionals, TD-DFT gradient, OOMP2, MP2 Hessian
   Martin Krupicka        : AUTO-CI
   Dagmar Lenk            : GEPOL surface
   Dimitrios Liakos       : Extrapolation schemes; parallel MDCI
   Dimitrios Manganas     : ROCIS; embedding schemes
   Dimitrios Pantazis     : SARC Basis sets
   Taras Petrenko         : DFT Hessian,TD-DFT gradient, ASA, ECA, R-Raman, ABS, FL, XAS/XES, NRVS
   Peter Pinski           : DLPNO-MP2
   Christoph Reimann      : Effective Core Potentials
   Marius Retegan         : Local ZFS, SOC
   Christoph Riplinger    : Optimizer, TS searches, QM/MM, DLPNO-CCSD(T), (RO)-DLPNO pert. Triples
   Tobias Risthaus        : Range-separated hybrids, TD-DFT gradient, RPA, STAB
   Michael Roemelt        : Restricted open shell CIS
   Masaaki Saitow         : Open-shell DLPNO
   Barbara Sandhoefer     : DKH picture change effects
   Kantharuban Sivalingam : CASSCF convergence, NEVPT2, FIC-MRCI
   Georgi Stoychev        : AutoAux
   Boris Wezisla          : Elementary symmetry handling
   Frank Wennmohs         : Technical directorship


 We gratefully acknowledge several colleagues who have allowed us to
 interface, adapt or use parts of their codes:
   Stefan Grimme, W. Hujo, H. Kruse,             : VdW corrections, initial TS optimization,
                  C. Bannwarth                     DFT functionals, gCP, sTDA/sTD-DF
   Ed Valeev                                     : LibInt (2-el integral package), F12 methods
   Garnet Chan, S. Sharma, J. Yang, R. Olivares  : DMRG
   Ulf Ekstrom                                   : XCFun DFT Library
   Mihaly Kallay                                 : mrcc  (arbitrary order and MRCC methods)
   Jiri Pittner, Ondrej Demel                    : Mk-CCSD
   Frank Weinhold                                : gennbo (NPA and NBO analysis)
   Christopher J. Cramer and Donald G. Truhlar   : smd solvation model


 Your calculation uses the libint2 library for the computation of 2-el integrals
 For citations please refer to: http://libint.valeyev.net

 This ORCA versions uses:
   CBLAS   interface :  Fast vector & matrix operations
   LAPACKE interface :  Fast linear algebra routines
   SCALAPACK package :  Parallel linear algebra routines


Your calculation utilizes the atom-pairwise dispersion correction
with the zero-damping scheme (D30)
Cite in your paper:
S.Grimme, J.Antony, S.Ehrlich and H.Krieg, J.Chem.Phys., 132, (2010), 154104 
   

XCFun DFT library Copyright 2009-2010 Ulf Ekstrom and contributors.
See http://admol.org/xcfun for more information. This is free soft-
ware; see the source code for copying conditions. There is ABSOLUTELY
NO WARRANTY; not even for MERCHANTABILITY or FITNESS FOR A PARTICULAR
PURPOSE. For details see the documentation. Scientific users of this 
library should cite U. Ekstrom, L. Visscher, R. Bast, A. J. Thorvald-
sen and K. Ruud; J.Chem.Theor.Comp. 2010, DOI: 10.1021/ct100117s
XCFun Version 0.99 
Your calculation utilizes the basis: 6-31G(d)
   H-He, Li-Ne : W. J. Hehre, R. Ditchfield and J.A. Pople, J. Chem. Phys. 56, 2257 (1972).
                 Note: He and Ne are unpublished basis sets taken from the Gaussian program.
                 Note: Li and B from J. D. Dill and J. A. Pople, J. Chem. Phys. 62, 2921 (1975).
   Na - Ar     : M. M. Francl, W. J. Pietro, W. J. Hehre, J. S. Binkley, M. S. Gordon, 
                 D. J. DeFrees and J. A. Pople, J. Chem. Phys. 77, 3654 (1982).
   K - Zn      : V. A. Rassolov, J. A. Pople, M. A. Ratner, and T. L. Windus, J. Chem. Phys. 109, 1223 (1998).

================================================================================
                                        WARNINGS
                       Please study these warnings very carefully!
================================================================================

Warning: TCutStore was < 0. Adjusted to Thresh (uncritical)

INFO   : the flag for use of LIBINT has been found!

================================================================================
                                       INPUT FILE
================================================================================
NAME = initial42.inp
|  1> ! WB97X-D3 6-31G(d) VerySlowConv
|  2> ! KDIIS NOSOSCF
|  3> %base "Scan_42"
|  4> 
|  5> %scf
|  6> maxiter 1999
|  7> end
|  8> 
|  9> * xyz 0 1
| 10> C         -4.472707998943    1.925921637682    0.000001517733
| 11> H          0.220430508132    1.925914516788   -0.000017187693
| 12> H         -6.037068538630    3.155311035439    4.250522292541
| 13> H         -6.037094986747   -2.369825686691   -1.060563106391
| 14> H         -6.037098983812    4.992278496782   -3.189933516190
| 15> *
| 16> 
| 17>                          ****END OF INPUT****
================================================================================

                       ****************************
                       * Single Point Calculation *
                       ****************************

---------------------------------
CARTESIAN COORDINATES (ANGSTROEM)
---------------------------------
  C     -4.472708    1.925922    0.000002
  H      0.220431    1.925915   -0.000017
  H     -6.037069    3.155311    4.250522
  H     -6.037095   -2.369826   -1.060563
  H     -6.037099    4.992278   -3.189934

----------------------------
CARTESIAN COORDINATES (A.U.)
----------------------------
  NO LB      ZA    FRAG     MASS         X           Y           Z
   0 C     6.0000    0    12.011   -8.452193    3.639464    0.000003
   1 H     1.0000    0     1.008    0.416553    3.639451   -0.000032
   2 H     1.0000    0     1.008  -11.408406    5.962674    8.032323
   3 H     1.0000    0     1.008  -11.408456   -4.478322   -2.004174
   4 H     1.0000    0     1.008  -11.408464    9.434039   -6.028101

--------------------------------
INTERNAL COORDINATES (ANGSTROEM)
--------------------------------
 C      0   0   0     0.000000000000     0.00000000     0.00000000
 H      1   0   0     4.693138507118     0.00000000     0.00000000
 H      1   2   0     4.693138507068   109.47121861     0.00000000
 H      1   2   3     4.693138506843   109.47117843   240.00008376
 H      1   2   3     4.693138508668   109.47126493   120.00008438

---------------------------
INTERNAL COORDINATES (A.U.)
---------------------------
 C      0   0   0     0.000000000000     0.00000000     0.00000000
 H      1   0   0     8.868746487012     0.00000000     0.00000000
 H      1   2   0     8.868746486918   109.47121861     0.00000000
 H      1   2   3     8.868746486493   109.47117843   240.00008376
 H      1   2   3     8.868746489941   109.47126493   120.00008438

---------------------
BASIS SET INFORMATION
---------------------
There are 2 groups of distinct atoms

 Group   1 Type C   : 10s4p1d contracted to 3s2p1d pattern {631/31/1}
 Group   2 Type H   : 4s contracted to 2s pattern {31}

Atom   0C    basis set group =>   1
Atom   1H    basis set group =>   2
Atom   2H    basis set group =>   2
Atom   3H    basis set group =>   2
Atom   4H    basis set group =>   2
------------------------------------------------------------------------------
                           ORCA GTO INTEGRAL CALCULATION
------------------------------------------------------------------------------

                         BASIS SET STATISTICS AND STARTUP INFO

 # of primitive gaussian shells          ...   31
 # of primitive gaussian functions       ...   43
 # of contracted shells                  ...   14
 # of contracted basis functions         ...   22
 Highest angular momentum                ...    2
 Maximum contraction depth               ...    6
 Integral package used                   ... LIBINT
 Integral threshhold            Thresh   ...  1.000e-10
 Primitive cut-off              TCut     ...  1.000e-11


------------------------------ INTEGRAL EVALUATION ----------------------------


 * One electron integrals 
 Pre-screening matrix                    ... done
 Shell pair data                         ... done (   0.000 sec)

-------------------------------------------------------------------------------
                                 ORCA SCF
-------------------------------------------------------------------------------

------------
SCF SETTINGS
------------
Hamiltonian:
 Density Functional     Method          .... DFT(GTOs)
 Exchange Functional    Exchange        .... WB97X-D3
 Correlation Functional Correlation     .... WB97X-D3
 Gradients option       PostSCFGGA      .... off
 Hybrid DFT is turned on
   Fraction HF Exchange ScalHFX         ....  0.195728
   Scaling of DF-GGA-X  ScalDFX         ....  0.000000
   Scaling of DF-GGA-C  ScalDFC         ....  1.000000
   Scaling of DF-LDA-C  ScalLDAC        ....  1.000000
   Perturbative correction              ....  0.000000
 Long-range corrected/Screened/Range-Separated Hybrid DFT is turned on
   Amount of maximum screened exact exchange              ....  0.804272
   Range separation parameter mu (erf(mu*r12)/r12)        ....  0.250000


General Settings:
 Integral files         IntName         .... Scan_42
 Hartree-Fock type      HFTyp           .... RHF
 Total Charge           Charge          ....    0
 Multiplicity           Mult            ....    1
 Number of Electrons    NEL             ....   10
 Basis Dimension        Dim             ....   22
 Nuclear Repulsion      ENuc            ....      3.1204223340 Eh

Convergence Acceleration:
 DIIS                   CNVDIIS         .... on
   Start iteration      DIISMaxIt       ....     0
   Startup error        DIISStart       ....  0.200000
   # of expansion vecs  DIISMaxEq       ....     5
   Bias factor          DIISBfac        ....   1.050
   Max. coefficient     DIISMaxC        ....  10.000
 Newton-Raphson         CNVNR           .... off
 SOSCF                  CNVSOSCF        .... off
 Level Shifting         CNVShift        .... off
 Zerner damping         CNVZerner       .... off
 Static damping         CNVDamp         .... off
 Fernandez-Rico         CNVRico         .... off

SCF Procedure:
 Maximum # iterations   MaxIter         ....  1999
 SCF integral mode      SCFMode         .... Direct
   Integral package                     .... LIBINT
 Reset frequeny         DirectResetFreq ....    20
 Integral Threshold     Thresh          ....  1.000e-10 Eh
 Primitive CutOff       TCut            ....  1.000e-11 Eh

Convergence Tolerance:
 Convergence Check Mode ConvCheckMode   .... All-Criteria
 Convergence forced     ConvForced      .... 0
 Energy Change          TolE            ....  1.000e-06 Eh
 Max Density Change     TolMaxP         ....  1.000e-05
 RMS Density Change     TolRMSP         ....  1.000e-06
 DIIS Error             TolErr          ....  1.000e-06


Diagonalization of the overlap matrix:
Smallest eigenvalue                        ... 1.869e-01
Time for diagonalization                   ...    0.000 sec
Threshold for overlap eigenvalues          ... 1.000e-08
Number of eigenvalues below threshold      ... 0
Time for construction of square roots      ...    0.004 sec
Total time needed                          ...    0.004 sec

-------------------
DFT GRID GENERATION
-------------------

General Integration Accuracy     IntAcc      ...  4.340
Radial Grid Type                 RadialGrid  ... Gauss-Chebyshev
Angular Grid (max. acc.)         AngularGrid ... Lebedev-110
Angular grid pruning method      GridPruning ... 3 (G Style)
Weight generation scheme         WeightScheme... Becke
Basis function cutoff            BFCut       ...    1.0000e-10
Integration weight cutoff        WCut        ...    1.0000e-14
Grids for H and He will be reduced by one unit

# of grid points (after initial pruning)     ...   4832 (   0.0 sec)
# of grid points (after weights+screening)   ...   4814 (   0.0 sec)
nearest neighbour list constructed           ...    0.0 sec
Grid point re-assignment to atoms done       ...    0.0 sec
Grid point division into batches done        ...    0.0 sec
Reduced shell lists constructed in    0.0 sec

Total number of grid points                  ...     4814
Total number of batches                      ...       78
Average number of points per batch           ...       61
Average number of grid points per atom       ...      963
Average number of shells per batch           ...     7.10 (50.72%)
Average number of basis functions per batch  ...    11.96 (54.37%)
Average number of large shells per batch     ...     4.67 (65.78%)
Average number of large basis fcns per batch ...     8.16 (68.25%)
Maximum spatial batch extension              ...  21.67, 25.60, 18.77 au
Average spatial batch extension              ...   6.54,  6.26,  5.75 au

Time for grid setup =    0.024 sec

------------------------------
INITIAL GUESS: MODEL POTENTIAL
------------------------------
Loading Hartree-Fock densities                     ... done
Calculating cut-offs                               ... done
Setting up the integral package                    ... done
Initializing the effective Hamiltonian             ... done
Starting the Coulomb interaction                   ... done (   0.0 sec)
Reading the grid                                   ... done
Mapping shells                                     ... done
Starting the XC term evaluation                    ... done (   0.0 sec)
  promolecular density results
     # of electrons  =      9.997932627
     EX              =     -5.945257656
     EC              =     -0.216456343
     EX+EC           =     -6.161713999
Transforming the Hamiltonian                       ... done (   0.0 sec)
Diagonalizing the Hamiltonian                      ... done (   0.0 sec)
Back transforming the eigenvectors                 ... done (   0.0 sec)
Now organizing SCF variables                       ... done
                      ------------------
                      INITIAL GUESS DONE (   0.1 sec)
                      ------------------
--------------
SCF ITERATIONS
--------------
ITER       Energy         Delta-E        Max-DP      RMS-DP      [F,P]   Gradient Norm
               ***  Starting incremental Fock matrix formation  ***
                             ****Resetting KDIIS****
                             ****Turning on KDIIS(Cayley)****
  0    -38.2176660144   0.000000000000 0.05527122  0.00501607  0.2168941   0.158372944
  1    -38.2631699979  -0.045503983462 0.09410082  0.00892397  0.1974715   0.146228452
  2    -38.3334558597  -0.070285861813 0.17455385  0.01520496  0.1626199   0.124578442
  3    -38.4441534236  -0.110697563967 0.29517154  0.02227516  0.1494758   0.095670798
  4    -38.5457848096  -0.101631385991 0.21653462  0.01433558  0.1326841   0.064897678
  5    -38.6089755400  -0.063190730422 0.11449458  0.00722312  0.0739379   0.039995595
  6    -38.6259531248  -0.016977584755 0.19473146  0.01348597  0.0295571   0.026919371
  7    -38.6487513143  -0.022798189512 0.08615109  0.00661872  0.0381642   0.032141492
  8    -38.6364933219   0.012257992375 0.02988573  0.00287095  0.0297699   0.023174742
  9    -38.6307653552   0.005727966780 0.01741721  0.00173308  0.0458866   0.026233301
 10    -38.6310413749  -0.000276019707 0.11312060  0.00836928  0.0420367   0.023559659
 11    -38.6434779431  -0.012436568186 0.10342127  0.00885224  0.0331087   0.019062736
 12    -38.6525178187  -0.009039875656 0.10314846  0.01032755  0.0469897   0.024309107
 13    -38.6666659066  -0.014148087854 0.09754508  0.00777704  0.0450707   0.036854439
 14    -38.6646259563   0.002039950230 0.22880288  0.01889289  0.0492297   0.028554631
 15    -38.6389447503   0.025681206024 0.03865918  0.00312402  0.0332432   0.021562356
 16    -38.6370936063   0.001851143987 0.10676878  0.00929422  0.0312907   0.021333969
 17    -38.6559376882  -0.018844081908 0.08007916  0.00793845  0.0445402   0.034108946
 18    -38.6385357799   0.017401908303 0.06938819  0.00615162  0.0233602   0.020262700
 19    -38.6519916983  -0.013455918348 0.12187653  0.01041435  0.0537773   0.035472240
               *** Restarting incremental Fock matrix formation ***
                             ****Resetting KDIIS****
 20    -38.6727061041  -0.020714405821 0.02525835  0.00265028  0.0611829   0.049137239
 21    -38.6916656769  -0.018959572852 0.02113001  0.00251266  0.0751643   0.059095643
 22    -38.6962345766  -0.004568899654 0.03077646  0.00370699  0.0876437   0.060382892
 23    -38.7031698180  -0.006935241404 0.06146539  0.00658326  0.1006197   0.063429735
 24    -38.7318459261  -0.028676108109 0.10989889  0.00869956  0.1201591   0.074349068
 25    -38.6772564740   0.054589452123 0.09200493  0.01159269  0.0801674   0.053458732
 26    -38.7419637890  -0.064707315033 0.17544697  0.01672307  0.1234144   0.077606798
 27    -38.8339730376  -0.092009248568 0.03125000  0.00363474  0.1623676   0.092810743
 28    -38.8339161451   0.000056892494 0.15972006  0.01379489  0.1616745   0.092396793
 29    -38.7387773724   0.095138772707 0.25365786  0.02494970  0.1209005   0.076747793
 30    -38.9502822924  -0.211504920022 0.12452310  0.01587435  0.1709932   0.092516445
 31    -39.0832153831  -0.132933090701 0.11736265  0.01532432  0.1347450   0.078547261
 32    -39.1680708319  -0.084855448800 0.08642947  0.00963223  0.1293253   0.071014074
 33    -39.1053332415   0.062737590368 0.10971968  0.01508694  0.1520562   0.079996979
 34    -39.0895355545   0.015797687046 0.14693136  0.02095777  0.1624607   0.088221755
 35    -39.2003305477  -0.110794993233 0.13263652  0.01447843  0.0777154   0.064706808
 36    -39.2625871844  -0.062256636643 0.30004554  0.02324923  0.0555534   0.053575165
 37    -39.3275269579  -0.064939773541 0.11768441  0.01336305  0.0389675   0.036456262
 38    -39.3417816443  -0.014254686413 0.10502639  0.01465925  0.0475873   0.033875648
 39    -39.3410273241   0.000754320215 0.12167753  0.01303970  0.0570874   0.032043161
               *** Restarting incremental Fock matrix formation ***
                             ****Resetting KDIIS****
 40    -39.3593841824  -0.018356858295 0.00688925  0.00073018  0.0192854   0.015268728
 41    -39.3604223174  -0.001038135016 0.00682161  0.00095945  0.0157532   0.011890763
 42    -39.3614348632  -0.001012545736 0.01742324  0.00226339  0.0140646   0.010183190
 43    -39.3635666788  -0.002131815673 0.01295079  0.00184981  0.0114768   0.007826514
 44    -39.3630391003   0.000527578494 0.14509659  0.01641561  0.0069926   0.006049372
 45    -39.3565591497   0.006479950595 0.01164158  0.00159914  0.0036886   0.004058108
 46    -39.3569246632  -0.000365513447 0.00542433  0.00087140  0.0021096   0.001644556
 47    -39.3571150785  -0.000190415342 0.00692499  0.00094298  0.0017849   0.001511048
 48    -39.3573196365  -0.000204557917 0.00129500  0.00015732  0.0016867   0.001512041
 49    -39.3572900238   0.000029612609 0.00237436  0.00026516  0.0016459   0.001507937
 50    -39.3573134058  -0.000023381941 0.00333449  0.00047240  0.0016759   0.001510710
 51    -39.3573909931  -0.000077587322 0.00846531  0.00082283  0.0017497   0.001575418
 52    -39.3572298368   0.000161156308 0.02643033  0.00289655  0.0014697   0.001442195
 53    -39.3569204341   0.000309402741 0.02502476  0.00263938  0.0012072   0.001057113
 54    -39.3568376647   0.000082769398 0.00663600  0.00088912  0.0009462   0.000716193
 55    -39.3568558057  -0.000018141038 0.00280249  0.00033307  0.0005126   0.000400426
 56    -39.3568594761  -0.000003670375 0.00101260  0.00018593  0.0004987   0.000358162
 57    -39.3568671747  -0.000007698640 0.00036835  0.00005234  0.0004812   0.000343628
 58    -39.3568695403  -0.000002365575 0.00076042  0.00011280  0.0004810   0.000343763
 59    -39.3568752467  -0.000005706442 0.01119013  0.00163276  0.0004816   0.000344000
               *** Restarting incremental Fock matrix formation ***
                             ****Resetting KDIIS****
 60    -39.3567906601   0.000084586579 0.00012351  0.00001896  0.0004631   0.000361874
                          ***Energy convergence achieved***
 61    -39.3567916581  -0.000000997990 0.00028981  0.00004295  0.0004665   0.000350673
 62    -39.3567938958  -0.000002237668 0.00074714  0.00011070  0.0004682   0.000347607
 63    -39.3567996408  -0.000005745013 0.00091722  0.00013788  0.0004709   0.000343828
 64    -39.3567925472   0.000007093610 0.01318115  0.00198864  0.0004736   0.000341451
 65    -39.3566900520   0.000102495199 0.01410701  0.00220739  0.0004582   0.000405539
 66    -39.3565205769   0.000169475082 0.01128239  0.00185510  0.0032296   0.002473923
 67    -39.3564693775   0.000051199460 0.02946603  0.00482522  0.0021222   0.001624605
 68    -39.3558176439   0.000651733560 0.05010939  0.00829751  0.0089202   0.006842759
 69    -39.3566584729  -0.000840828959 0.00110161  0.00015200  0.0012621   0.001004779
 70    -39.3566450366   0.000013436268 0.02282437  0.00352894  0.0018523   0.001436507
 71    -39.3568021673  -0.000157130694 0.01241008  0.00189265  0.0027478   0.002107472
 72    -39.3569051958  -0.000103028513 0.00553873  0.00083285  0.0027024   0.002024564
 73    -39.3569282798  -0.000023083944 0.04308917  0.00693619  0.0033409   0.002501238
 74    -39.3565499173   0.000378362486 0.07401984  0.01110676  0.0035631   0.002844405
 75    -39.3571636289  -0.000613711639 0.05577116  0.00815876  0.0034585   0.002474321
 76    -39.3567744152   0.000389213655 0.00182399  0.00027941  0.0010069   0.000960473
 77    -39.3567918544  -0.000017439132 0.01251168  0.00183648  0.0007341   0.000770064
 78    -39.3568526827  -0.000060828297 0.05810445  0.00904103  0.0023929   0.002003059
 79    -39.3564070386   0.000445644124 0.08805424  0.01355618  0.0023844   0.001761379
               *** Restarting incremental Fock matrix formation ***
                             ****Resetting KDIIS****
 80    -39.3570123224  -0.000605283840 0.00189624  0.00019855  0.0048878   0.003645802
 81    -39.3570823034  -0.000069980963 0.00098719  0.00010144  0.0033928   0.002401050
 82    -39.3571056676  -0.000023364204 0.00150907  0.00018716  0.0028387   0.001969573
 83    -39.3571377555  -0.000032087943 0.00222782  0.00023397  0.0019181   0.001265174
 84    -39.3571604487  -0.000022693212 0.00350907  0.00060089  0.0005445   0.000474912
 85    -39.3571246974   0.000035751354 0.00236705  0.00028674  0.0005163   0.000397903
 86    -39.3571196775   0.000005019885 0.00413019  0.00053259  0.0005283   0.000372358
 87    -39.3571488158  -0.000029138326 0.00633911  0.00081317  0.0005380   0.000387189
 88    -39.3571042467   0.000044569130 0.00883501  0.00117031  0.0005271   0.000364473
 89    -39.3570426711   0.000061575587 0.00295871  0.00038350  0.0005102   0.000362430
 90    -39.3570626392  -0.000019968116 0.00082004  0.00011858  0.0005417   0.000370934
 91    -39.3570570961   0.000005543067 0.00075663  0.00010766  0.0005183   0.000353655
 92    -39.3570599481  -0.000002852011 0.00139398  0.00020603  0.0004990   0.000367994
 93    -39.3570500095   0.000009938600 0.00142314  0.00018004  0.0005138   0.000353219
 94    -39.3570595206  -0.000009511045 0.00026162  0.00002691  0.0005117   0.000352864
                          ***Energy convergence achieved***
 95    -39.3570593003   0.000000220316 0.00092710  0.00012080  0.0005139   0.000352640
 96    -39.3570656405  -0.000006340194 0.00440466  0.00057397  0.0005132   0.000352885
 97    -39.3570356145   0.000030025931 0.00032936  0.00004768  0.0005085   0.000352637
 98    -39.3570333221   0.000002292463 0.00034673  0.00004787  0.0005108   0.000352091
 99    -39.3570349842  -0.000001662146 0.00020891  0.00002702  0.0005088   0.000352805
               *** Restarting incremental Fock matrix formation ***
                             ****Resetting KDIIS****
100    -39.3570364066  -0.000001422404 0.00014230  0.00001840  0.0005089   0.000352907
                          ***Energy convergence achieved***
101    -39.3570373903  -0.000000983680 0.00027832  0.00003599  0.0005080   0.000352879
102    -39.3570393143  -0.000001924040 0.00099204  0.00012992  0.0005067   0.000352990
103    -39.3570323784   0.000006935962 0.00514629  0.00067559  0.0005072   0.000352127
Warning: badly conditioned DIIS matrix, 1 vectors out of 5 destroyed
104    -39.3569967698   0.000035608573 0.00025659  0.00003945  0.0005032   0.000351296
105    -39.3569984444  -0.000001674543 0.00231787  0.00030542  0.0005070   0.000348522
106    -39.3570143693  -0.000015924919 0.00182748  0.00023873  0.0005061   0.000349260
107    -39.3570018302   0.000012539107 0.00033459  0.00004508  0.0005048   0.000348520
108    -39.3569995074   0.000002322791 0.00146588  0.00019452  0.0005052   0.000348476
109    -39.3569894291   0.000010078312 0.00135934  0.00018143  0.0005042   0.000348347
110    -39.3569800141   0.000009414972 0.00154324  0.00021549  0.0005038   0.000347841
111    -39.3569698717   0.000010142412 0.00119904  0.00017201  0.0005022   0.000347729
112    -39.3569617457   0.000008126020 0.00073120  0.00010673  0.0004943   0.000345622
113    -39.3569671168  -0.000005371158 0.00407993  0.00055494  0.0004951   0.000345599
114    -39.3569383244   0.000028792387 0.01209698  0.00166975  0.0004898   0.000345766
115    -39.3568523705   0.000085953880 0.02008013  0.00275907  0.0004651   0.000403065
116    -39.3569942755  -0.000141904935 0.02460396  0.00338778  0.0004768   0.000405719
117    -39.3568199672   0.000174308301 0.01412285  0.00196285  0.0004586   0.000426174
118    -39.3569211775  -0.000101210341 0.00190910  0.00026176  0.0004771   0.000362244
119    -39.3569344804  -0.000013302881 0.00042448  0.00006277  0.0004832   0.000349386
               *** Restarting incremental Fock matrix formation ***
                             ****Resetting KDIIS****
120    -39.3569316454   0.000002835029 0.00012862  0.00001798  0.0004860   0.000344187
                          ***Energy convergence achieved***
121    -39.3569325808  -0.000000935421 0.00001961  0.00000294  0.0004862   0.000344176
122    -39.3569327136  -0.000000132786 0.00180592  0.00025441  0.0004868   0.000344001
123    -39.3569195187   0.000013194927 0.00770966  0.00109348  0.0004838   0.000343367
Warning: badly conditioned DIIS matrix, 1 vectors out of 5 destroyed
124    -39.3568635122   0.000056006446 0.00490914  0.00069333  0.0004754   0.000348923
125    -39.3568989885  -0.000035476328 0.00114069  0.00016409  0.0004912   0.000347096
126    -39.3568908518   0.000008136727 0.00028734  0.00003978  0.0004738   0.000345885
127    -39.3568897255   0.000001126264 0.00034835  0.00005463  0.0004727   0.000347330
128    -39.3568870955   0.000002630017 0.00097474  0.00013887  0.0004817   0.000340368
129    -39.3568942409  -0.000007145346 0.00225006  0.00032339  0.0004814   0.000340674
130    -39.3568776591   0.000016581771 0.00168923  0.00024613  0.0004818   0.000339967
131    -39.3568651490   0.000012510055 0.00206381  0.00029188  0.0004797   0.000339601
132    -39.3568801444  -0.000014995317 0.00018398  0.00002702  0.0004810   0.000340118
133    -39.3568815065  -0.000001362112 0.00153451  0.00021865  0.0004798   0.000339837
134    -39.3568702685   0.000011237981 0.00480194  0.00069170  0.0004796   0.000339523
135    -39.3568348167   0.000035451764 0.00232766  0.00034216  0.0004749   0.000342393
136    -39.3568173990   0.000017417715 0.00739515  0.00108910  0.0004724   0.000342649
137    -39.3567620419   0.000055357102 0.01286044  0.00188327  0.0004632   0.000354533
138    -39.3568580261  -0.000095984189 0.00390284  0.00056402  0.0004741   0.000345074
139    -39.3568291772   0.000028848932 0.00932825  0.00137339  0.0004735   0.000341966
               *** Restarting incremental Fock matrix formation ***
                             ****Resetting KDIIS****
140    -39.3567596534   0.000069523819 0.00011963  0.00002034  0.0004524   0.000386734
141    -39.3567607375  -0.000001084143 0.00027558  0.00004225  0.0004560   0.000359048
142    -39.3567629367  -0.000002199230 0.00062727  0.00009594  0.0004575   0.000351786
143    -39.3567678874  -0.000004950681 0.00281011  0.00043351  0.0004598   0.000343078
144    -39.3567458381   0.000022049355 0.00216274  0.00033765  0.0004628   0.000337569
145    -39.3567287856   0.000017052418 0.00043475  0.00006671  0.0004623   0.000336882
146    -39.3567320975  -0.000003311881 0.00512693  0.00079015  0.0004628   0.000335456
147    -39.3567722599  -0.000040162388 0.00283381  0.00043727  0.0004728   0.000337228
148    -39.3567500624   0.000022197486 0.00222050  0.00034838  0.0004615   0.000335527
149    -39.3567677399  -0.000017677456 0.00403102  0.00062822  0.0004669   0.000339548
150    -39.3567359006   0.000031839276 0.00563987  0.00089068  0.0004613   0.000335807
151    -39.3566908419   0.000045058650 0.00173867  0.00028476  0.0004546   0.000346854
152    -39.3567050773  -0.000014235355 0.00398049  0.00063609  0.0004566   0.000348496
153    -39.3566732992   0.000031778119 0.00230518  0.00036604  0.0004585   0.000367392
154    -39.3566916419  -0.000018342696 0.00418510  0.00062673  0.0004584   0.000352779
155    -39.3567227234  -0.000031081480 0.00114725  0.00018031  0.0004618   0.000339851
156    -39.3567318731  -0.000009149754 0.00151863  0.00021301  0.0004656   0.000337097
157    -39.3567421798  -0.000010306672 0.00164784  0.00024503  0.0004593   0.000343844
158    -39.3567299116   0.000012268228 0.00096065  0.00011664  0.0004565   0.000342368
159    -39.3567340890  -0.000004177392 0.00592235  0.00093896  0.0004667   0.000335141
               *** Restarting incremental Fock matrix formation ***
                             ****Resetting KDIIS****
160    -39.3566865788   0.000047510109 0.00010981  0.00001767  0.0004667   0.000338265
                          ***Energy convergence achieved***
161    -39.3566874764  -0.000000897601 0.00025970  0.00004183  0.0004673   0.000335808
162    -39.3566895956  -0.000002119110 0.00054697  0.00008804  0.0004679   0.000335157
163    -39.3566940536  -0.000004458071 0.00670244  0.00108759  0.0004690   0.000334443
164    -39.3566391320   0.000054921658 0.00316802  0.00051494  0.0004596   0.000341312
165    -39.3566132316   0.000025900406 0.02561511  0.00413990  0.0004554   0.000349501
166    -39.3567800199  -0.000166788316 0.00301693  0.00036959  0.0028912   0.002130152
167    -39.3568269483  -0.000046928434 0.00453439  0.00048456  0.0008306   0.000629505
168    -39.3567613377   0.000065610612 0.02110178  0.00332144  0.0038616   0.002902177
169    -39.3569509387  -0.000189601053 0.01036561  0.00178068  0.0032796   0.002462918
170    -39.3570903130  -0.000139374210 0.02420052  0.00378868  0.0006147   0.000600717
171    -39.3568971400   0.000193172921 0.01495010  0.00229834  0.0006423   0.000559208
172    -39.3570145698  -0.000117429731 0.00585726  0.00086956  0.0007948   0.000614337
173    -39.3569669679   0.000047601851 0.00680062  0.00109342  0.0009349   0.000748233
174    -39.3569165005   0.000050467374 0.00159761  0.00028254  0.0005581   0.000364741
175    -39.3569287666  -0.000012266050 0.00250037  0.00038941  0.0005190   0.000349396
176    -39.3569476615  -0.000018894913 0.00344693  0.00054205  0.0005242   0.000344433
177    -39.3569200761   0.000027585418 0.08333674  0.01311082  0.0005228   0.000343182
178    -39.3556228405   0.001297235546 0.01436715  0.00229598  0.0109628   0.008302036
179    -39.3560003810  -0.000377540473 0.09233026  0.01480343  0.0082444   0.006279914
               *** Restarting incremental Fock matrix formation ***
                             ****Resetting KDIIS****
180    -39.3571043102  -0.001103929152 0.00078507  0.00008553  0.0020319   0.001580162
181    -39.3571175017  -0.000013191546 0.00039742  0.00005704  0.0013989   0.001066117
182    -39.3571233820  -0.000005880286 0.00094934  0.00012335  0.0011705   0.000889501
183    -39.3571333607  -0.000009978659 0.00196311  0.00024874  0.0007883   0.000614152
184    -39.3571483437  -0.000014983061 0.01113628  0.00143124  0.0005019   0.000356870
185    -39.3570739340   0.000074409748 0.00191058  0.00024157  0.0004638   0.000404198
186    -39.3570865785  -0.000012644577 0.00691282  0.00088687  0.0004880   0.000356276
187    -39.3571321800  -0.000045601475 0.00068313  0.00009378  0.0004734   0.000407392
188    -39.3571298486   0.000002331396 0.00133096  0.00017218  0.0005000   0.000348492
189    -39.3571211507   0.000008697970 0.00019381  0.00002459  0.0005028   0.000346648
                          ***Energy convergence achieved***
190    -39.3571214898  -0.000000339142 0.00202313  0.00026533  0.0005036   0.000346418
191    -39.3571077739   0.000013715855 0.02005927  0.00263217  0.0005010   0.000345403
192    -39.3569722075   0.000135566456 0.00112568  0.00014981  0.0006184   0.000528409
193    -39.3569646935   0.000007513944 0.00697971  0.00092485  0.0006200   0.000528822
194    -39.3570124255  -0.000047731925 0.00791739  0.00107797  0.0004627   0.000388459
195    -39.3569575489   0.000054876570 0.01330092  0.00176493  0.0009515   0.000683389
196    -39.3570480863  -0.000090537395 0.00922663  0.00121838  0.0005163   0.000446282
197    -39.3571105206  -0.000062434260 0.02032584  0.00267012  0.0004613   0.000398927
198    -39.3569737622   0.000136758340 0.00842819  0.00112092  0.0005379   0.000480514
199    -39.3569162549   0.000057507294 0.00199773  0.00028595  0.0007971   0.000649596
               *** Restarting incremental Fock matrix formation ***
                             ****Resetting KDIIS****
200    -39.3569285203  -0.000012265336 0.00033908  0.00003794  0.0009340   0.000704556
201    -39.3569314103  -0.000002890076 0.00031217  0.00004458  0.0006740   0.000526602
202    -39.3569341463  -0.000002735958 0.00077110  0.00010688  0.0005756   0.000471521
203    -39.3569401872  -0.000006040862 0.00041610  0.00005701  0.0004488   0.000395166
204    -39.3569429636  -0.000002776470 0.00170690  0.00024120  0.0004723   0.000340609
205    -39.3569306938   0.000012269810 0.00061596  0.00007373  0.0004740   0.000336782
                          ***Energy convergence achieved***
206    -39.3569314243  -0.000000730520 0.00322754  0.00044733  0.0004725   0.000335045
207    -39.3569537693  -0.000022344957 0.00249710  0.00034163  0.0004662   0.000335637
208    -39.3569366005   0.000017168824 0.00132115  0.00018346  0.0004727   0.000333821
209    -39.3569458569  -0.000009256438 0.00111623  0.00015709  0.0004703   0.000333739
210    -39.3569379357   0.000007921197 0.00741896  0.00105525  0.0004690   0.000333806
211    -39.3568850550   0.000052880687 0.00014754  0.00002491  0.0004630   0.000336414
212    -39.3568861397  -0.000001084637 0.00079627  0.00012830  0.0004657   0.000332900
213    -39.3568814681   0.000004671507 0.00046800  0.00007629  0.0004631   0.000332536
214    -39.3568848730  -0.000003404858 0.00021289  0.00003005  0.0004648   0.000331588
215    -39.3568835637   0.000001309287 0.00110187  0.00016845  0.0004647   0.000331347
216    -39.3568918255  -0.000008261805 0.00022101  0.00002912  0.0004640   0.000331286
217    -39.3568928556  -0.000001030029 0.00021747  0.00003117  0.0004642   0.000331280
218    -39.3568913028   0.000001552754 0.00116680  0.00016826  0.0004641   0.000331270
219    -39.3568831054   0.000008197448 0.00008423  0.00001373  0.0004636   0.000331344
               *** Restarting incremental Fock matrix formation ***
                             ****Resetting KDIIS****
                          ***Energy convergence achieved***
220    -39.3568825841   0.000000521294 0.00011873  0.00001734  0.0004638   0.000331317
221    -39.3568834529  -0.000000868856 0.00026022  0.00003795  0.0004636   0.000331293
222    -39.3568853553  -0.000001902390 0.00134222  0.00019638  0.0004634   0.000331322
223    -39.3568755188   0.000009836483 0.00404942  0.00059579  0.0004634   0.000331018
Warning: badly conditioned DIIS matrix, 1 vectors out of 5 destroyed
224    -39.3568457611   0.000029757680 0.00027044  0.00004119  0.0004595   0.000331958
225    -39.3568437595   0.000002001669 0.00054187  0.00007480  0.0004596   0.000331186
226    -39.3568426516   0.000001107830 0.00226601  0.00034029  0.0004581   0.000330953
227    -39.3568596033  -0.000016951631 0.00083424  0.00012690  0.0004545   0.000331652
228    -39.3568532888   0.000006314486 0.00243369  0.00035746  0.0004572   0.000330422
229    -39.3568710596  -0.000017770799 0.00030674  0.00004459  0.0004560   0.000330566
230    -39.3568688626   0.000002196995 0.00984404  0.00147880  0.0004574   0.000330131
231    -39.3567953125   0.000073550080 0.00598883  0.00090074  0.0004475   0.000333341
232    -39.3568400679  -0.000044755413 0.00750320  0.00112703  0.0004563   0.000332019
233    -39.3567842378   0.000055830145 0.02519734  0.00403395  0.0004515   0.000337270
234    -39.3565658838   0.000218353969 0.10529784  0.01578775  0.0019360   0.001468859
235    -39.3570599745  -0.000494090689 0.02657758  0.00390976  0.0082116   0.006035491
236    -39.3571413705  -0.000081396005 0.01737596  0.00253365  0.0030838   0.002271209
237    -39.3571747383  -0.000033367839 0.00790081  0.00114800  0.0054605   0.004000758
238    -39.3571806368  -0.000005898468 0.09002039  0.01350792  0.0041511   0.003006393
239    -39.3538278795   0.003352757348 0.12715016  0.01873343  0.0274007   0.021104552
               *** Restarting incremental Fock matrix formation ***
                             ****Resetting KDIIS****
240    -39.3569851321  -0.003157252662 0.00016664  0.00001937  0.0004791   0.000391611
241    -39.3569861589  -0.000001026800 0.00048518  0.00005929  0.0004788   0.000385034
242    -39.3569892905  -0.000003131564 0.00043880  0.00004976  0.0004787   0.000374167
243    -39.3569918206  -0.000002530096 0.00164815  0.00024714  0.0004808   0.000361720
244    -39.3569792699   0.000012550646 0.00200674  0.00028181  0.0004767   0.000348112
245    -39.3569655397   0.000013730228 0.00031737  0.00004985  0.0004797   0.000339583
                          ***Energy convergence achieved***
246    -39.3569655935  -0.000000053787 0.00090118  0.00012382  0.0004799   0.000337006
247    -39.3569716954  -0.000006101901 0.00145527  0.00019716  0.0004760   0.000337041
248    -39.3569817253  -0.000010029940 0.00247375  0.00033982  0.0004739   0.000337515
249    -39.3569645429   0.000017182434 0.00014005  0.00002092  0.0004794   0.000337003
                          ***Energy convergence achieved***
250    -39.3569655062  -0.000000963323 0.00086011  0.00011526  0.0004744   0.000337216
251    -39.3569600661   0.000005440125 0.00031692  0.00004706  0.0004751   0.000336108
252    -39.3569620145  -0.000001948421 0.00059220  0.00008108  0.0004744   0.000336446
253    -39.3569579110   0.000004103513 0.00219730  0.00030508  0.0004759   0.000336005
254    -39.3569425942   0.000015316846 0.00169407  0.00022939  0.0004757   0.000334486
255    -39.3569317971   0.000010797047 0.00034781  0.00005266  0.0004765   0.000333547
256    -39.3569341891  -0.000002392019 0.00061543  0.00008181  0.0004707   0.000334836
257    -39.3569370132  -0.000002824098 0.00154602  0.00021492  0.0004716   0.000332825
258    -39.3569478125  -0.000010799284 0.00160088  0.00022192  0.0004707   0.000332989
259    -39.3569366992   0.000011113290 0.00029106  0.00004050  0.0004716   0.000332687
               *** Restarting incremental Fock matrix formation ***
                             ****Resetting KDIIS****
260    -39.3569346997   0.000001999504 0.00012348  0.00001741  0.0004712   0.000332636
                          ***Energy convergence achieved***
261    -39.3569355752  -0.000000875449 0.00018894  0.00002663  0.0004709   0.000332657
262    -39.3569369142  -0.000001339064 0.00109235  0.00015504  0.0004704   0.000332717
Warning: badly conditioned DIIS matrix, 1 vectors out of 4 destroyed
263    -39.3569291247   0.000007789496 0.00333148  0.00047968  0.0004706   0.000332259
264    -39.3569052318   0.000023892964 0.00072989  0.00011009  0.0004682   0.000331290
265    -39.3568999898   0.000005241950 0.00140063  0.00020074  0.0004668   0.000330817
266    -39.3569098886  -0.000009898796 0.00036394  0.00005215  0.0004663   0.000331608
267    -39.3569124941  -0.000002605521 0.00021667  0.00003421  0.0004650   0.000330950
268    -39.3569141464  -0.000001652212 0.00153347  0.00021751  0.0004637   0.000330749
269    -39.3569248024  -0.000010656015 0.00065078  0.00009275  0.0004623   0.000330605
270    -39.3569294208  -0.000004618466 0.00086440  0.00013206  0.0004622   0.000330686
271    -39.3569229161   0.000006504708 0.00537229  0.00079995  0.0004580   0.000331209
272    -39.3568830850   0.000039831114 0.00814159  0.00120620  0.0004544   0.000335170
273    -39.3569431761  -0.000060091086 0.01488409  0.00218671  0.0004598   0.000334070
274    -39.3568342908   0.000108885276 0.00791116  0.00114576  0.0004463   0.000353781
275    -39.3568912120  -0.000056921165 0.00316458  0.00046637  0.0004600   0.000334893
276    -39.3569144596  -0.000023247655 0.00688022  0.00100470  0.0004565   0.000336099
277    -39.3568644110   0.000050048618 0.00282351  0.00042784  0.0004530   0.000339438
278    -39.3568437001   0.000020710964 0.00675609  0.00099275  0.0004564   0.000354642
279    -39.3567939929   0.000049707188 0.00243940  0.00036841  0.0004445   0.000436347
               *** Restarting incremental Fock matrix formation ***
                             ****Resetting KDIIS****
280    -39.3568124327  -0.000018439793 0.00013022  0.00002157  0.0004430   0.000408311
281    -39.3568135888  -0.000001156146 0.00026553  0.00004142  0.0004479   0.000364934
282    -39.3568157176  -0.000002128815 0.00064639  0.00010014  0.0004495   0.000352990
283    -39.3568207841  -0.000005066426 0.00108753  0.00016928  0.0004526   0.000338195
284    -39.3568124505   0.000008333548 0.00276964  0.00042979  0.0004561   0.000328648
285    -39.3567911628   0.000021287753 0.00103053  0.00016292  0.0004544   0.000328547
286    -39.3567992327  -0.000008069980 0.00961293  0.00149654  0.0004570   0.000327793
287    -39.3568735096  -0.000074276881 0.00117245  0.00018041  0.0004497   0.000340663
288    -39.3568824857  -0.000008976050 0.00234162  0.00036157  0.0004495   0.000339917
289    -39.3568645737   0.000017911932 0.00204418  0.00024220  0.0004554   0.000329039
                          ***Energy convergence achieved***
290    -39.3568642823   0.000000291421 0.02351575  0.00370409  0.0011593   0.001009395
291    -39.3566895498   0.000174732538 0.00164931  0.00026449  0.0004482   0.000329545
292    -39.3567020672  -0.000012517417 0.02476298  0.00388193  0.0004558   0.000375978
293    -39.3564954337   0.000206633459 0.03682080  0.00580879  0.0018686   0.001362194
294    -39.3567560754  -0.000260641641 0.03667412  0.00582932  0.0028775   0.002121006
295    -39.3568710186  -0.000114943222 0.00729661  0.00085864  0.0065946   0.004838451
296    -39.3570738684  -0.000202849832 0.03963503  0.00597664  0.0030636   0.002201854
297    -39.3570090095   0.000064858911 0.01198894  0.00167863  0.0091695   0.006744961
298    -39.3573349052  -0.000325895637 0.03129040  0.00463153  0.0061221   0.004459054
299    -39.3572632758   0.000071629328 0.00263353  0.00040831  0.0008555   0.000633280
               *** Restarting incremental Fock matrix formation ***
                             ****Resetting KDIIS****
300    -39.3572732988  -0.000010022954 0.00062158  0.00006612  0.0018244   0.001235263
301    -39.3572815297  -0.000008230918 0.00044168  0.00005855  0.0013427   0.000870772
302    -39.3572868129  -0.000005283202 0.00087108  0.00011426  0.0011702   0.000751116
303    -39.3572959520  -0.000009139129 0.00288189  0.00047485  0.0008962   0.000582422
304    -39.3572696349   0.000026317146 0.00287438  0.00044225  0.0004963   0.000408190
305    -39.3572518594   0.000017775481 0.00127712  0.00015116  0.0005056   0.000359070
306    -39.3572597122  -0.000007852783 0.00141002  0.00017795  0.0005200   0.000353370
307    -39.3572504419   0.000009270256 0.00170552  0.00021678  0.0005185   0.000351863
308    -39.3572392366   0.000011205337 0.00805030  0.00103408  0.0005185   0.000350388
309    -39.3571870606   0.000052176004 0.00052517  0.00007465  0.0004861   0.000353365
310    -39.3571850468   0.000002013823 0.00129308  0.00017333  0.0004941   0.000342650
311    -39.3571924551  -0.000007408319 0.00079052  0.00010416  0.0004993   0.000345113
312    -39.3571976308  -0.000005175741 0.00666465  0.00084459  0.0004904   0.000341859
313    -39.3571549510   0.000042679851 0.01312609  0.00171832  0.0004698   0.000353027
314    -39.3570699582   0.000084992825 0.05338362  0.00715513  0.0004528   0.000417737
315    -39.3566152799   0.000454678299 0.05502579  0.00738413  0.0050127   0.003626936
316    -39.3570801629  -0.000464883013 0.05075908  0.00677767  0.0017831   0.001160295
317    -39.3566389647   0.000441198136 0.06467440  0.00853629  0.0054148   0.003846341
318    -39.3571718174  -0.000532852632 0.00625532  0.00079907  0.0012446   0.000807497
319    -39.3571302260   0.000041591342 0.04737415  0.00621368  0.0014248   0.000934795
               *** Restarting incremental Fock matrix formation ***
                             ****Resetting KDIIS****
320    -39.3567613611   0.000368864886 0.00162368  0.00015861  0.0040072   0.002897270
321    -39.3568058082  -0.000044447050 0.00088511  0.00008344  0.0027619   0.001905871
322    -39.3568209886  -0.000015180464 0.00138686  0.00016012  0.0022874   0.001566353
323    -39.3568425452  -0.000021556593 0.00211592  0.00029032  0.0015032   0.001009358
324    -39.3568655072  -0.000022961948 0.00706547  0.00100951  0.0004526   0.000404669
325    -39.3568133721   0.000052135101 0.00104127  0.00015468  0.0005021   0.000365324
326    -39.3568213445  -0.000007972442 0.00277522  0.00038900  0.0004752   0.000349774
327    -39.3568407119  -0.000019367387 0.00138899  0.00018949  0.0004483   0.000362460
328    -39.3568500274  -0.000009315452 0.00091793  0.00015213  0.0004407   0.000344010
329    -39.3568568210  -0.000006793583 0.00055253  0.00008465  0.0004369   0.000338796
330    -39.3568594789  -0.000002657997 0.00049027  0.00007536  0.0004377   0.000339348
331    -39.3568568533   0.000002625626 0.00007172  0.00001141  0.0004447   0.000342965
                          ***Energy convergence achieved***
332    -39.3568570783  -0.000000224994 0.00071241  0.00009776  0.0004420   0.000340268
333    -39.3568611937  -0.000004115431 0.00134736  0.00018415  0.0004339   0.000338959
334    -39.3568684601  -0.000007266337 0.00141813  0.00019781  0.0004549   0.000335391
335    -39.3568782842  -0.000009824090 0.00082204  0.00011939  0.0004539   0.000338721
336    -39.3568730628   0.000005221365 0.00080588  0.00011610  0.0004479   0.000339378
337    -39.3568680209   0.000005041863 0.00195479  0.00029792  0.0004437   0.000339135
338    -39.3568531728   0.000014848166 0.00850333  0.00122965  0.0004308   0.000343997
339    -39.3567949409   0.000058231869 0.00135503  0.00019991  0.0004242   0.000337180
               *** Restarting incremental Fock matrix formation ***
                             ****Resetting KDIIS****
340    -39.3568041670  -0.000009226127 0.00010966  0.00001657  0.0004245   0.000317291
                          ***Energy convergence achieved***
341    -39.3568049628  -0.000000795777 0.00030940  0.00004712  0.0004244   0.000317193
342    -39.3568072253  -0.000002262493 0.00094068  0.00014401  0.0004244   0.000317093
343    -39.3568141375  -0.000006912179 0.00320666  0.00049480  0.0004244   0.000316932
344    -39.3568378723  -0.000023734775 0.00103177  0.00016546  0.0004297   0.000317155
345    -39.3568457908  -0.000007918500 0.00391111  0.00061632  0.0004307   0.000317625
346    -39.3568162657   0.000029525056 0.00695051  0.00106960  0.0004296   0.000316750
347    -39.3568673226  -0.000051056877 0.00341622  0.00053709  0.0004533   0.000340444
348    -39.3568417977   0.000025524924 0.01021044  0.00159151  0.0004428   0.000316333
349    -39.3569175715  -0.000075773854 0.00107797  0.00015803  0.0004408   0.000369032
350    -39.3569110522   0.000006519304 0.00194619  0.00031503  0.0004532   0.000345032
351    -39.3568988229   0.000012229331 0.00651784  0.00104687  0.0004495   0.000330783
352    -39.3568486146   0.000050208267 0.00349746  0.00052977  0.0004518   0.000321222
353    -39.3568233703   0.000025244316 0.00614696  0.00096719  0.0004379   0.000317636
354    -39.3568696647  -0.000046294443 0.00633974  0.00097311  0.0004450   0.000321079
355    -39.3569108448  -0.000041180032 0.00671612  0.00104967  0.0009995   0.000761805
356    -39.3569651173  -0.000054272544 0.00107240  0.00016546  0.0004497   0.000410326
357    -39.3569711248  -0.000006007501 0.00568164  0.00090866  0.0006777   0.000546670
358    -39.3570135035  -0.000042378705 0.01201405  0.00189860  0.0007911   0.000645084
359    -39.3569254144   0.000088089097 0.01051837  0.00164225  0.0004458   0.000349662
               *** Restarting incremental Fock matrix formation ***
                             ****Resetting KDIIS****
360    -39.3570045445  -0.000079130092 0.00011630  0.00001725  0.0004355   0.000330169
                          ***Energy convergence achieved***
361    -39.3570053963  -0.000000851822 0.00026313  0.00003914  0.0004373   0.000328891
362    -39.3570073293  -0.000001932983 0.00047963  0.00007308  0.0004389   0.000328702
363    -39.3570037472   0.000003582163 0.00741950  0.00113551  0.0004396   0.000327297
364    -39.3569499655   0.000053781679 0.00021800  0.00002749  0.0004222   0.000325261
                          ***Energy convergence achieved***
365    -39.3569492656   0.000000699852 0.00210972  0.00031312  0.0004246   0.000320767
366    -39.3569641659  -0.000014900268 0.00030929  0.00004697  0.0004346   0.000317924
367    -39.3569664036  -0.000002237681 0.00531038  0.00079630  0.0004334   0.000316932
368    -39.3569286549   0.000037748697 0.00028768  0.00004702  0.0004294   0.000315074
369    -39.3569306723  -0.000002017423 0.00242556  0.00036176  0.0004303   0.000314847
370    -39.3569478779  -0.000017205598 0.00108825  0.00016248  0.0004309   0.000315001
371    -39.3569401570   0.000007720880 0.00127795  0.00019037  0.0004304   0.000314918
372    -39.3569311692   0.000008987867 0.00025631  0.00004070  0.0004286   0.000314919
373    -39.3569294514   0.000001717781 0.00027816  0.00004255  0.0004283   0.000314869
374    -39.3569314054  -0.000001954044 0.00011871  0.00001785  0.0004288   0.000314795
                          ***Energy convergence achieved***
375    -39.3569305564   0.000000849015 0.00149941  0.00022392  0.0004287   0.000314820
376    -39.3569411982  -0.000010641821 0.00017424  0.00002450  0.0004291   0.000314804
377    -39.3569423287  -0.000001130480 0.00062903  0.00009534  0.0004291   0.000314820
378    -39.3569378187   0.000004509976 0.00073581  0.00011030  0.0004293   0.000314784
379    -39.3569325839   0.000005234870 0.00527681  0.00078288  0.0004287   0.000314762
               *** Restarting incremental Fock matrix formation ***
                             ****Resetting KDIIS****
380    -39.3568953977   0.000037186145 0.00010826  0.00001650  0.0004236   0.000315358
                          ***Energy convergence achieved***
381    -39.3568961831  -0.000000785378 0.00025905  0.00003959  0.0004242   0.000314893
382    -39.3568980674  -0.000001884311 0.00096667  0.00014786  0.0004245   0.000314756
383    -39.3569051016  -0.000007034242 0.00529247  0.00080619  0.0004250   0.000314545
384    -39.3569434267  -0.000038325059 0.01029711  0.00154945  0.0004237   0.000316188
385    -39.3570169296  -0.000073502924 0.01119590  0.00169384  0.0004115   0.000351742
386    -39.3569361519   0.000080777706 0.03155330  0.00465321  0.0004509   0.000380889
387    -39.3571597911  -0.000223639138 0.00984997  0.00150563  0.0004272   0.000370783
388    -39.3572124841  -0.000052693056 0.01575757  0.00218319  0.0020841   0.001489077
389    -39.3571129749   0.000099509212 0.06642749  0.01004925  0.0015350   0.001179586
390    -39.3566463806   0.000466594277 0.03750458  0.00583318  0.0004121   0.000442383
391    -39.3561003067   0.000546073937 0.09168315  0.01437696  0.0072886   0.005430424
392    -39.3570563192  -0.000956012489 0.02625360  0.00377504  0.0007585   0.000669021
393    -39.3572196323  -0.000163313128 0.01737464  0.00254702  0.0021252   0.001544235
394    -39.3571149972   0.000104635110 0.00228370  0.00034855  0.0007096   0.000687524
395    -39.3571341559  -0.000019158691 0.04328054  0.00629040  0.0005072   0.000439774
396    -39.3572371025  -0.000102946652 0.05686999  0.00817026  0.0065364   0.004754671
397    -39.3570244372   0.000212665349 0.01225680  0.00182488  0.0020198   0.001537637
398    -39.3571090424  -0.000084605249 0.02036029  0.00304922  0.0021099   0.001621450
399    -39.3569760896   0.000132952831 0.00126928  0.00020097  0.0014724   0.001138390
               *** Restarting incremental Fock matrix formation ***
                             ****Resetting KDIIS****
400    -39.3569866458  -0.000010556216 0.00056917  0.00005679  0.0013859   0.001043594
401    -39.3569926408  -0.000005994963 0.00036826  0.00004991  0.0009596   0.000729949
402    -39.3569962918  -0.000003651023 0.00081516  0.00010983  0.0008023   0.000626553
403    -39.3570031841  -0.000006892330 0.00065719  0.00007801  0.0005436   0.000472303
404    -39.3570016838   0.000001500298 0.00392473  0.00059627  0.0004308   0.000343134
405    -39.3569759145   0.000025769310 0.00075569  0.00010767  0.0004266   0.000314746
406    -39.3569809791  -0.000005064527 0.00031653  0.00004643  0.0004265   0.000313427
407    -39.3569831352  -0.000002156136 0.00052827  0.00007944  0.0004270   0.000313675
408    -39.3569868117  -0.000003676537 0.00013999  0.00002135  0.0004285   0.000313458
                          ***Energy convergence achieved***
409    -39.3569877756  -0.000000963825 0.00025157  0.00003752  0.0004271   0.000313251
410    -39.3569895322  -0.000001756670 0.00239538  0.00035633  0.0004276   0.000313288
411    -39.3569728897   0.000016642567 0.00007622  0.00001333  0.0004247   0.000313347
                          ***Energy convergence achieved***
412    -39.3569723346   0.000000555081 0.00155243  0.00022966  0.0004238   0.000313981
413    -39.3569831748  -0.000010840193 0.00016264  0.00002324  0.0004264   0.000313091
414    -39.3569820804   0.000001094374 0.00269616  0.00039625  0.0004271   0.000313121
415    -39.3569633819   0.000018698462 0.01119223  0.00165433  0.0004240   0.000313099
416    -39.3568853025   0.000078079418 0.00794839  0.00118086  0.0004065   0.000358499
417    -39.3568087211   0.000076581390 0.01263304  0.00190683  0.0021309   0.001559334
418    -39.3569202575  -0.000111536362 0.02393344  0.00358468  0.0004073   0.000341799
419    -39.3567466979   0.000173559604 0.01099039  0.00154703  0.0013020   0.000938305
               *** Restarting incremental Fock matrix formation ***
                             ****Resetting KDIIS****
420    -39.3567815665  -0.000034868599 0.00112143  0.00010970  0.0026762   0.002003683
421    -39.3568029162  -0.000021349679 0.00060053  0.00006304  0.0018211   0.001327114
422    -39.3568108378  -0.000007921613 0.00094326  0.00012235  0.0014999   0.001094930
423    -39.3568225204  -0.000011682578 0.00208097  0.00032800  0.0009582   0.000718990
424    -39.3568415469  -0.000019026571 0.00320840  0.00048782  0.0004271   0.000319386
425    -39.3568180182   0.000023528728 0.00170794  0.00026039  0.0004307   0.000320756
426    -39.3568305562  -0.000012538014 0.00016303  0.00001810  0.0004291   0.000319551
                          ***Energy convergence achieved***
427    -39.3568308420  -0.000000285814 0.00073068  0.00010611  0.0004300   0.000327561
428    -39.3568359035  -0.000005061520 0.00035365  0.00005003  0.0004285   0.000318115
429    -39.3568346676   0.000001235913 0.00384982  0.00056540  0.0004250   0.000316543
430    -39.3568613307  -0.000026663081 0.00112726  0.00017761  0.0004332   0.000314550
431    -39.3568697813  -0.000008450542 0.00022658  0.00003671  0.0004332   0.000314458
432    -39.3568715134  -0.000001732154 0.00080208  0.00012761  0.0004321   0.000314453
433    -39.3568775885  -0.000006075091 0.00037733  0.00005867  0.0004304   0.000314525
434    -39.3568747935   0.000002795002 0.00373182  0.00058536  0.0004300   0.000314486
435    -39.3568469496   0.000027843914 0.00008451  0.00001343  0.0004283   0.000315308
                          ***Energy convergence achieved***
436    -39.3568475855  -0.000000635951 0.00165980  0.00026107  0.0004289   0.000314574
437    -39.3568599417  -0.000012356166 0.00040683  0.00006540  0.0004279   0.000314167
438    -39.3568568454   0.000003096325 0.00347719  0.00054152  0.0004280   0.000313833
439    -39.3568824952  -0.000025649836 0.00325035  0.00050069  0.0004256   0.000314617
               *** Restarting incremental Fock matrix formation ***
                             ****Resetting KDIIS****
440    -39.3569058836  -0.000023388400 0.00010433  0.00001649  0.0004359   0.000315052
                          ***Energy convergence achieved***
441    -39.3569066648  -0.000000781155 0.00024911  0.00003935  0.0004365   0.000314056
442    -39.3569085282  -0.000001863404 0.00065948  0.00010388  0.0004359   0.000313733
443    -39.3569134451  -0.000004916942 0.00127506  0.00020037  0.0004345   0.000313360
Warning: badly conditioned DIIS matrix, 1 vectors out of 5 destroyed
444    -39.3569229256  -0.000009480462 0.00141620  0.00022091  0.0004314   0.000313187
445    -39.3569124800   0.000010445577 0.00057901  0.00008565  0.0004333   0.000313526
446    -39.3569085733   0.000003906689 0.00186006  0.00030362  0.0004293   0.000314335
447    -39.3569229173  -0.000014343974 0.00376011  0.00058215  0.0004204   0.000313508
448    -39.3569504060  -0.000027488744 0.00167951  0.00025508  0.0004233   0.000313451
449    -39.3569624641  -0.000012058074 0.00233993  0.00035450  0.0004237   0.000313921
450    -39.3569457163   0.000016747838 0.00489351  0.00073261  0.0004221   0.000313774
451    -39.3569111429   0.000034573365 0.00811487  0.00126961  0.0004167   0.000319379
452    -39.3569704129  -0.000059269968 0.01431559  0.00232147  0.0004157   0.000409253
453    -39.3568542775   0.000116135377 0.01379215  0.00189809  0.0011895   0.000920139
454    -39.3567448060   0.000109471515 0.02853407  0.00437672  0.0024539   0.001811018
455    -39.3564655543   0.000279251644 0.07473612  0.01183809  0.0046673   0.003369572
456    -39.3570662347  -0.000600680341 0.02268920  0.00332701  0.0033461   0.002570619
457    -39.3571718716  -0.000105636957 0.02727933  0.00427077  0.0046220   0.003465475
458    -39.3570765764   0.000095295237 0.02292571  0.00339275  0.0013037   0.001060992
459    -39.3572283311  -0.000151754718 0.01983960  0.00277026  0.0019823   0.001519420
               *** Restarting incremental Fock matrix formation ***
                             ****Resetting KDIIS****
460    -39.3572975451  -0.000069213981 0.00175856  0.00017116  0.0041843   0.003111112
461    -39.3573487978  -0.000051252726 0.00087410  0.00008639  0.0028359   0.002029653
462    -39.3573654956  -0.000016697793 0.00134946  0.00016335  0.0023380   0.001665520
463    -39.3573887055  -0.000023209838 0.00210257  0.00030493  0.0015110   0.001069723
464    -39.3574132117  -0.000024506209 0.01106482  0.00150502  0.0005136   0.000397338
465    -39.3573345186   0.000078693029 0.00076953  0.00009296  0.0004427   0.000427223
466    -39.3573363324  -0.000001813784 0.00156400  0.00019458  0.0004724   0.000348554
467    -39.3573460373  -0.000009704921 0.00127743  0.00016375  0.0004855   0.000353036
468    -39.3573538990  -0.000007861705 0.00035315  0.00004510  0.0004908   0.000345812
469    -39.3573516271   0.000002271908 0.00313016  0.00040546  0.0004867   0.000345471
470    -39.3573318610   0.000019766145 0.00416186  0.00055938  0.0004822   0.000341065
471    -39.3573061062   0.000025754772 0.00086210  0.00012380  0.0004763   0.000340730
472    -39.3573010183   0.000005087886 0.00066091  0.00008733  0.0004657   0.000337574
473    -39.3572968228   0.000004195490 0.00116794  0.00014983  0.0004603   0.000339189
474    -39.3573042236  -0.000007400750 0.00025703  0.00003566  0.0004712   0.000340101
475    -39.3573025072   0.000001716340 0.00155326  0.00022732  0.0004681   0.000339473
476    -39.3573105294  -0.000008022116 0.00193098  0.00023623  0.0004659   0.000332598
477    -39.3573222264  -0.000011697069 0.00035924  0.00004716  0.0004676   0.000333163
478    -39.3573201324   0.000002094027 0.00147875  0.00019427  0.0004667   0.000333305
479    -39.3573288286  -0.000008696206 0.00002145  0.00000241  0.0004718   0.000333262
               *** Restarting incremental Fock matrix formation ***
                             ****Resetting KDIIS****
                          ***Energy convergence achieved***
480    -39.3573288025   0.000000026083 0.00014082  0.00001760  0.0004713   0.000333205
481    -39.3573296771  -0.000000874586 0.00030678  0.00003829  0.0004700   0.000333011
482    -39.3573315798  -0.000001902649 0.00308588  0.00038696  0.0004688   0.000333056
483    -39.3573124454   0.000019134341 0.00657582  0.00083904  0.0004668   0.000330918
484    -39.3572719421   0.000040503347 0.00053171  0.00008494  0.0004587   0.000329620
485    -39.3572750110  -0.000003068954 0.00063338  0.00008097  0.0004712   0.000329207
486    -39.3572790077  -0.000003996693 0.00382933  0.00047783  0.0004609   0.000328694
487    -39.3572555753   0.000023432469 0.00658658  0.00083218  0.0004542   0.000328529
488    -39.3572156255   0.000039949792 0.00986895  0.00126321  0.0004432   0.000336004
489    -39.3571567893   0.000058836120 0.00036069  0.00005743  0.0004178   0.000364710
490    -39.3571552697   0.000001519615 0.01050777  0.00134967  0.0004359   0.000325885
491    -39.3570943950   0.000060874702 0.00285318  0.00038966  0.0004080   0.000406861
492    -39.3570762214   0.000018173621 0.02083484  0.00272084  0.0007578   0.000582345
493    -39.3572012655  -0.000125044102 0.01812518  0.00232370  0.0005227   0.000481249
494    -39.3573078272  -0.000106561690 0.00135695  0.00017282  0.0010628   0.000828324
495    -39.3573146852  -0.000006857992 0.02384798  0.00298986  0.0004219   0.000404558
496    -39.3571774105   0.000137274707 0.01264900  0.00159866  0.0005857   0.000559463
497    -39.3572416180  -0.000064207484 0.00150287  0.00016232  0.0005319   0.000497640
498    -39.3572398405   0.000001777501 0.00263844  0.00035823  0.0004641   0.000323482
499    -39.3572239850   0.000015855466 0.00124309  0.00016832  0.0004463   0.000324502
               *** Restarting incremental Fock matrix formation ***
                             ****Resetting KDIIS****
500    -39.3572317259  -0.000007740856 0.00013025  0.00001689  0.0004571   0.000321003
                          ***Energy convergence achieved***
501    -39.3572325394  -0.000000813553 0.00026740  0.00003464  0.0004562   0.000320994
502    -39.3572342090  -0.000001669614 0.00288281  0.00037484  0.0004553   0.000321151
503    -39.3572161981   0.000018010952 0.00695055  0.00090693  0.0004500   0.000319410
Warning: badly conditioned DIIS matrix, 1 vectors out of 5 destroyed
504    -39.3571732130   0.000042985022 0.00071125  0.00009311  0.0004330   0.000324209
505    -39.3571776485  -0.000004435477 0.00238145  0.00032646  0.0004399   0.000318887
506    -39.3571928012  -0.000015152627 0.00359523  0.00047435  0.0004320   0.000321434
507    -39.3571703253   0.000022475831 0.00150782  0.00019576  0.0004311   0.000322951
508    -39.3571795197  -0.000009194418 0.00017908  0.00002416  0.0004442   0.000316944
509    -39.3571806437  -0.000001123924 0.00041070  0.00005513  0.0004425   0.000316671
510    -39.3571781278   0.000002515849 0.00777315  0.00103361  0.0004416   0.000316318
511    -39.3571309494   0.000047178407 0.00074286  0.00009535  0.0004170   0.000320451
                          ***Energy convergence achieved***
512    -39.3571315916  -0.000000642192 0.00040744  0.00005869  0.0004197   0.000312375
513    -39.3571342587  -0.000002667143 0.00326427  0.00047445  0.0004196   0.000312792
514    -39.3571127831   0.000021475607 0.00335457  0.00045324  0.0004160   0.000313181
515    -39.3571337056  -0.000020922461 0.00087855  0.00011489  0.0004288   0.000314532
516    -39.3571286750   0.000005030575 0.00057551  0.00008053  0.0004253   0.000312201
517    -39.3571249722   0.000003702864 0.01604891  0.00228252  0.0004248   0.000312264
518    -39.3570189856   0.000105986524 0.00714840  0.00104806  0.0004072   0.000388431
519    -39.3570673716  -0.000048385920 0.00602910  0.00085362  0.0003854   0.000360978
               *** Restarting incremental Fock matrix formation ***
                             ****Resetting KDIIS****
520    -39.3571074603  -0.000040088775 0.00011576  0.00001673  0.0004027   0.000319917
                          ***Energy convergence achieved***
521    -39.3571082522  -0.000000791838 0.00027216  0.00003854  0.0004065   0.000315375
522    -39.3571100743  -0.000001822095 0.00006174  0.00000988  0.0004084   0.000314253
                          ***Energy convergence achieved***
523    -39.3571105079  -0.000000433641 0.01025100  0.00144834  0.0004116   0.000313020
524    -39.3570433594   0.000067148482 0.00017417  0.00001983  0.0003958   0.000327651
                          ***Energy convergence achieved***
525    -39.3570428722   0.000000487194 0.00308293  0.00045381  0.0003885   0.000350261
526    -39.3570639661  -0.000021093877 0.00166273  0.00024238  0.0004041   0.000313881
527    -39.3570528494   0.000011116657 0.00163370  0.00023573  0.0004141   0.000306549
528    -39.3570420171   0.000010832366 0.00191219  0.00028248  0.0004105   0.000306057
529    -39.3570291419   0.000012875145 0.00101098  0.00014883  0.0004088   0.000305683
530    -39.3570228006   0.000006341330 0.00414439  0.00060886  0.0004118   0.000305122
531    -39.3570508033  -0.000028002650 0.02648649  0.00393197  0.0004159   0.000306341
532    -39.3568666709   0.000184132397 0.01487597  0.00230995  0.0008677   0.000675199
533    -39.3567296184   0.000137052429 0.04417372  0.00697090  0.0026239   0.001929411
534    -39.3560325343   0.000697084090 0.04181478  0.00666303  0.0092147   0.006757814
535    -39.3566948863  -0.000662351956 0.00117869  0.00017544  0.0032639   0.002434562
                          ***Energy convergence achieved***
536    -39.3566946361   0.000000250170 0.01441001  0.00220274  0.0034683   0.002580633
537    -39.3568375480  -0.000142911855 0.00166864  0.00024181  0.0019629   0.001490705
538    -39.3568479415  -0.000010393545 0.00930072  0.00135948  0.0020006   0.001514373
539    -39.3569093259  -0.000061384346 0.02589439  0.00381395  0.0020284   0.001554477
               *** Restarting incremental Fock matrix formation ***
                             ****Resetting KDIIS****
540    -39.3570888562  -0.000179530351 0.00080967  0.00007985  0.0019039   0.001451837
541    -39.3571001774  -0.000011321202 0.00040951  0.00005192  0.0012794   0.000968836
542    -39.3571050215  -0.000004844032 0.00077519  0.00011246  0.0010453   0.000808989
543    -39.3571132342  -0.000008212727 0.00165224  0.00023152  0.0006552   0.000557959
544    -39.3571257515  -0.000012517293 0.01210818  0.00170912  0.0004154   0.000322428
545    -39.3570464059   0.000079345582 0.00434692  0.00060732  0.0004055   0.000384177
546    -39.3570741945  -0.000027788629 0.00113420  0.00016428  0.0004208   0.000314794
547    -39.3570809069  -0.000006712336 0.00154105  0.00022459  0.0004000   0.000399275
548    -39.3570910032  -0.000010096361 0.00047591  0.00006791  0.0004200   0.000312919
549    -39.3570897100   0.000001293212 0.00120076  0.00016870  0.0004200   0.000311988
550    -39.3570972153  -0.000007505317 0.00110197  0.00015582  0.0004213   0.000311701
551    -39.3570900633   0.000007151980 0.00115988  0.00016307  0.0004269   0.000311908
552    -39.3570827242   0.000007339154 0.00135132  0.00018967  0.0004233   0.000310871
553    -39.3570739024   0.000008821754 0.00082125  0.00011785  0.0004217   0.000312171
554    -39.3570789863  -0.000005083826 0.00327616  0.00046116  0.0004254   0.000311094
555    -39.3570581600   0.000020826240 0.00140890  0.00019133  0.0004221   0.000308138
556    -39.3570501551   0.000008004913 0.00055791  0.00007896  0.0004189   0.000307622
557    -39.3570537854  -0.000003630320 0.00215424  0.00030480  0.0004202   0.000307124
558    -39.3570678477  -0.000014062246 0.00322970  0.00045747  0.0004205   0.000307165
559    -39.3570467551   0.000021092599 0.00808093  0.00116473  0.0004188   0.000307224
               *** Restarting incremental Fock matrix formation ***
                             ****Resetting KDIIS****
560    -39.3569932791   0.000053476016 0.00010687  0.00001619  0.0004041   0.000308843
                          ***Energy convergence achieved***
561    -39.3569940269  -0.000000747838 0.00026534  0.00003996  0.0004057   0.000307284
562    -39.3569958695  -0.000001842643 0.00058506  0.00008787  0.0004066   0.000306667
563    -39.3569999178  -0.000004048239 0.00279533  0.00041993  0.0004083   0.000305919
564    -39.3569806176   0.000019300187 0.00094327  0.00014283  0.0004085   0.000305431
565    -39.3569740808   0.000006536831 0.00090815  0.00013746  0.0004082   0.000305225
566    -39.3569803963  -0.000006315523 0.00008961  0.00001415  0.0004106   0.000304989
                          ***Energy convergence achieved***
567    -39.3569797932   0.000000603122 0.00255641  0.00038464  0.0004088   0.000304892
568    -39.3569974982  -0.000017705072 0.00088558  0.00013324  0.0004089   0.000304913
569    -39.3569913803   0.000006117901 0.00123104  0.00018536  0.0004086   0.000304890
570    -39.3569829094   0.000008470962 0.00045139  0.00006852  0.0004079   0.000304955
571    -39.3569797542   0.000003155193 0.00041823  0.00006311  0.0004081   0.000304892
572    -39.3569826622  -0.000002907995 0.00055317  0.00008359  0.0004082   0.000304904
573    -39.3569788099   0.000003852275 0.00047219  0.00007119  0.0004088   0.000304809
574    -39.3569820882  -0.000003278331 0.00095279  0.00014335  0.0004089   0.000304774
575    -39.3569754954   0.000006592874 0.00311274  0.00046743  0.0004081   0.000304776
576    -39.3569542585   0.000021236905 0.00017592  0.00002393  0.0004031   0.000304707
                          ***Energy convergence achieved***
577    -39.3569534284   0.000000830075 0.00025315  0.00003668  0.0004026   0.000305787
578    -39.3569519262   0.000001502155 0.00057397  0.00008978  0.0003999   0.000306972
579    -39.3569560502  -0.000004123934 0.00118683  0.00017989  0.0004028   0.000304642
               *** Restarting incremental Fock matrix formation ***
                             ****Resetting KDIIS****
580    -39.3569643155  -0.000008265391 0.00010395  0.00001592  0.0004042   0.000304485
                          ***Energy convergence achieved***
581    -39.3569650486  -0.000000733006 0.00022224  0.00003402  0.0004043   0.000304473
582    -39.3569666155  -0.000001566961 0.00008804  0.00001361  0.0004044   0.000304466
                          ***Energy convergence achieved***
583    -39.3569672416  -0.000000626081 0.00029175  0.00004375  0.0004044   0.000304458
Warning: badly conditioned DIIS matrix, 1 vectors out of 5 destroyed
584    -39.3569652280   0.000002013545 0.00040732  0.00005978  0.0004045   0.000304418
Warning: badly conditioned DIIS matrix, 1 vectors out of 5 destroyed
585    -39.3569624990   0.000002729050 0.00070335  0.00010964  0.0004036   0.000304430
586    -39.3569674740  -0.000004975018 0.00977057  0.00149318  0.0004042   0.000304229
587    -39.3570359974  -0.000068523364 0.01738078  0.00262067  0.0003949   0.000321957
588    -39.3571530688  -0.000117071395 0.02705285  0.00392094  0.0009390   0.000701340
589    -39.3568830221   0.000270046723 0.02088802  0.00317247  0.0044448   0.003257103
590    -39.3569596347  -0.000076612640 0.01006987  0.00097703  0.0057742   0.004260839
591    -39.3571199371  -0.000160302363 0.01577601  0.00230643  0.0004027   0.000360331
592    -39.3570123990   0.000107538020 0.02651637  0.00416393  0.0006434   0.000609237
593    -39.3568142726   0.000198126460 0.04355557  0.00676523  0.0014176   0.001059567
594    -39.3571065463  -0.000292273719 0.02794729  0.00429307  0.0024246   0.001753368
595    -39.3571300892  -0.000023542928 0.02640074  0.00398769  0.0064432   0.004674141
596    -39.3571478236  -0.000017734357 0.00649517  0.00084307  0.0006344   0.000612452
597    -39.3571882869  -0.000040463350 0.02543623  0.00423638  0.0004373   0.000353183
598    -39.3573767915  -0.000188504609 0.03616937  0.00574007  0.0004656   0.000362666
599    -39.3571155002   0.000261291355 0.00921303  0.00125163  0.0008471   0.000673959
               *** Restarting incremental Fock matrix formation ***
                             ****Resetting KDIIS****
600    -39.3570566607   0.000058839523 0.00055113  0.00005555  0.0014462   0.001021462
601    -39.3570623712  -0.000005710562 0.00032560  0.00004603  0.0010195   0.000708730
602    -39.3570656735  -0.000003302294 0.00078115  0.00010634  0.0008652   0.000606599
603    -39.3570721204  -0.000006446907 0.00065716  0.00009327  0.0006135   0.000451956
604    -39.3570766825  -0.000004562037 0.00263447  0.00039790  0.0004048   0.000323973
605    -39.3570583483   0.000018334112 0.00073640  0.00008094  0.0004061   0.000307184
                          ***Energy convergence achieved***
606    -39.3570590216  -0.000000673285 0.00210519  0.00029948  0.0004052   0.000302913
607    -39.3570725061  -0.000013484479 0.00062505  0.00008782  0.0004040   0.000302000
608    -39.3570686193   0.000003886805 0.00115402  0.00016363  0.0004066   0.000301435
609    -39.3570760517  -0.000007432386 0.00099444  0.00014223  0.0004025   0.000301317
610    -39.3570824852  -0.000006433522 0.00055157  0.00007931  0.0004034   0.000301022
611    -39.3570788901   0.000003595163 0.00162462  0.00023370  0.0004036   0.000300958
612    -39.3570683457   0.000010544307 0.00194452  0.00028417  0.0004027   0.000300728
613    -39.3570556650   0.000012680727 0.00033175  0.00004955  0.0003999   0.000301523
614    -39.3570578351  -0.000002170117 0.00059561  0.00008693  0.0004004   0.000300572
615    -39.3570617618  -0.000003926635 0.00096938  0.00013914  0.0004018   0.000300720
616    -39.3570680355  -0.000006273732 0.00044052  0.00006843  0.0004032   0.000300779
617    -39.3570650037   0.000003031828 0.00242290  0.00035331  0.0004017   0.000300377
618    -39.3570490393   0.000015964377 0.00149338  0.00021397  0.0003966   0.000299655
619    -39.3570394350   0.000009604297 0.00227620  0.00031385  0.0003952   0.000299324
               *** Restarting incremental Fock matrix formation ***
                             ****Resetting KDIIS****
620    -39.3570254620   0.000013972972 0.00010422  0.00001570  0.0003955   0.000299132
                          ***Energy convergence achieved***
621    -39.3570261692  -0.000000707175 0.00025141  0.00003788  0.0003956   0.000299064
622    -39.3570278756  -0.000001706426 0.00022463  0.00003388  0.0003956   0.000299035
623    -39.3570294018  -0.000001526171 0.00384139  0.00057911  0.0003952   0.000299040
Warning: badly conditioned DIIS matrix, 1 vectors out of 5 destroyed
624    -39.3570033539   0.000026047900 0.00171660  0.00025959  0.0003929   0.000299145
Warning: badly conditioned DIIS matrix, 1 vectors out of 5 destroyed
625    -39.3570150482  -0.000011694303 0.00006904  0.00000753  0.0003963   0.000298891
                          ***Energy convergence achieved***
626    -39.3570148193   0.000000228945 0.00757295  0.00114289  0.0003951   0.000298703
627    -39.3570663550  -0.000051535749 0.00304163  0.00045360  0.0003896   0.000304962
628    -39.3570868121  -0.000020457070 0.00068616  0.00010146  0.0003896   0.000308154
629    -39.3570913373  -0.000004525254 0.00418908  0.00063496  0.0003896   0.000308509
630    -39.3570626816   0.000028655704 0.01455788  0.00219507  0.0004085   0.000307028
631    -39.3569636415   0.000099040156 0.00931144  0.00142389  0.0003928   0.000299629
632    -39.3570278351  -0.000064193593 0.00746544  0.00109547  0.0003817   0.000316930
633    -39.3570765759  -0.000048740878 0.00993984  0.00151328  0.0004387   0.000389002
634    -39.3571400892  -0.000063513248 0.00551428  0.00060851  0.0010483   0.000795877
635    -39.3571590869  -0.000018997728 0.06309478  0.00957628  0.0010629   0.000812315
636    -39.3567220468   0.000437040165 0.05760617  0.00876748  0.0004462   0.000341303
637    -39.3570887975  -0.000366750775 0.01362998  0.00193001  0.0025888   0.001993111
638    -39.3570391261   0.000049671395 0.01248994  0.00180647  0.0004317   0.000401981
639    -39.3569516797   0.000087446432 0.00571120  0.00083055  0.0014493   0.001028681
               *** Restarting incremental Fock matrix formation ***
                             ****Resetting KDIIS****
640    -39.3569936499  -0.000041970158 0.00012536  0.00001733  0.0003844   0.000340177
                          ***Energy convergence achieved***
641    -39.3569944803  -0.000000830425 0.00032145  0.00004487  0.0003869   0.000328854
642    -39.3569965659  -0.000002085597 0.00072663  0.00010303  0.0003866   0.000320225
643    -39.3570012977  -0.000004731850 0.00140841  0.00020208  0.0003896   0.000307438
644    -39.3570104389  -0.000009141215 0.00553692  0.00083737  0.0003944   0.000299689
645    -39.3569725548   0.000037884174 0.00393674  0.00059486  0.0003874   0.000305077
646    -39.3569994506  -0.000026895836 0.00268063  0.00040572  0.0003959   0.000299609
647    -39.3569811331   0.000018317525 0.00362800  0.00055528  0.0003902   0.000300737
648    -39.3570062117  -0.000025078570 0.01439569  0.00218940  0.0003925   0.000299309
649    -39.3571043954  -0.000098183697 0.00406455  0.00060236  0.0004304   0.000401362
650    -39.3571316248  -0.000027229414 0.00503957  0.00076228  0.0005188   0.000431332
651    -39.3571636486  -0.000032023791 0.06100935  0.00939125  0.0009341   0.000680242
652    -39.3567011078   0.000462540782 0.05087274  0.00786408  0.0029880   0.002140252
653    -39.3570970233  -0.000395915492 0.09191875  0.01378985  0.0004229   0.000335661
[...]
                          ***Energy convergence achieved***
1061    -39.3574596969  -0.000000451296 0.00016498  0.00002635  0.0002825   0.000239967
1062    -39.3574606277  -0.000000930767 0.00142513  0.00022663  0.0002833   0.000239989
1063    -39.3574526614   0.000007966282 0.00310185  0.00048553  0.0002842   0.000238991
1064    -39.3574358338   0.000016827560 0.00047381  0.00007959  0.0002886   0.000238610
1065    -39.3574386555  -0.000002821675 0.00054158  0.00009103  0.0002941   0.000237864
1066    -39.3574418609  -0.000003205388 0.00145114  0.00024355  0.0002979   0.000238148
1067    -39.3574504256  -0.000008564711 0.00162575  0.00027297  0.0003106   0.000244288
1068    -39.3574408300   0.000009595613 0.00220487  0.00035909  0.0002999   0.000238411
1069    -39.3574284455   0.000012384521 0.00153179  0.00025811  0.0002989   0.000238122
1070    -39.3574374159  -0.000008970392 0.00321375  0.00053342  0.0003003   0.000238416
1071    -39.3574185455   0.000018870369 0.00663813  0.00110769  0.0003094   0.000244683
1072    -39.3573800459   0.000038499625 0.00636547  0.00104817  0.0002683   0.000262955
1073    -39.3573438123   0.000036233587 0.00136153  0.00015601  0.0003222   0.000298661
1074    -39.3573374462   0.000006366080 0.00210299  0.00034887  0.0007084   0.000536524
1075    -39.3573284812   0.000008964977 0.00575665  0.00095632  0.0003110   0.000278355
1076    -39.3572983821   0.000030099117 0.00975061  0.00161332  0.0004701   0.000384347
1077    -39.3573510264  -0.000052644324 0.01867523  0.00310870  0.0002981   0.000232240
1078    -39.3572433947   0.000107631722 0.03788931  0.00637305  0.0006491   0.000519920
1079    -39.3574569586  -0.000213563872 0.02913046  0.00502510  0.0016135   0.001122096
               *** Restarting incremental Fock matrix formation ***
                             ****Resetting KDIIS****
1080    -39.3575380119  -0.000081053300 0.00214237  0.00019762  0.0049721   0.003530539
1081    -39.3576032899  -0.000065278050 0.00088387  0.00008299  0.0033189   0.002223177
1082    -39.3576212543  -0.000017964358 0.00137721  0.00015426  0.0027610   0.001812534
1083    -39.3576455137  -0.000024259401 0.00187088  0.00019589  0.0018778   0.001158641
1084    -39.3576500934  -0.000004579764 0.00477962  0.00057733  0.0005493   0.000401107
1085    -39.3576283746   0.000021718811 0.00114893  0.00013121  0.0003911   0.000276168
1086    -39.3576308599  -0.000002485231 0.00186090  0.00026849  0.0003725   0.000250688
1087    -39.3576402231  -0.000009363228 0.00154571  0.00022558  0.0003396   0.000244028
1088    -39.3576480528  -0.000007829699 0.00111823  0.00018159  0.0003012   0.000243002
1089    -39.3576544100  -0.000006357208 0.00086917  0.00010920  0.0002840   0.000242531
1090    -39.3576580320  -0.000003622037 0.00003083  0.00000434  0.0002830   0.000240367
                          ***Energy convergence achieved***
1091    -39.3576581560  -0.000000123939 0.00041487  0.00006923  0.0002837   0.000240423
1092    -39.3576606040  -0.000002448011 0.00189243  0.00031333  0.0002838   0.000240668
1093    -39.3576495479   0.000011056056 0.00622093  0.00100173  0.0002828   0.000239452
1094    -39.3576147811   0.000034766876 0.00380501  0.00061231  0.0002681   0.000242244
1095    -39.3575940899   0.000020691166 0.00164313  0.00023891  0.0002683   0.000242372
1096    -39.3576022057  -0.000008115781 0.00302746  0.00047780  0.0002949   0.000237447
1097    -39.3575865481   0.000015657580 0.00079662  0.00013719  0.0002849   0.000233957
1098    -39.3575908736  -0.000004325493 0.00529213  0.00086046  0.0002935   0.000233294
1099    -39.3576204217  -0.000029548067 0.00404418  0.00064725  0.0003196   0.000235056
               *** Restarting incremental Fock matrix formation ***
                             ****Resetting KDIIS****
1100    -39.3575982325   0.000022189148 0.00007222  0.00001232  0.0003005   0.000233080
                          ***Energy convergence achieved***
1101    -39.3575986585  -0.000000425990 0.00015904  0.00002711  0.0003001   0.000233064
1102    -39.3575995961  -0.000000937589 0.00069321  0.00011743  0.0003000   0.000233077
1103    -39.3575955299   0.000004066191 0.00287933  0.00048645  0.0002993   0.000232896
Warning: badly conditioned DIIS matrix, 1 vectors out of 5 destroyed
1104    -39.3575787148   0.000016815044 0.00042911  0.00006727  0.0002906   0.000232974
1105    -39.3575810239  -0.000002309043 0.00049700  0.00008091  0.0002934   0.000232613
1106    -39.3575782415   0.000002782379 0.00178889  0.00030359  0.0002922   0.000232683
1107    -39.3575677890   0.000010452487 0.01149786  0.00193961  0.0002969   0.000232365
1108    -39.3575009440   0.000066845036 0.01675365  0.00280135  0.0003287   0.000307990
1109    -39.3575953586  -0.000094414615 0.01962991  0.00336817  0.0008010   0.000590799
1110    -39.3576971806  -0.000101821976 0.02066515  0.00344173  0.0020646   0.001458940
1111    -39.3575806259   0.000116554684 0.01950387  0.00316277  0.0018417   0.001366222
1112    -39.3576963988  -0.000115772909 0.02966692  0.00501871  0.0013527   0.001010257
1113    -39.3574965994   0.000199799355 0.02394804  0.00400910  0.0028958   0.002070214
1114    -39.3576660616  -0.000169462121 0.04565323  0.00707907  0.0008159   0.000681798
1115    -39.3574179439   0.000248117704 0.07300259  0.01239888  0.0017265   0.001218260
1116    -39.3559985326   0.001419411244 0.07472657  0.01273562  0.0157177   0.011149580
1117    -39.3574340225  -0.001435489927 0.00618617  0.00082810  0.0012313   0.000868292
1118    -39.3573925975   0.000041425046 0.00938944  0.00160341  0.0022997   0.001620994
1119    -39.3574554805  -0.000062883039 0.00766061  0.00132154  0.0017262   0.001216523
               *** Restarting incremental Fock matrix formation ***
                             ****Resetting KDIIS****
1120    -39.3575008048  -0.000045324249 0.00072540  0.00006626  0.0016785   0.001187133
1121    -39.3575082731  -0.000007468264 0.00032932  0.00003958  0.0011322   0.000773250
1122    -39.3575111898  -0.000002916712 0.00055857  0.00008671  0.0009463   0.000644456
1123    -39.3575161905  -0.000005000707 0.00072451  0.00007285  0.0006511   0.000445845
1124    -39.3575190156  -0.000002825161 0.00208843  0.00035072  0.0003738   0.000261600
1125    -39.3575064723   0.000012543308 0.00059812  0.00006706  0.0003644   0.000238581
1126    -39.3575076436  -0.000001171271 0.00138491  0.00022140  0.0003519   0.000234505
1127    -39.3575152004  -0.000007556821 0.00068336  0.00010212  0.0003396   0.000233134
1128    -39.3575186249  -0.000003424488 0.00136668  0.00023067  0.0003277   0.000233147
1129    -39.3575265987  -0.000007973746 0.00059135  0.00007565  0.0003126   0.000233954
1130    -39.3575290556  -0.000002456929 0.00060156  0.00010325  0.0003152   0.000232189
1131    -39.3575326172  -0.000003561609 0.00080295  0.00013748  0.0003131   0.000232200
1132    -39.3575278769   0.000004740297 0.00351396  0.00060135  0.0003148   0.000232096
1133    -39.3575071535   0.000020723434 0.00009231  0.00001669  0.0003138   0.000232872
                          ***Energy convergence achieved***
1134    -39.3575066480   0.000000505490 0.00073319  0.00012441  0.0003176   0.000231937
1135    -39.3575023663   0.000004281670 0.00157766  0.00026709  0.0003177   0.000231824
1136    -39.3574931890   0.000009177303 0.00066129  0.00010237  0.0003154   0.000231917
1137    -39.3574896879   0.000003501048 0.00374959  0.00064114  0.0003145   0.000233382
1138    -39.3575117418  -0.000022053891 0.00483003  0.00082534  0.0003114   0.000232007
1139    -39.3574833584   0.000028383488 0.00154076  0.00026553  0.0003195   0.000232263
               *** Restarting incremental Fock matrix formation ***
                             ****Resetting KDIIS****
1140    -39.3574742517   0.000009106631 0.00007113  0.00001240  0.0003328   0.000233450
                          ***Energy convergence achieved***
1141    -39.3574746777  -0.000000425958 0.00016882  0.00002883  0.0003291   0.000232038

            ***Energy convergence in two consecutive cycles with***
                    ***'reasonable' density convergence***
                       *** signaling convergence ***

                    *** KDIIS BlockDiag ( 0.000 sec) ***

               *****************************************************
               *                     SUCCESS                       *
               *           SCF CONVERGED AFTER 1142 CYCLES          *
               *****************************************************

Setting up the final grid:

General Integration Accuracy     IntAcc      ...  4.670
Radial Grid Type                 RadialGrid  ... Gauss-Chebyshev
Angular Grid (max. acc.)         AngularGrid ... Lebedev-302
Angular grid pruning method      GridPruning ... 3 (G Style)
Weight generation scheme         WeightScheme... Becke
Basis function cutoff            BFCut       ...    1.0000e-10
Integration weight cutoff        WCut        ...    1.0000e-14
Grids for H and He will be reduced by one unit

# of grid points (after initial pruning)     ...  19788 (   0.0 sec)
# of grid points (after weights+screening)   ...  19750 (   0.0 sec)
nearest neighbour list constructed           ...    0.0 sec
Grid point re-assignment to atoms done       ...    0.0 sec
Grid point division into batches done        ...    0.0 sec
Reduced shell lists constructed in    0.1 sec

Total number of grid points                  ...    19750
Total number of batches                      ...      310
Average number of points per batch           ...       63
Average number of grid points per atom       ...     3950
Average number of shells per batch           ...     5.80 (41.46%)
Average number of basis functions per batch  ...     9.68 (44.01%)
Average number of large shells per batch     ...     3.96 (68.25%)
Average number of large basis fcns per batch ...     6.81 (70.34%)
Maximum spatial batch extension              ...  20.64, 17.57, 16.85 au
Average spatial batch extension              ...   4.01,  3.87,  3.76 au

Final grid set up in    0.1 sec
Final integration                            ... done (   0.1 sec)
Change in XC energy                          ...    -0.000088538
Integrated number of electrons               ...     9.999990389
Previous integrated no of electrons          ...     9.998984131

----------------
TOTAL SCF ENERGY
----------------

Total Energy       :          -39.35756420 Eh           -1070.97377 eV

Components:
Nuclear Repulsion  :            3.12042233 Eh              84.91101 eV
Electronic Energy  :          -42.47798654 Eh           -1155.88478 eV
One Electron Energy:          -58.24312582 Eh           -1584.87603 eV
Two Electron Energy:           15.76513929 Eh             428.99125 eV

Virial components:
Potential Energy   :          -78.70152285 Eh           -2141.57731 eV
Kinetic Energy     :           39.34395865 Eh            1070.60354 eV
Virial Ratio       :            2.00034581


DFT components:
N(Alpha)           :        4.999995194276 electrons
N(Beta)            :        4.999995194276 electrons
N(Total)           :        9.999990388551 electrons
E(XC)              :       -3.994285258659 Eh       

---------------
SCF CONVERGENCE
---------------

  Last Energy change         ...   -9.8799e-07  Tolerance :   1.0000e-06
  Last MAX-Density change    ...    4.9538e-05  Tolerance :   1.0000e-05
  Last RMS-Density change    ...    8.4066e-06  Tolerance :   1.0000e-06
  Last DIIS Error            ...    3.2687e-04  Tolerance :   1.0000e-06

             **** THE GBW FILE WAS UPDATED (Scan_42.gbw) ****
             **** DENSITY FILE WAS UPDATED (Scan_42.scfp.tmp) ****
             **** ENERGY FILE WAS UPDATED (Scan_42.en.tmp) ****
----------------
ORBITAL ENERGIES
----------------

  NO   OCC          E(Eh)            E(eV) 
   0   2.0000     -10.513772      -286.0943 
   1   2.0000      -0.706747       -19.2316 
   2   2.0000      -0.282091        -7.6761 
   3   2.0000      -0.274091        -7.4584 
   4   2.0000      -0.256359        -6.9759 
   5   0.0000      -0.187458        -5.1010 
   6   0.0000      -0.171116        -4.6563 
   7   0.0000      -0.163513        -4.4494 
   8   0.0000      -0.095466        -2.5978 
   9   0.0000       0.589893        16.0518 
  10   0.0000       0.590230        16.0610 
  11   0.0000       0.596551        16.2330 
  12   0.0000       0.640216        17.4212 
  13   0.0000       0.859330        23.3836 
  14   0.0000       0.866776        23.5862 
  15   0.0000       0.867174        23.5970 
  16   0.0000       0.868036        23.6205 
  17   0.0000       1.698877        46.2288 
  18   0.0000       1.699317        46.2408 
  19   0.0000       1.700292        46.2673 
  20   0.0000       1.710587        46.5474 
  21   0.0000       1.710710        46.5508 

                    ********************************
                    * MULLIKEN POPULATION ANALYSIS *
                    ********************************

-----------------------
MULLIKEN ATOMIC CHARGES
-----------------------
   0 C :    0.187733
   1 H :   -0.049793
   2 H :   -0.030847
   3 H :   -0.048551
   4 H :   -0.058541
Sum of atomic charges:   -0.0000000

--------------------------------
MULLIKEN REDUCED ORBITAL CHARGES
--------------------------------
  0 C s       :     3.999973  s :     3.999973
      pz      :     0.434760  p :     1.812273
      px      :     0.748046
      py      :     0.629468
      dz2     :     0.000002  d :     0.000021
      dxz     :     0.000003
      dyz     :     0.000010
      dx2y2   :     0.000002
      dxy     :     0.000004
  1 H s       :     1.049793  s :     1.049793
  2 H s       :     1.030847  s :     1.030847
  3 H s       :     1.048551  s :     1.048551
  4 H s       :     1.058541  s :     1.058541


                     *******************************
                     * LOEWDIN POPULATION ANALYSIS *
                     *******************************

----------------------
LOEWDIN ATOMIC CHARGES
----------------------
   0 C :    0.187935
   1 H :   -0.049907
   2 H :   -0.030930
   3 H :   -0.048566
   4 H :   -0.058532

-------------------------------
LOEWDIN REDUCED ORBITAL CHARGES
-------------------------------
  0 C s       :     3.999970  s :     3.999970
      pz      :     0.434652  p :     1.812074
      px      :     0.748014
      py      :     0.629407
      dz2     :     0.000002  d :     0.000021
      dxz     :     0.000003
      dyz     :     0.000010
      dx2y2   :     0.000002
      dxy     :     0.000004
  1 H s       :     1.049907  s :     1.049907
  2 H s       :     1.030930  s :     1.030930
  3 H s       :     1.048566  s :     1.048566
  4 H s       :     1.058532  s :     1.058532


                      *****************************
                      * MAYER POPULATION ANALYSIS *
                      *****************************

  NA   - Mulliken gross atomic population
  ZA   - Total nuclear charge
  QA   - Mulliken gross atomic charge
  VA   - Mayer's total valence
  BVA  - Mayer's bonded valence
  FA   - Mayer's free valence

  ATOM       NA         ZA         QA         VA         BVA        FA
  0 C      5.8123     6.0000     0.1877     1.9783     1.9783    -0.0000
  1 H      1.0498     1.0000    -0.0498     0.9975     0.9975    -0.0000
  2 H      1.0308     1.0000    -0.0308     0.9991     0.9991     0.0000
  3 H      1.0486     1.0000    -0.0486     0.9977     0.9977    -0.0000
  4 H      1.0585     1.0000    -0.0585     0.9966     0.9966    -0.0000

  Mayer bond orders larger than 0.1
B(  0-C ,  1-H ) :   0.4345 B(  0-C ,  2-H ) :   0.9695 B(  0-C ,  3-H ) :   0.5453 
B(  1-H ,  4-H ) :   0.5375 B(  3-H ,  4-H ) :   0.4293 

-------
TIMINGS
-------

Total SCF time: 0 days 0 hours 4 min 40 sec 

Total time                  ....     280.400 sec
Sum of individual times     ....     271.642 sec  ( 96.9%)

Fock matrix formation       ....     271.103 sec  ( 96.7%)
  XC integration            ....      49.445 sec  ( 18.2% of F)
    Basis function eval.    ....       8.320 sec  ( 16.8% of XC)
    Density eval.           ....       2.065 sec  (  4.2% of XC)
    XC-Functional eval.     ....      17.323 sec  ( 35.0% of XC)
    XC-Potential eval.      ....       0.622 sec  (  1.3% of XC)
Diagonalization             ....       0.276 sec  (  0.1%)
Density matrix formation    ....       0.007 sec  (  0.0%)
Population analysis         ....       0.008 sec  (  0.0%)
Initial guess               ....       0.105 sec  (  0.0%)
Orbital Transformation      ....       0.000 sec  (  0.0%)
Orbital Orthonormalization  ....       0.000 sec  (  0.0%)
DIIS solution               ....       0.000 sec  (  0.0%)
Grid generation             ....       0.142 sec  (  0.1%)


-------------------------------------------------------------------------------
                          DFT DISPERSION CORRECTION                            
                                                                               
                              DFTD3 V3.1  Rev 1                                
                              USING zero damping                               
-------------------------------------------------------------------------------
The omegaB97X-D3 functional is recognized. Fit by Chai et al.
Active option DFTDOPT                   ...         3   

molecular C6(AA) [au] = 319.263299 


            DFT-D V3
 parameters
 s6 scaling factor         :     1.0000 
 rs6 scaling factor        :     1.2810 
 s8 scaling factor         :     1.0000 
 rs8 scaling factor        :     1.0940 
 Damping factor alpha6     :    14.0000 
 Damping factor alpha8     :    16.0000 
 ad hoc parameters k1-k3   :    16.0000     1.3333    -4.0000 

 Edisp/kcal,au: -0.122393500200  -0.000195046437 
 E6   /kcal   :  -0.098945787 
 E8   /kcal   :  -0.023447713 
 % E8         :  19.157645398 

-------------------------   ----------------
Dispersion correction           -0.000195046
-------------------------   ----------------


-------------------------   --------------------
FINAL SINGLE POINT ENERGY       -39.357759249917
-------------------------   --------------------


                            ***************************************
                            *     ORCA property calculations      *
                            ***************************************

                                    ---------------------
                                    Active property flags
                                    ---------------------
   (+) Dipole Moment


------------------------------------------------------------------------------
                       ORCA ELECTRIC PROPERTIES CALCULATION
------------------------------------------------------------------------------

Dipole Moment Calculation                       ... on
Quadrupole Moment Calculation                   ... off
Polarizability Calculation                      ... off
GBWName                                         ... Scan_42.gbw
Electron density file                           ... Scan_42.scfp.tmp

-------------
DIPOLE MOMENT
-------------
                                X             Y             Z
Electronic contribution:     -0.02571      -0.01326       0.19750
Nuclear contribution   :     -0.00000      -0.00001       0.00000
                        -----------------------------------------
Total Dipole Moment    :     -0.02571      -0.01326       0.19750
                        -----------------------------------------
Magnitude (a.u.)       :      0.19961
Magnitude (Debye)      :      0.50737


Timings for individual modules:

Sum of individual times         ...      280.717 sec (=   4.679 min)
GTO integral calculation        ...        0.295 sec (=   0.005 min)   0.1 %
SCF iterations                  ...      280.422 sec (=   4.674 min)  99.9 %
                             ****ORCA TERMINATED NORMALLY****
TOTAL RUN TIME: 0 days 0 hours 4 minutes 41 seconds 19 msec
