
                                 *****************
                                 * O   R   C   A *
                                 *****************

           --- An Ab Initio, DFT and Semiempirical electronic structure package ---

                  #######################################################
                  #                        -***-                        #
                  #  Department of molecular theory and spectroscopy    #
                  #              Directorship: Frank Neese              #
                  # Max Planck Institute for Chemical Energy Conversion #
                  #                  D-45470 Muelheim/Ruhr              #
                  #                       Germany                       #
                  #                                                     #
                  #                  All rights reserved                #
                  #                        -***-                        #
                  #######################################################


                         Program Version 4.0.0.2 - RELEASE -


 With contributions from (in alphabetic order):
   Daniel Aravena         : Magnetic Properties
   Michael Atanasov       : Ab Initio Ligand Field Theory
   Ute Becker             : Parallelization
   Martin Brehm           : Molecular dynamics
   Dmytro Bykov           : SCF Hessian
   Vijay G. Chilkuri      : MRCI spin determinant printing
   Dipayan Datta          : RHF DLPNO-CCSD density
   Achintya Kumar Dutta   : EOM-CC, STEOM-CC
   Dmitry Ganyushin       : Spin-Orbit,Spin-Spin,Magnetic field MRCI
   Yang Guo               : DLPNO-NEVPT2, CIM, IAO-localization
   Andreas Hansen         : Spin unrestricted coupled pair/coupled cluster methods
   Lee Huntington         : MR-EOM, pCC
   Robert Izsak           : Overlap fitted RIJCOSX, COSX-SCS-MP3, EOM
   Christian Kollmar      : KDIIS, OOCD, Brueckner-CCSD(T), CCSD density
   Simone Kossmann        : Meta GGA functionals, TD-DFT gradient, OOMP2, MP2 Hessian
   Martin Krupicka        : AUTO-CI
   Dagmar Lenk            : GEPOL surface
   Dimitrios Liakos       : Extrapolation schemes; parallel MDCI
   Dimitrios Manganas     : ROCIS; embedding schemes
   Dimitrios Pantazis     : SARC Basis sets
   Taras Petrenko         : DFT Hessian,TD-DFT gradient, ASA, ECA, R-Raman, ABS, FL, XAS/XES, NRVS
   Peter Pinski           : DLPNO-MP2
   Christoph Reimann      : Effective Core Potentials
   Marius Retegan         : Local ZFS, SOC
   Christoph Riplinger    : Optimizer, TS searches, QM/MM, DLPNO-CCSD(T), (RO)-DLPNO pert. Triples
   Tobias Risthaus        : Range-separated hybrids, TD-DFT gradient, RPA, STAB
   Michael Roemelt        : Restricted open shell CIS
   Masaaki Saitow         : Open-shell DLPNO
   Barbara Sandhoefer     : DKH picture change effects
   Kantharuban Sivalingam : CASSCF convergence, NEVPT2, FIC-MRCI
   Georgi Stoychev        : AutoAux
   Boris Wezisla          : Elementary symmetry handling
   Frank Wennmohs         : Technical directorship


 We gratefully acknowledge several colleagues who have allowed us to
 interface, adapt or use parts of their codes:
   Stefan Grimme, W. Hujo, H. Kruse,             : VdW corrections, initial TS optimization,
                  C. Bannwarth                     DFT functionals, gCP, sTDA/sTD-DF
   Ed Valeev                                     : LibInt (2-el integral package), F12 methods
   Garnet Chan, S. Sharma, J. Yang, R. Olivares  : DMRG
   Ulf Ekstrom                                   : XCFun DFT Library
   Mihaly Kallay                                 : mrcc  (arbitrary order and MRCC methods)
   Jiri Pittner, Ondrej Demel                    : Mk-CCSD
   Frank Weinhold                                : gennbo (NPA and NBO analysis)
   Christopher J. Cramer and Donald G. Truhlar   : smd solvation model


 Your calculation uses the libint2 library for the computation of 2-el integrals
 For citations please refer to: http://libint.valeyev.net

 This ORCA versions uses:
   CBLAS   interface :  Fast vector & matrix operations
   LAPACKE interface :  Fast linear algebra routines
   SCALAPACK package :  Parallel linear algebra routines


Your calculation utilizes the atom-pairwise dispersion correction
with the zero-damping scheme (D30)
Cite in your paper:
S.Grimme, J.Antony, S.Ehrlich and H.Krieg, J.Chem.Phys., 132, (2010), 154104 
   

XCFun DFT library Copyright 2009-2010 Ulf Ekstrom and contributors.
See http://admol.org/xcfun for more information. This is free soft-
ware; see the source code for copying conditions. There is ABSOLUTELY
NO WARRANTY; not even for MERCHANTABILITY or FITNESS FOR A PARTICULAR
PURPOSE. For details see the documentation. Scientific users of this 
library should cite U. Ekstrom, L. Visscher, R. Bast, A. J. Thorvald-
sen and K. Ruud; J.Chem.Theor.Comp. 2010, DOI: 10.1021/ct100117s
XCFun Version 0.99 
Your calculation utilizes the basis: 6-31G(d)
   H-He, Li-Ne : W. J. Hehre, R. Ditchfield and J.A. Pople, J. Chem. Phys. 56, 2257 (1972).
                 Note: He and Ne are unpublished basis sets taken from the Gaussian program.
                 Note: Li and B from J. D. Dill and J. A. Pople, J. Chem. Phys. 62, 2921 (1975).
   Na - Ar     : M. M. Francl, W. J. Pietro, W. J. Hehre, J. S. Binkley, M. S. Gordon, 
                 D. J. DeFrees and J. A. Pople, J. Chem. Phys. 77, 3654 (1982).
   K - Zn      : V. A. Rassolov, J. A. Pople, M. A. Ratner, and T. L. Windus, J. Chem. Phys. 109, 1223 (1998).

================================================================================
                                        WARNINGS
                       Please study these warnings very carefully!
================================================================================

Warning: TCutStore was < 0. Adjusted to Thresh (uncritical)

INFO   : the flag for use of LIBINT has been found!

================================================================================
                                       INPUT FILE
================================================================================
NAME = initial43.inp
|  1> ! WB97X-D3 6-31G(d) VerySlowConv
|  2> ! KDIIS NOSOSCF
|  3> %base "Scan_43"
|  4> 
|  5> %scf
|  6> maxiter 999
|  7> end
|  8> 
|  9> * xyz 0 1
| 10> C         -4.472707991981    1.925921726677    0.000001502817
| 11> H          0.322708753535    1.925914351388   -0.000017603170
| 12> H         -6.071160883225    3.182103288134    4.343154505413
| 13> H         -6.071187871167   -2.463443446048   -1.083676129353
| 14> H         -6.071192007162    5.059104079848   -3.259452275707
| 15> **                         ****END OF INPUT****
================================================================================

                       ****************************
                       * Single Point Calculation *
                       ****************************

---------------------------------
CARTESIAN COORDINATES (ANGSTROEM)
---------------------------------
  C     -4.472708    1.925922    0.000002
  H      0.322709    1.925914   -0.000018
  H     -6.071161    3.182103    4.343155
  H     -6.071188   -2.463443   -1.083676
  H     -6.071192    5.059104   -3.259452

----------------------------
CARTESIAN COORDINATES (A.U.)
----------------------------
  NO LB      ZA    FRAG     MASS         X           Y           Z
   0 C     6.0000    0    12.011   -8.452193    3.639465    0.000003
   1 H     1.0000    0     1.008    0.609831    3.639451   -0.000033
   2 H     1.0000    0     1.008  -11.472831    6.013304    8.207373
   3 H     1.0000    0     1.008  -11.472882   -4.655233   -2.047851
   4 H     1.0000    0     1.008  -11.472890    9.560321   -6.159472

--------------------------------
INTERNAL COORDINATES (ANGSTROEM)
--------------------------------
 C      0   0   0     0.000000000000     0.00000000     0.00000000
 H      1   0   0     4.795416745560     0.00000000     0.00000000
 H      1   2   0     4.795416745688   109.47121910     0.00000000
 H      1   2   3     4.795416744576   109.47117707   240.00008592
 H      1   2   3     4.795416743031   109.47126626   120.00008715

---------------------------
INTERNAL COORDINATES (A.U.)
---------------------------
 C      0   0   0     0.000000000000     0.00000000     0.00000000
 H      1   0   0     9.062024347128     0.00000000     0.00000000
 H      1   2   0     9.062024347371   109.47121910     0.00000000
 H      1   2   3     9.062024345269   109.47117707   240.00008592
 H      1   2   3     9.062024342350   109.47126626   120.00008715

---------------------
BASIS SET INFORMATION
---------------------
There are 2 groups of distinct atoms

 Group   1 Type C   : 10s4p1d contracted to 3s2p1d pattern {631/31/1}
 Group   2 Type H   : 4s contracted to 2s pattern {31}

Atom   0C    basis set group =>   1
Atom   1H    basis set group =>   2
Atom   2H    basis set group =>   2
Atom   3H    basis set group =>   2
Atom   4H    basis set group =>   2
------------------------------------------------------------------------------
                           ORCA GTO INTEGRAL CALCULATION
------------------------------------------------------------------------------

                         BASIS SET STATISTICS AND STARTUP INFO

 # of primitive gaussian shells          ...   31
 # of primitive gaussian functions       ...   43
 # of contracted shells                  ...   14
 # of contracted basis functions         ...   22
 Highest angular momentum                ...    2
 Maximum contraction depth               ...    6
 Integral package used                   ... LIBINT
 Integral threshhold            Thresh   ...  1.000e-10
 Primitive cut-off              TCut     ...  1.000e-11


------------------------------ INTEGRAL EVALUATION ----------------------------


 * One electron integrals 
 Pre-screening matrix                    ... done
 Shell pair data                         ... done (   0.000 sec)

-------------------------------------------------------------------------------
                                 ORCA SCF
-------------------------------------------------------------------------------

------------
SCF SETTINGS
------------
Hamiltonian:
 Density Functional     Method          .... DFT(GTOs)
 Exchange Functional    Exchange        .... WB97X-D3
 Correlation Functional Correlation     .... WB97X-D3
 Gradients option       PostSCFGGA      .... off
 Hybrid DFT is turned on
   Fraction HF Exchange ScalHFX         ....  0.195728
   Scaling of DF-GGA-X  ScalDFX         ....  0.000000
   Scaling of DF-GGA-C  ScalDFC         ....  1.000000
   Scaling of DF-LDA-C  ScalLDAC        ....  1.000000
   Perturbative correction              ....  0.000000
 Long-range corrected/Screened/Range-Separated Hybrid DFT is turned on
   Amount of maximum screened exact exchange              ....  0.804272
   Range separation parameter mu (erf(mu*r12)/r12)        ....  0.250000


General Settings:
 Integral files         IntName         .... Scan_43
 Hartree-Fock type      HFTyp           .... RHF
 Total Charge           Charge          ....    0
 Multiplicity           Mult            ....    1
 Number of Electrons    NEL             ....   10
 Basis Dimension        Dim             ....   22
 Nuclear Repulsion      ENuc            ....      3.0538689325 Eh

Convergence Acceleration:
 DIIS                   CNVDIIS         .... on
   Start iteration      DIISMaxIt       ....     0
   Startup error        DIISStart       ....  0.200000
   # of expansion vecs  DIISMaxEq       ....     5
   Bias factor          DIISBfac        ....   1.050
   Max. coefficient     DIISMaxC        ....  10.000
 Newton-Raphson         CNVNR           .... off
 SOSCF                  CNVSOSCF        .... off
 Level Shifting         CNVShift        .... off
 Zerner damping         CNVZerner       .... off
 Static damping         CNVDamp         .... off
 Fernandez-Rico         CNVRico         .... off

SCF Procedure:
 Maximum # iterations   MaxIter         ....   999
 SCF integral mode      SCFMode         .... Direct
   Integral package                     .... LIBINT
 Reset frequeny         DirectResetFreq ....    20
 Integral Threshold     Thresh          ....  1.000e-10 Eh
 Primitive CutOff       TCut            ....  1.000e-11 Eh

Convergence Tolerance:
 Convergence Check Mode ConvCheckMode   .... All-Criteria
 Convergence forced     ConvForced      .... 0
 Energy Change          TolE            ....  1.000e-06 Eh
 Max Density Change     TolMaxP         ....  1.000e-05
 RMS Density Change     TolRMSP         ....  1.000e-06
 DIIS Error             TolErr          ....  1.000e-06


Diagonalization of the overlap matrix:
Smallest eigenvalue                        ... 1.869e-01
Time for diagonalization                   ...    0.000 sec
Threshold for overlap eigenvalues          ... 1.000e-08
Number of eigenvalues below threshold      ... 0
Time for construction of square roots      ...    0.004 sec
Total time needed                          ...    0.005 sec

-------------------
DFT GRID GENERATION
-------------------

General Integration Accuracy     IntAcc      ...  4.340
Radial Grid Type                 RadialGrid  ... Gauss-Chebyshev
Angular Grid (max. acc.)         AngularGrid ... Lebedev-110
Angular grid pruning method      GridPruning ... 3 (G Style)
Weight generation scheme         WeightScheme... Becke
Basis function cutoff            BFCut       ...    1.0000e-10
Integration weight cutoff        WCut        ...    1.0000e-14
Grids for H and He will be reduced by one unit

# of grid points (after initial pruning)     ...   4832 (   0.0 sec)
# of grid points (after weights+screening)   ...   4815 (   0.0 sec)
nearest neighbour list constructed           ...    0.0 sec
Grid point re-assignment to atoms done       ...    0.0 sec
Grid point division into batches done        ...    0.0 sec
Reduced shell lists constructed in    0.0 sec

Total number of grid points                  ...     4815
Total number of batches                      ...       78
Average number of points per batch           ...       61
Average number of grid points per atom       ...      963
Average number of shells per batch           ...     6.97 (49.82%)
Average number of basis functions per batch  ...    11.81 (53.68%)
Average number of large shells per batch     ...     4.49 (64.43%)
Average number of large basis fcns per batch ...     7.68 (65.06%)
Maximum spatial batch extension              ...  21.86, 25.60, 18.77 au
Average spatial batch extension              ...   6.68,  6.28,  5.79 au

Time for grid setup =    0.025 sec

------------------------------
INITIAL GUESS: MODEL POTENTIAL
------------------------------
Loading Hartree-Fock densities                     ... done
Calculating cut-offs                               ... done
Setting up the integral package                    ... done
Initializing the effective Hamiltonian             ... done
Starting the Coulomb interaction                   ... done (   0.0 sec)
Reading the grid                                   ... done
Mapping shells                                     ... done
Starting the XC term evaluation                    ... done (   0.0 sec)
  promolecular density results
     # of electrons  =      9.997812684
     EX              =     -5.945217748
     EC              =     -0.216453990
     EX+EC           =     -6.161671738
Transforming the Hamiltonian                       ... done (   0.0 sec)
Diagonalizing the Hamiltonian                      ... done (   0.0 sec)
Back transforming the eigenvectors                 ... done (   0.0 sec)
Now organizing SCF variables                       ... done
                      ------------------
                      INITIAL GUESS DONE (   0.1 sec)
                      ------------------
--------------
SCF ITERATIONS
--------------
ITER       Energy         Delta-E        Max-DP      RMS-DP      [F,P]   Gradient Norm
               ***  Starting incremental Fock matrix formation  ***
                             ****Resetting KDIIS****
                             ****Turning on KDIIS(Cayley)****
  0    -38.1765301884   0.000000000000 0.05536516  0.00500767  0.2170770   0.154387365
  1    -38.2170242362  -0.040494047710 0.09474742  0.00901010  0.1977139   0.141158043
  2    -38.2854857239  -0.068461487763 0.14418456  0.01396973  0.1625389   0.119380155
  3    -38.3735022810  -0.088016557121 0.33862128  0.02867867  0.1154937   0.092330250
  4    -38.5534980101  -0.179995729011 0.06869039  0.00633815  0.1264006   0.079792340
  5    -38.5185169373   0.034981072769 0.11982226  0.01574861  0.1309078   0.076259829
  6    -38.6137069023  -0.095189964993 0.11405511  0.01534015  0.1096221   0.075410105
  7    -38.5048737250   0.108833177260 0.17022753  0.01885040  0.1316835   0.075243757
  8    -38.6354691675  -0.130595442527 0.05290940  0.00681449  0.0924624   0.061610863
  9    -38.6141008431   0.021368324435 0.10976206  0.01089855  0.1019578   0.065913800
 10    -38.5515712171   0.062529626046 0.05407332  0.00519985  0.1247081   0.070899378
 11    -38.5751675378  -0.023596320737 0.08047249  0.00924072  0.1188932   0.072836553
 12    -38.6134810652  -0.038313527383 0.15542839  0.01378171  0.1002464   0.063963485
 13    -38.6918813211  -0.078400255929 0.05887873  0.00612177  0.0657652   0.049567602
 14    -38.6669286367   0.024952684428 0.20770799  0.01852888  0.0739246   0.052245977
 15    -38.5439095028   0.123019133858 0.28135549  0.02335748  0.1244000   0.070737693
 16    -38.6900368244  -0.146127321603 0.09282056  0.00695620  0.0594689   0.044191586
 17    -38.7187538073  -0.028716982835 0.46184728  0.04035258  0.0445731   0.043532951
 18    -38.4995315486   0.219222258685 0.20848800  0.02065733  0.1249070   0.092973483
 19    -38.3479740291   0.151557519454 0.15774111  0.01428638  0.0667361   0.043210209
               *** Restarting incremental Fock matrix formation ***
                             ****Resetting KDIIS****
 20    -38.3485241028  -0.000550073653 0.02613973  0.00268193  0.0768865   0.052449767
 21    -38.3655691173  -0.017045014509 0.02646408  0.00313760  0.0909302   0.060463507
 22    -38.3712199396  -0.005650822326 0.05460361  0.00589863  0.1057668   0.060455415
 23    -38.3947712252  -0.023551285614 0.10391057  0.00884920  0.1384581   0.068599524
 24    -38.4138016747  -0.019030449525 0.10751758  0.00696549  0.1639016   0.076509006
 25    -38.3747501334   0.039051541397 0.20607031  0.01455595  0.1272755   0.061084630
 26    -38.3559101219   0.018840011478 0.28535574  0.01815672  0.0845786   0.053348263
 27    -38.4219563307  -0.066046208801 0.28658608  0.02344347  0.1690718   0.078910172
 28    -38.5445772338  -0.122620903108 0.07717888  0.00671910  0.2186182   0.100911030
 29    -38.6187630280  -0.074185794260 0.08523759  0.00909516  0.2252313   0.106428818
 30    -38.5378975868   0.080865441278 0.18666428  0.01441300  0.2167099   0.099976742
 31    -38.5547872387  -0.016889651927 0.03549198  0.00342629  0.2121240   0.098839665
 32    -38.5463379016   0.008449337066 0.02476088  0.00275852  0.2134956   0.099154098
 33    -38.5273058697   0.019032031906 0.08972112  0.00823852  0.2096491   0.097040945
 34    -38.5922526429  -0.064946773227 0.07148994  0.00730962  0.2178949   0.102038819
 35    -38.5699147299   0.022337913081 0.08963505  0.00822126  0.2130752   0.100583301
 36    -38.5096146207   0.060300109169 0.20232452  0.01759092  0.2077874   0.095529493
 37    -38.6892033089  -0.179588688159 0.10188615  0.00942231  0.2108350   0.098018328
 38    -38.6045530745   0.084650234403 0.03638492  0.00415874  0.2197577   0.100746565
 39    -38.6336971805  -0.029144106047 0.02406941  0.00371062  0.2196141   0.100944008
               *** Restarting incremental Fock matrix formation ***
                             ****Resetting KDIIS****
 40    -38.6095179458   0.024179234728 0.01957066  0.00182576  0.2194009   0.100540571
 41    -38.6285694235  -0.019051477693 0.02316139  0.00175475  0.2189521   0.100604729
 42    -38.6447002343  -0.016130810805 0.00910300  0.00088508  0.2169064   0.099650471
 43    -38.6407066423   0.003993591947 0.15641383  0.01338979  0.2159751   0.099211251
 44    -38.5095050599   0.131201582443 0.12690431  0.01052721  0.2066286   0.095618238
 45    -38.4151693127   0.094335747230 1.11250231  0.08017291  0.1671152   0.079911032
 46    -38.8961083931  -0.480939080496 0.30702826  0.02781949  0.0748946   0.042179140
 47    -38.8975410922  -0.001432699019 0.25047459  0.01918529  0.0616266   0.034884665
 48    -38.8445891462   0.052951945922 0.33466624  0.02651257  0.1510332   0.073564255
 49    -38.5963518179   0.248237328371 0.27448491  0.02021442  0.2239264   0.100603444
 50    -38.7987157096  -0.202363891750 0.18853782  0.01415025  0.1757332   0.081193143
 51    -38.6685819016   0.130133808015 0.08983775  0.00781512  0.2201272   0.099087529
 52    -38.7479541278  -0.079372226178 0.07422311  0.00502799  0.1921635   0.089614919
 53    -38.7840126288  -0.036058500972 0.00800853  0.00098628  0.1721709   0.081320355
 54    -38.7802611602   0.003751468532 0.05122157  0.00604793  0.1742533   0.082281704
 55    -38.8231481408  -0.042886980620 0.11210918  0.00894586  0.1574992   0.077573388
 56    -38.8504495624  -0.027301421573 0.07482434  0.00923409  0.1201343   0.060632929
 57    -38.9001810863  -0.049731523857 0.12074409  0.01116276  0.0991149   0.056820584
 58    -38.8292444082   0.070936678099 0.04901857  0.00523715  0.1451128   0.070115994
 59    -38.8558860191  -0.026641610917 0.08473072  0.00953347  0.1267794   0.064535676
               *** Restarting incremental Fock matrix formation ***
                             ****Resetting KDIIS****
 60    -38.8789259911  -0.023039971965 0.01873493  0.00204819  0.0948914   0.052879862
 61    -38.8903452655  -0.011419274488 0.02740944  0.00204930  0.0876732   0.051437701
 62    -38.8929144741  -0.002569208571 0.05535746  0.00412954  0.0777285   0.047229392
 63    -38.8985902835  -0.005675809348 0.40308589  0.03989686  0.0569635   0.039331340
 64    -38.8535720390   0.045018244458 0.08633821  0.00794428  0.0708902   0.040493051
 65    -38.8745937086  -0.021021669634 0.13038864  0.01165941  0.0666811   0.033480668
 66    -38.8959694900  -0.021375781317 0.02829014  0.00209898  0.0416319   0.021656275
 67    -38.8970872072  -0.001117717207 0.03179254  0.00290544  0.0363570   0.020314210
 68    -38.8913354611   0.005751746059 0.05389589  0.00526368  0.0454594   0.024366761
 69    -38.8959005158  -0.004565054662 0.03641590  0.00459907  0.0407716   0.022864299
 70    -38.8876680952   0.008232420568 0.19181897  0.01579776  0.0500424   0.025672143
 71    -38.9017047800  -0.014036684793 0.06463422  0.00529295  0.0270763   0.014051503
 72    -38.9060413210  -0.004336541035 0.02560124  0.00305555  0.0086950   0.007408740
 73    -38.9041374086   0.001903912396 0.01925171  0.00233002  0.0086751   0.005492905
 74    -38.9053744056  -0.001236997012 0.02971718  0.00275036  0.0089031   0.005471747
 75    -38.9042382091   0.001136196559 0.01033769  0.00112325  0.0037081   0.003363767
 76    -38.9046744559  -0.000436246772 0.02076891  0.00161151  0.0081555   0.004868828
 77    -38.9046764790  -0.000002023146 0.01995847  0.00193904  0.0040930   0.004022210
 78    -38.9041545456   0.000521933417 0.01042340  0.00113292  0.0023644   0.002135963
 79    -38.9045640809  -0.000409535274 0.01686589  0.00175753  0.0051948   0.003893910
               *** Restarting incremental Fock matrix formation ***
                             ****Resetting KDIIS****
 80    -38.9040801792   0.000483901649 0.00091658  0.00006700  0.0021904   0.001278871
 81    -38.9040932068  -0.000013027623 0.00135936  0.00009007  0.0025245   0.001423017
 82    -38.9040804465   0.000012760291 0.00217888  0.00014488  0.0019759   0.001198905
 83    -38.9040671833   0.000013263255 0.00447764  0.00045661  0.0012946   0.000907424
 84    -38.9040350936   0.000032089656 0.00403475  0.00040331  0.0011731   0.000784263
 85    -38.9040042815   0.000030812086 0.00158199  0.00018877  0.0006429   0.000496810
 86    -38.9040110020  -0.000006720457 0.00058211  0.00005115  0.0006321   0.000422873
 87    -38.9040139182  -0.000002916156 0.00120961  0.00010868  0.0006276   0.000436952
 88    -38.9040194354  -0.000005517207 0.00046353  0.00004656  0.0006370   0.000449974
 89    -38.9040170625   0.000002372834 0.00100724  0.00009896  0.0006391   0.000441047
 90    -38.9040156040   0.000001458579 0.00137385  0.00010595  0.0006621   0.000408376
 91    -38.9040094353   0.000006168626 0.00220295  0.00016137  0.0006647   0.000391514
 92    -38.9040187354  -0.000009300068 0.00094247  0.00006887  0.0006684   0.000388953
 93    -38.9040227275  -0.000003992131 0.00050281  0.00004082  0.0006693   0.000389486
 94    -38.9040247640  -0.000002036486 0.00461228  0.00033540  0.0006702   0.000387414
 95    -38.9040441532  -0.000019389172 0.00163003  0.00011861  0.0006761   0.000388565
 96    -38.9040373144   0.000006838765 0.00085950  0.00006299  0.0006758   0.000388546
 97    -38.9040409261  -0.000003611695 0.00033545  0.00002446  0.0006760   0.000388240
 98    -38.9040395162   0.000001409910 0.00070769  0.00005214  0.0006756   0.000388135
 99    -38.9040425064  -0.000002990167 0.00056975  0.00004375  0.0006743   0.000388088
               *** Restarting incremental Fock matrix formation ***
                             ****Resetting KDIIS****
100    -38.9040449932  -0.000002486841 0.00026835  0.00001992  0.0006744   0.000393114
101    -38.9040461663  -0.000001173126 0.00021962  0.00001658  0.0006745   0.000395821
                          ***Energy convergence achieved***
102    -38.9040470418  -0.000000875477 0.00014485  0.00001267  0.0006749   0.000392675
103    -38.9040475930  -0.000000551161 0.00029782  0.00002521  0.0006757   0.000389092
104    -38.9040487798  -0.000001186864 0.00186323  0.00013582  0.0006772   0.000386917
105    -38.9040566303  -0.000007850436 0.00189802  0.00013871  0.0006814   0.000387490
106    -38.9040486135   0.000008016727 0.00093690  0.00006876  0.0006792   0.000386667
107    -38.9040525056  -0.000003892059 0.00150396  0.00010968  0.0006826   0.000386492
108    -38.9040588376  -0.000006332017 0.00080564  0.00006044  0.0006873   0.000387220
109    -38.9040554167   0.000003420919 0.00038271  0.00002796  0.0006854   0.000386455
110    -38.9040570276  -0.000001610901 0.00086704  0.00006360  0.0006865   0.000386641
111    -38.9040606827  -0.000003655089 0.00060286  0.00004500  0.0006875   0.000387648
112    -38.9040581141   0.000002568615 0.00176445  0.00012887  0.0006845   0.000386265
113    -38.9040654790  -0.000007364893 0.00730701  0.00053261  0.0006851   0.000385666
114    -38.9040961093  -0.000030630315 0.00418465  0.00030520  0.0006924   0.000387347
115    -38.9040785939   0.000017515423 0.00012680  0.00000986  0.0006873   0.000387306
                          ***Energy convergence achieved***
116    -38.9040786301  -0.000000036261 0.00009195  0.00000733  0.0006887   0.000386697

            ***Energy convergence in two consecutive cycles with***
                    ***'reasonable' density convergence***
                       *** signaling convergence ***

                    *** KDIIS BlockDiag ( 0.000 sec) ***

               *****************************************************
               *                     SUCCESS                       *
               *           SCF CONVERGED AFTER 117 CYCLES          *
               *****************************************************

Setting up the final grid:

General Integration Accuracy     IntAcc      ...  4.670
Radial Grid Type                 RadialGrid  ... Gauss-Chebyshev
Angular Grid (max. acc.)         AngularGrid ... Lebedev-302
Angular grid pruning method      GridPruning ... 3 (G Style)
Weight generation scheme         WeightScheme... Becke
Basis function cutoff            BFCut       ...    1.0000e-10
Integration weight cutoff        WCut        ...    1.0000e-14
Grids for H and He will be reduced by one unit

# of grid points (after initial pruning)     ...  19788 (   0.0 sec)
# of grid points (after weights+screening)   ...  19752 (   0.0 sec)
nearest neighbour list constructed           ...    0.0 sec
Grid point re-assignment to atoms done       ...    0.0 sec
Grid point division into batches done        ...    0.1 sec
Reduced shell lists constructed in    0.1 sec

Total number of grid points                  ...    19752
Total number of batches                      ...      311
Average number of points per batch           ...       63
Average number of grid points per atom       ...     3950
Average number of shells per batch           ...     5.81 (41.48%)
Average number of basis functions per batch  ...     9.76 (44.35%)
Average number of large shells per batch     ...     3.78 (65.01%)
Average number of large basis fcns per batch ...     6.46 (66.23%)
Maximum spatial batch extension              ...  20.64, 17.52, 17.01 au
Average spatial batch extension              ...   4.07,  3.96,  3.87 au

Final grid set up in    0.1 sec
Final integration                            ... done (   0.1 sec)
Change in XC energy                          ...     0.000188881
Integrated number of electrons               ...     9.999999411
Previous integrated no of electrons          ...     9.998594089

----------------
TOTAL SCF ENERGY
----------------

Total Energy       :          -38.90389014 Eh           -1058.62867 eV

Components:
Nuclear Repulsion  :            3.05386893 Eh              83.10000 eV
Electronic Energy  :          -41.95775907 Eh           -1141.72867 eV
One Electron Energy:          -57.28897771 Eh           -1558.91234 eV
Two Electron Energy:           15.33121864 Eh             417.18367 eV

Virial components:
Potential Energy   :          -77.93037452 Eh           -2120.59330 eV
Kinetic Energy     :           39.02648438 Eh            1061.96463 eV
Virial Ratio       :            1.99685869


DFT components:
N(Alpha)           :        4.999999705387 electrons
N(Beta)            :        4.999999705387 electrons
N(Total)           :        9.999999410774 electrons
E(XC)              :       -4.047289615378 Eh       

---------------
SCF CONVERGENCE
---------------

  Last Energy change         ...   -3.8650e-07  Tolerance :   1.0000e-06
  Last MAX-Density change    ...    5.1653e-05  Tolerance :   1.0000e-05
  Last RMS-Density change    ...    4.8537e-06  Tolerance :   1.0000e-06
  Last DIIS Error            ...    6.8939e-04  Tolerance :   1.0000e-06

             **** THE GBW FILE WAS UPDATED (Scan_43.gbw) ****
             **** DENSITY FILE WAS UPDATED (Scan_43.scfp.tmp) ****
             **** ENERGY FILE WAS UPDATED (Scan_43.en.tmp) ****
----------------
ORBITAL ENERGIES
----------------

  NO   OCC          E(Eh)            E(eV) 
   0   2.0000     -10.688518      -290.8494 
   1   2.0000      -0.836636       -22.7660 
   2   2.0000      -0.442424       -12.0390 
   3   2.0000      -0.003010        -0.0819 
   4   2.0000       0.000979         0.0266 
   5   0.0000      -0.450486       -12.2583 
   6   0.0000      -0.333637        -9.0787 
   7   0.0000      -0.221394        -6.0244 
   8   0.0000      -0.216649        -5.8953 
   9   0.0000       0.478956        13.0331 
  10   0.0000       0.490254        13.3405 
  11   0.0000       0.498961        13.5774 
  12   0.0000       0.511030        13.9058 
  13   0.0000       0.554907        15.0998 
  14   0.0000       0.665360        18.1054 
  15   0.0000       1.247237        33.9390 
  16   0.0000       1.251182        34.0464 
  17   0.0000       1.555200        42.3192 
  18   0.0000       1.555614        42.3304 
  19   0.0000       1.569287        42.7025 
  20   0.0000       1.571334        42.7582 
  21   0.0000       1.583542        43.0904 

                    ********************************
                    * MULLIKEN POPULATION ANALYSIS *
                    ********************************

-----------------------
MULLIKEN ATOMIC CHARGES
-----------------------
   0 C :    0.593716
   1 H :   -0.999755
   2 H :   -0.999744
   3 H :    0.405796
   4 H :    0.999987
Sum of atomic charges:    0.0000000

--------------------------------
MULLIKEN REDUCED ORBITAL CHARGES
--------------------------------
  0 C s       :     3.997758  s :     3.997758
      pz      :     0.002488  p :     1.408429
      px      :     1.399963
      py      :     0.005978
      dz2     :     0.000017  d :     0.000096
      dxz     :     0.000010
      dyz     :     0.000001
      dx2y2   :     0.000065
      dxy     :     0.000003
  1 H s       :     1.999755  s :     1.999755
  2 H s       :     1.999744  s :     1.999744
  3 H s       :     0.594204  s :     0.594204
  4 H s       :     0.000013  s :     0.000013


                     *******************************
                     * LOEWDIN POPULATION ANALYSIS *
                     *******************************

----------------------
LOEWDIN ATOMIC CHARGES
----------------------
   0 C :    0.593796
   1 H :   -0.999764
   2 H :   -0.999754
   3 H :    0.405736
   4 H :    0.999987

-------------------------------
LOEWDIN REDUCED ORBITAL CHARGES
-------------------------------
  0 C s       :     3.997757  s :     3.997757
      pz      :     0.002482  p :     1.408351
      px      :     1.399901
      py      :     0.005968
      dz2     :     0.000017  d :     0.000096
      dxz     :     0.000010
      dyz     :     0.000001
      dx2y2   :     0.000065
      dxy     :     0.000003
  1 H s       :     1.999764  s :     1.999764
  2 H s       :     1.999754  s :     1.999754
  3 H s       :     0.594264  s :     0.594264
  4 H s       :     0.000013  s :     0.000013


                      *****************************
                      * MAYER POPULATION ANALYSIS *
                      *****************************

  NA   - Mulliken gross atomic population
  ZA   - Total nuclear charge
  QA   - Mulliken gross atomic charge
  VA   - Mayer's total valence
  BVA  - Mayer's bonded valence
  FA   - Mayer's free valence

  ATOM       NA         ZA         QA         VA         BVA        FA
  0 C      5.4063     6.0000     0.5937     0.8363     0.8363    -0.0000
  1 H      1.9998     1.0000    -0.9998     0.0005     0.0005    -0.0000
  2 H      1.9997     1.0000    -0.9997     0.0005     0.0005     0.0000
  3 H      0.5942     1.0000     0.4058     0.8353     0.8353     0.0000
  4 H      0.0000     1.0000     1.0000     0.0000     0.0000     0.0000

  Mayer bond orders larger than 0.1
B(  0-C ,  3-H ) :   0.8353 

-------
TIMINGS
-------

Total SCF time: 0 days 0 hours 0 min 30 sec 

Total time                  ....      30.531 sec
Sum of individual times     ....      29.586 sec  ( 96.9%)

Fock matrix formation       ....      29.289 sec  ( 95.9%)
  XC integration            ....       5.367 sec  ( 18.3% of F)
    Basis function eval.    ....       0.921 sec  ( 17.2% of XC)
    Density eval.           ....       0.226 sec  (  4.2% of XC)
    XC-Functional eval.     ....       1.900 sec  ( 35.4% of XC)
    XC-Potential eval.      ....       0.074 sec  (  1.4% of XC)
Diagonalization             ....       0.031 sec  (  0.1%)
Density matrix formation    ....       0.001 sec  (  0.0%)
Population analysis         ....       0.010 sec  (  0.0%)
Initial guess               ....       0.108 sec  (  0.4%)
Orbital Transformation      ....       0.000 sec  (  0.0%)
Orbital Orthonormalization  ....       0.000 sec  (  0.0%)
DIIS solution               ....       0.000 sec  (  0.0%)
Grid generation             ....       0.147 sec  (  0.5%)


-------------------------------------------------------------------------------
                          DFT DISPERSION CORRECTION                            
                                                                               
                              DFTD3 V3.1  Rev 1                                
                              USING zero damping                               
-------------------------------------------------------------------------------
The omegaB97X-D3 functional is recognized. Fit by Chai et al.
Active option DFTDOPT                   ...         3   

molecular C6(AA) [au] = 319.263367 


            DFT-D V3
 parameters
 s6 scaling factor         :     1.0000 
 rs6 scaling factor        :     1.2810 
 s8 scaling factor         :     1.0000 
 rs8 scaling factor        :     1.0940 
 Damping factor alpha6     :    14.0000 
 Damping factor alpha8     :    16.0000 
 ad hoc parameters k1-k3   :    16.0000     1.3333    -4.0000 

 Edisp/kcal,au: -0.107139370961  -0.000170737437 
 E6   /kcal   :  -0.087401842 
 E8   /kcal   :  -0.019737529 
 % E8         :  18.422293401 

-------------------------   ----------------
Dispersion correction           -0.000170737
-------------------------   ----------------


-------------------------   --------------------
FINAL SINGLE POINT ENERGY       -38.904060872570
-------------------------   --------------------


                            ***************************************
                            *     ORCA property calculations      *
                            ***************************************

                                    ---------------------
                                    Active property flags
                                    ---------------------
   (+) Dipole Moment


------------------------------------------------------------------------------
                       ORCA ELECTRIC PROPERTIES CALCULATION
------------------------------------------------------------------------------

Dipole Moment Calculation                       ... on
Quadrupole Moment Calculation                   ... off
Polarizability Calculation                      ... off
GBWName                                         ... Scan_43.gbw
Electron density file                           ... Scan_43.scfp.tmp

-------------
DIPOLE MOMENT
-------------
                                X             Y             Z
Electronic contribution:    -10.23682       0.17799     -15.07055
Nuclear contribution   :     -0.00000      -0.00001       0.00000
                        -----------------------------------------
Total Dipole Moment    :    -10.23682       0.17799     -15.07055
                        -----------------------------------------
Magnitude (a.u.)       :     18.21938
Magnitude (Debye)      :     46.30997


Timings for individual modules:

Sum of individual times         ...       30.862 sec (=   0.514 min)
GTO integral calculation        ...        0.308 sec (=   0.005 min)   1.0 %
SCF iterations                  ...       30.554 sec (=   0.509 min)  99.0 %
                             ****ORCA TERMINATED NORMALLY****
TOTAL RUN TIME: 0 days 0 hours 0 minutes 31 seconds 186 msec
