
                                 *****************
                                 * O   R   C   A *
                                 *****************

           --- An Ab Initio, DFT and Semiempirical electronic structure package ---

                  #######################################################
                  #                        -***-                        #
                  #  Department of molecular theory and spectroscopy    #
                  #              Directorship: Frank Neese              #
                  # Max Planck Institute for Chemical Energy Conversion #
                  #                  D-45470 Muelheim/Ruhr              #
                  #                       Germany                       #
                  #                                                     #
                  #                  All rights reserved                #
                  #                        -***-                        #
                  #######################################################


                         Program Version 4.0.0.2 - RELEASE -


 With contributions from (in alphabetic order):
   Daniel Aravena         : Magnetic Properties
   Michael Atanasov       : Ab Initio Ligand Field Theory
   Ute Becker             : Parallelization
   Martin Brehm           : Molecular dynamics
   Dmytro Bykov           : SCF Hessian
   Vijay G. Chilkuri      : MRCI spin determinant printing
   Dipayan Datta          : RHF DLPNO-CCSD density
   Achintya Kumar Dutta   : EOM-CC, STEOM-CC
   Dmitry Ganyushin       : Spin-Orbit,Spin-Spin,Magnetic field MRCI
   Yang Guo               : DLPNO-NEVPT2, CIM, IAO-localization
   Andreas Hansen         : Spin unrestricted coupled pair/coupled cluster methods
   Lee Huntington         : MR-EOM, pCC
   Robert Izsak           : Overlap fitted RIJCOSX, COSX-SCS-MP3, EOM
   Christian Kollmar      : KDIIS, OOCD, Brueckner-CCSD(T), CCSD density
   Simone Kossmann        : Meta GGA functionals, TD-DFT gradient, OOMP2, MP2 Hessian
   Martin Krupicka        : AUTO-CI
   Dagmar Lenk            : GEPOL surface
   Dimitrios Liakos       : Extrapolation schemes; parallel MDCI
   Dimitrios Manganas     : ROCIS; embedding schemes
   Dimitrios Pantazis     : SARC Basis sets
   Taras Petrenko         : DFT Hessian,TD-DFT gradient, ASA, ECA, R-Raman, ABS, FL, XAS/XES, NRVS
   Peter Pinski           : DLPNO-MP2
   Christoph Reimann      : Effective Core Potentials
   Marius Retegan         : Local ZFS, SOC
   Christoph Riplinger    : Optimizer, TS searches, QM/MM, DLPNO-CCSD(T), (RO)-DLPNO pert. Triples
   Tobias Risthaus        : Range-separated hybrids, TD-DFT gradient, RPA, STAB
   Michael Roemelt        : Restricted open shell CIS
   Masaaki Saitow         : Open-shell DLPNO
   Barbara Sandhoefer     : DKH picture change effects
   Kantharuban Sivalingam : CASSCF convergence, NEVPT2, FIC-MRCI
   Georgi Stoychev        : AutoAux
   Boris Wezisla          : Elementary symmetry handling
   Frank Wennmohs         : Technical directorship


 We gratefully acknowledge several colleagues who have allowed us to
 interface, adapt or use parts of their codes:
   Stefan Grimme, W. Hujo, H. Kruse,             : VdW corrections, initial TS optimization,
                  C. Bannwarth                     DFT functionals, gCP, sTDA/sTD-DF
   Ed Valeev                                     : LibInt (2-el integral package), F12 methods
   Garnet Chan, S. Sharma, J. Yang, R. Olivares  : DMRG
   Ulf Ekstrom                                   : XCFun DFT Library
   Mihaly Kallay                                 : mrcc  (arbitrary order and MRCC methods)
   Jiri Pittner, Ondrej Demel                    : Mk-CCSD
   Frank Weinhold                                : gennbo (NPA and NBO analysis)
   Christopher J. Cramer and Donald G. Truhlar   : smd solvation model


 Your calculation uses the libint2 library for the computation of 2-el integrals
 For citations please refer to: http://libint.valeyev.net

 This ORCA versions uses:
   CBLAS   interface :  Fast vector & matrix operations
   LAPACKE interface :  Fast linear algebra routines
   SCALAPACK package :  Parallel linear algebra routines


Your calculation utilizes the atom-pairwise dispersion correction
with the zero-damping scheme (D30)
Cite in your paper:
S.Grimme, J.Antony, S.Ehrlich and H.Krieg, J.Chem.Phys., 132, (2010), 154104 
   

XCFun DFT library Copyright 2009-2010 Ulf Ekstrom and contributors.
See http://admol.org/xcfun for more information. This is free soft-
ware; see the source code for copying conditions. There is ABSOLUTELY
NO WARRANTY; not even for MERCHANTABILITY or FITNESS FOR A PARTICULAR
PURPOSE. For details see the documentation. Scientific users of this 
library should cite U. Ekstrom, L. Visscher, R. Bast, A. J. Thorvald-
sen and K. Ruud; J.Chem.Theor.Comp. 2010, DOI: 10.1021/ct100117s
XCFun Version 0.99 
Your calculation utilizes the basis: 6-31G(d)
   H-He, Li-Ne : W. J. Hehre, R. Ditchfield and J.A. Pople, J. Chem. Phys. 56, 2257 (1972).
                 Note: He and Ne are unpublished basis sets taken from the Gaussian program.
                 Note: Li and B from J. D. Dill and J. A. Pople, J. Chem. Phys. 62, 2921 (1975).
   Na - Ar     : M. M. Francl, W. J. Pietro, W. J. Hehre, J. S. Binkley, M. S. Gordon, 
                 D. J. DeFrees and J. A. Pople, J. Chem. Phys. 77, 3654 (1982).
   K - Zn      : V. A. Rassolov, J. A. Pople, M. A. Ratner, and T. L. Windus, J. Chem. Phys. 109, 1223 (1998).

================================================================================
                                        WARNINGS
                       Please study these warnings very carefully!
================================================================================

Warning: TCutStore was < 0. Adjusted to Thresh (uncritical)

INFO   : the flag for use of LIBINT has been found!

================================================================================
                                       INPUT FILE
================================================================================
NAME = initial44.inp
|  1> ! WB97X-D3 6-31G(d) VerySlowConv
|  2> ! KDIIS NOSOSCF
|  3> %base "Scan_44"
|  4> 
|  5> %scf
|  6> maxiter 999
|  7> end
|  8> 
|  9> * xyz 0 1
| 10> C         -4.472707991088    1.925921826497    0.000001474782
| 11> H          0.424986347576    1.925914175085   -0.000018004907
| 12> H         -6.105253001354    3.208895357007    4.435786134172
| 13> H         -6.105280531301   -2.557060618097   -1.106788990885
| 14> H         -6.105284823832    5.125929259508   -3.328970613163
| 15> **                         ****END OF INPUT****
================================================================================

                       ****************************
                       * Single Point Calculation *
                       ****************************

---------------------------------
CARTESIAN COORDINATES (ANGSTROEM)
---------------------------------
  C     -4.472708    1.925922    0.000001
  H      0.424986    1.925914   -0.000018
  H     -6.105253    3.208895    4.435786
  H     -6.105281   -2.557061   -1.106789
  H     -6.105285    5.125929   -3.328971

----------------------------
CARTESIAN COORDINATES (A.U.)
----------------------------
  NO LB      ZA    FRAG     MASS         X           Y           Z
   0 C     6.0000    0    12.011   -8.452193    3.639465    0.000003
   1 H     1.0000    0     1.008    0.803108    3.639450   -0.000034
   2 H     1.0000    0     1.008  -11.537256    6.063933    8.382421
   3 H     1.0000    0     1.008  -11.537308   -4.832144   -2.091528
   4 H     1.0000    0     1.008  -11.537316    9.686602   -6.290843

--------------------------------
INTERNAL COORDINATES (ANGSTROEM)
--------------------------------
 C      0   0   0     0.000000000000     0.00000000     0.00000000
 H      1   0   0     4.897694338709     0.00000000     0.00000000
 H      1   2   0     4.897694338667   109.47121912     0.00000000
 H      1   2   3     4.897694338409   109.47117541   240.00008897
 H      1   2   3     4.897694340040   109.47126793   120.00009022

---------------------------
INTERNAL COORDINATES (A.U.)
---------------------------
 C      0   0   0     0.000000000000     0.00000000     0.00000000
 H      1   0   0     9.255300987816     0.00000000     0.00000000
 H      1   2   0     9.255300987738   109.47121912     0.00000000
 H      1   2   3     9.255300987250   109.47117541   240.00008897
 H      1   2   3     9.255300990331   109.47126793   120.00009022

---------------------
BASIS SET INFORMATION
---------------------
There are 2 groups of distinct atoms

 Group   1 Type C   : 10s4p1d contracted to 3s2p1d pattern {631/31/1}
 Group   2 Type H   : 4s contracted to 2s pattern {31}

Atom   0C    basis set group =>   1
Atom   1H    basis set group =>   2
Atom   2H    basis set group =>   2
Atom   3H    basis set group =>   2
Atom   4H    basis set group =>   2
------------------------------------------------------------------------------
                           ORCA GTO INTEGRAL CALCULATION
------------------------------------------------------------------------------

                         BASIS SET STATISTICS AND STARTUP INFO

 # of primitive gaussian shells          ...   31
 # of primitive gaussian functions       ...   43
 # of contracted shells                  ...   14
 # of contracted basis functions         ...   22
 Highest angular momentum                ...    2
 Maximum contraction depth               ...    6
 Integral package used                   ... LIBINT
 Integral threshhold            Thresh   ...  1.000e-10
 Primitive cut-off              TCut     ...  1.000e-11


------------------------------ INTEGRAL EVALUATION ----------------------------


 * One electron integrals 
 Pre-screening matrix                    ... done
 Shell pair data                         ... done (   0.000 sec)

-------------------------------------------------------------------------------
                                 ORCA SCF
-------------------------------------------------------------------------------

------------
SCF SETTINGS
------------
Hamiltonian:
 Density Functional     Method          .... DFT(GTOs)
 Exchange Functional    Exchange        .... WB97X-D3
 Correlation Functional Correlation     .... WB97X-D3
 Gradients option       PostSCFGGA      .... off
 Hybrid DFT is turned on
   Fraction HF Exchange ScalHFX         ....  0.195728
   Scaling of DF-GGA-X  ScalDFX         ....  0.000000
   Scaling of DF-GGA-C  ScalDFC         ....  1.000000
   Scaling of DF-LDA-C  ScalLDAC        ....  1.000000
   Perturbative correction              ....  0.000000
 Long-range corrected/Screened/Range-Separated Hybrid DFT is turned on
   Amount of maximum screened exact exchange              ....  0.804272
   Range separation parameter mu (erf(mu*r12)/r12)        ....  0.250000


General Settings:
 Integral files         IntName         .... Scan_44
 Hartree-Fock type      HFTyp           .... RHF
 Total Charge           Charge          ....    0
 Multiplicity           Mult            ....    1
 Number of Electrons    NEL             ....   10
 Basis Dimension        Dim             ....   22
 Nuclear Repulsion      ENuc            ....      2.9900955841 Eh

Convergence Acceleration:
 DIIS                   CNVDIIS         .... on
   Start iteration      DIISMaxIt       ....     0
   Startup error        DIISStart       ....  0.200000
   # of expansion vecs  DIISMaxEq       ....     5
   Bias factor          DIISBfac        ....   1.050
   Max. coefficient     DIISMaxC        ....  10.000
 Newton-Raphson         CNVNR           .... off
 SOSCF                  CNVSOSCF        .... off
 Level Shifting         CNVShift        .... off
 Zerner damping         CNVZerner       .... off
 Static damping         CNVDamp         .... off
 Fernandez-Rico         CNVRico         .... off

SCF Procedure:
 Maximum # iterations   MaxIter         ....   999
 SCF integral mode      SCFMode         .... Direct
   Integral package                     .... LIBINT
 Reset frequeny         DirectResetFreq ....    20
 Integral Threshold     Thresh          ....  1.000e-10 Eh
 Primitive CutOff       TCut            ....  1.000e-11 Eh

Convergence Tolerance:
 Convergence Check Mode ConvCheckMode   .... All-Criteria
 Convergence forced     ConvForced      .... 0
 Energy Change          TolE            ....  1.000e-06 Eh
 Max Density Change     TolMaxP         ....  1.000e-05
 RMS Density Change     TolRMSP         ....  1.000e-06
 DIIS Error             TolErr          ....  1.000e-06


Diagonalization of the overlap matrix:
Smallest eigenvalue                        ... 1.869e-01
Time for diagonalization                   ...    0.000 sec
Threshold for overlap eigenvalues          ... 1.000e-08
Number of eigenvalues below threshold      ... 0
Time for construction of square roots      ...    0.005 sec
Total time needed                          ...    0.005 sec

-------------------
DFT GRID GENERATION
-------------------

General Integration Accuracy     IntAcc      ...  4.340
Radial Grid Type                 RadialGrid  ... Gauss-Chebyshev
Angular Grid (max. acc.)         AngularGrid ... Lebedev-110
Angular grid pruning method      GridPruning ... 3 (G Style)
Weight generation scheme         WeightScheme... Becke
Basis function cutoff            BFCut       ...    1.0000e-10
Integration weight cutoff        WCut        ...    1.0000e-14
Grids for H and He will be reduced by one unit

# of grid points (after initial pruning)     ...   4832 (   0.0 sec)
# of grid points (after weights+screening)   ...   4817 (   0.0 sec)
nearest neighbour list constructed           ...    0.0 sec
Grid point re-assignment to atoms done       ...    0.0 sec
Grid point division into batches done        ...    0.0 sec
Reduced shell lists constructed in    0.0 sec

Total number of grid points                  ...     4817
Total number of batches                      ...       78
Average number of points per batch           ...       61
Average number of grid points per atom       ...      963
Average number of shells per batch           ...     6.99 (49.91%)
Average number of basis functions per batch  ...    11.85 (53.86%)
Average number of large shells per batch     ...     4.28 (61.23%)
Average number of large basis fcns per batch ...     7.32 (61.75%)
Maximum spatial batch extension              ...  22.06, 25.60, 18.77 au
Average spatial batch extension              ...   6.76,  6.32,  5.80 au

Time for grid setup =    0.024 sec

------------------------------
INITIAL GUESS: MODEL POTENTIAL
------------------------------
Loading Hartree-Fock densities                     ... done
Calculating cut-offs                               ... done
Setting up the integral package                    ... done
Initializing the effective Hamiltonian             ... done
Starting the Coulomb interaction                   ... done (   0.0 sec)
Reading the grid                                   ... done
Mapping shells                                     ... done
Starting the XC term evaluation                    ... done (   0.0 sec)
  promolecular density results
     # of electrons  =      9.997739547
     EX              =     -5.945196249
     EC              =     -0.216457793
     EX+EC           =     -6.161654042
Transforming the Hamiltonian                       ... done (   0.0 sec)
Diagonalizing the Hamiltonian                      ... done (   0.0 sec)
Back transforming the eigenvectors                 ... done (   0.0 sec)
Now organizing SCF variables                       ... done
                      ------------------
                      INITIAL GUESS DONE (   0.1 sec)
                      ------------------
--------------
SCF ITERATIONS
--------------
ITER       Energy         Delta-E        Max-DP      RMS-DP      [F,P]   Gradient Norm
               ***  Starting incremental Fock matrix formation  ***
                             ****Resetting KDIIS****
                             ****Turning on KDIIS(Cayley)****
  0    -38.1537465737   0.000000000000 0.05543155  0.00494853  0.2172140   0.152400884
  1    -38.1895501458  -0.035803572172 0.09471842  0.00888122  0.1979271   0.138146305
  2    -38.2459576482  -0.056407502348 0.17288663  0.01475268  0.1630703   0.113102040
  3    -38.3110295245  -0.065071876266 0.30572578  0.02436583  0.1002597   0.076678286
  4    -38.3796651161  -0.068635591678 0.02380896  0.00310096  0.1175866   0.053142877
  5    -38.3715118687   0.008153247471 0.03162842  0.00359401  0.1091969   0.050411375
  6    -38.3623304036   0.009181465059 0.13575841  0.00905675  0.1031769   0.046599913
  7    -38.4282061623  -0.065875758670 0.18694222  0.01465442  0.1384770   0.065067598
  8    -38.3334688763   0.094737285993 0.22170947  0.01742397  0.0590455   0.028459820
  9    -38.4496796034  -0.116210727089 0.10252978  0.00642744  0.1442188   0.065522889
 10    -38.4989443022  -0.049264698800 0.02517875  0.00194798  0.1407450   0.064417310
 11    -38.5100785914  -0.011134289226 0.23499537  0.01365838  0.1366813   0.062548840
 12    -38.5850051230  -0.074926531643 0.01319997  0.00081111  0.0754564   0.038253680
 13    -38.5821084346   0.002896688430 0.06256872  0.00359165  0.0796926   0.039914584
 14    -38.5660299120   0.016078522574 0.06409716  0.00376660  0.1007007   0.047692077
 15    -38.5820645490  -0.016034636992 0.11201925  0.00670542  0.0806752   0.039785030
 16    -38.5516954176   0.030369131443 0.34225739  0.02035184  0.1128650   0.053011585
 17    -38.6103987418  -0.058703324232 0.11432478  0.00887881  0.0332776   0.020633126
 18    -38.6168798031  -0.006481061309 0.01555706  0.00209418  0.0244574   0.020483021
 19    -38.6130176132   0.003862189913 0.03158207  0.00298348  0.0245549   0.014493292
               *** Restarting incremental Fock matrix formation ***
                             ****Resetting KDIIS****
 20    -38.6158897826  -0.002872169357 0.00646785  0.00074977  0.0202599   0.013161216
 21    -38.6173790185  -0.001489235894 0.01019890  0.00080736  0.0245263   0.015879885
 22    -38.6170649587   0.000314059777 0.01614189  0.00145327  0.0242366   0.014370208
 23    -38.6165400278   0.000524930894 0.04075454  0.00330430  0.0245708   0.012413102
 24    -38.6137239772   0.002816050600 0.01352191  0.00109356  0.0045762   0.002781187
 25    -38.6134822992   0.000241678022 0.00315139  0.00039593  0.0011114   0.000944871
 26    -38.6134865057  -0.000004206480 0.00283619  0.00023141  0.0004047   0.000377187
 27    -38.6134978132  -0.000011307574 0.00197133  0.00015847  0.0011694   0.000927090
 28    -38.6134909505   0.000006862722 0.00012712  0.00001350  0.0004954   0.000434013
                          ***Energy convergence achieved***
 29    -38.6134906974   0.000000253065 0.00025313  0.00002877  0.0004644   0.000418008
 30    -38.6134907799  -0.000000082484 0.00037706  0.00004968  0.0003777   0.000397337
 31    -38.6134897750   0.000001004968 0.00223543  0.00023287  0.0003428   0.000312236
 32    -38.6135005469  -0.000010771943 0.00153244  0.00018113  0.0011428   0.000865830
 33    -38.6134904944   0.000010052524 0.00535697  0.00046572  0.0002369   0.000166438
 34    -38.6134942043  -0.000003709906 0.00001236  0.00000123  0.0001964   0.000213909
                          ***Energy convergence achieved***
 35    -38.6134941960   0.000000008238 0.00034042  0.00003890  0.0001959   0.000212825
 36    -38.6134943140  -0.000000117970 0.00198001  0.00018775  0.0002828   0.000215025
 37    -38.6134937682   0.000000545832 0.00087921  0.00007520  0.0003986   0.000289683
 38    -38.6134933867   0.000000381458 0.00218865  0.00021847  0.0002033   0.000191789
 39    -38.6134957708  -0.000002384061 0.00129344  0.00012437  0.0003331   0.000300219
               *** Restarting incremental Fock matrix formation ***
                             ****Resetting KDIIS****
                          ***Energy convergence achieved***
 40    -38.6134961382  -0.000000367418 0.00018607  0.00002103  0.0005296   0.000385706
 41    -38.6134974497  -0.000001311462 0.00025589  0.00002325  0.0006410   0.000480902
 42    -38.6134963894   0.000001060304 0.00032935  0.00003605  0.0005819   0.000393795
 43    -38.6134948275   0.000001561853 0.00065491  0.00006435  0.0003839   0.000253237
                          ***Energy convergence achieved***
 44    -38.6134938534   0.000000974106 0.00009521  0.00001101  0.0000876   0.000059612
 45    -38.6134937882   0.000000065200 0.00023813  0.00002444  0.0000614   0.000049015
 46    -38.6134938009  -0.000000012708 0.00088192  0.00007729  0.0000415   0.000031496
 47    -38.6134939699  -0.000000169030 0.00014898  0.00001046  0.0001053   0.000070218
 48    -38.6134939167   0.000000053253 0.00013731  0.00001272  0.0000502   0.000042806
 49    -38.6134939589  -0.000000042214 0.00044706  0.00004375  0.0000705   0.000060360

            ***Energy convergence in two consecutive cycles with***
                    ***'reasonable' density convergence***
                       *** signaling convergence ***

                    *** KDIIS BlockDiag ( 0.000 sec) ***

               *****************************************************
               *                     SUCCESS                       *
               *           SCF CONVERGED AFTER  50 CYCLES          *
               *****************************************************

Setting up the final grid:

General Integration Accuracy     IntAcc      ...  4.670
Radial Grid Type                 RadialGrid  ... Gauss-Chebyshev
Angular Grid (max. acc.)         AngularGrid ... Lebedev-302
Angular grid pruning method      GridPruning ... 3 (G Style)
Weight generation scheme         WeightScheme... Becke
Basis function cutoff            BFCut       ...    1.0000e-10
Integration weight cutoff        WCut        ...    1.0000e-14
Grids for H and He will be reduced by one unit

# of grid points (after initial pruning)     ...  19788 (   0.0 sec)
# of grid points (after weights+screening)   ...  19755 (   0.0 sec)
nearest neighbour list constructed           ...    0.0 sec
Grid point re-assignment to atoms done       ...    0.0 sec
Grid point division into batches done        ...    0.0 sec
Reduced shell lists constructed in    0.1 sec

Total number of grid points                  ...    19755
Total number of batches                      ...      311
Average number of points per batch           ...       63
Average number of grid points per atom       ...     3951
Average number of shells per batch           ...     5.68 (40.57%)
Average number of basis functions per batch  ...     9.50 (43.18%)
Average number of large shells per batch     ...     3.65 (64.33%)
Average number of large basis fcns per batch ...     6.24 (65.65%)
Maximum spatial batch extension              ...  20.64, 18.04, 17.18 au
Average spatial batch extension              ...   4.07,  3.93,  3.85 au

Final grid set up in    0.1 sec
Final integration                            ... done (   0.1 sec)
Change in XC energy                          ...    -0.000586879
Integrated number of electrons               ...    10.000002505
Previous integrated no of electrons          ...     9.997623687

----------------
TOTAL SCF ENERGY
----------------

Total Energy       :          -38.61408077 Eh           -1050.74256 eV

Components:
Nuclear Repulsion  :            2.99009558 Eh              81.36464 eV
Electronic Energy  :          -41.60417636 Eh           -1132.10719 eV
One Electron Energy:          -53.80030898 Eh           -1463.98083 eV
Two Electron Energy:           12.19613262 Eh             331.87364 eV

Virial components:
Potential Energy   :          -77.01221831 Eh           -2095.60900 eV
Kinetic Energy     :           38.39813754 Eh            1044.86644 eV
Virial Ratio       :            2.00562379


DFT components:
N(Alpha)           :        5.000001252727 electrons
N(Beta)            :        5.000001252727 electrons
N(Total)           :       10.000002505454 electrons
E(XC)              :       -3.895641355622 Eh       

---------------
SCF CONVERGENCE
---------------

  Last Energy change         ...    6.5241e-08  Tolerance :   1.0000e-06
  Last MAX-Density change    ...    8.2761e-05  Tolerance :   1.0000e-05
  Last RMS-Density change    ...    7.4848e-06  Tolerance :   1.0000e-06
  Last DIIS Error            ...    5.3344e-05  Tolerance :   1.0000e-06

             **** THE GBW FILE WAS UPDATED (Scan_44.gbw) ****
             **** DENSITY FILE WAS UPDATED (Scan_44.scfp.tmp) ****
             **** ENERGY FILE WAS UPDATED (Scan_44.en.tmp) ****
----------------
ORBITAL ENERGIES
----------------

  NO   OCC          E(Eh)            E(eV) 
   0   2.0000     -11.525615      -313.6279 
   1   2.0000      -1.409852       -38.3640 
   2   2.0000      -0.345230        -9.3942 
   3   2.0000      -0.060191        -1.6379 
   4   2.0000      -0.060031        -1.6335 
   5   0.0000      -0.778100       -21.1732 
   6   0.0000      -0.776801       -21.1378 
   7   0.0000      -0.775850       -21.1120 
   8   0.0000      -0.279058        -7.5935 
   9   0.0000       0.098868         2.6903 
  10   0.0000       0.100146         2.7251 
  11   0.0000       0.107420         2.9230 
  12   0.0000       0.154208         4.1962 
  13   0.0000       0.770843        20.9757 
  14   0.0000       0.771036        20.9809 
  15   0.0000       0.981050        26.6957 
  16   0.0000       0.981156        26.6986 
  17   0.0000       0.981999        26.7216 
  18   0.0000       0.982964        26.7478 
  19   0.0000       0.983020        26.7493 
  20   0.0000       1.189226        32.3605 
  21   0.0000       1.189247        32.3611 

                    ********************************
                    * MULLIKEN POPULATION ANALYSIS *
                    ********************************

-----------------------
MULLIKEN ATOMIC CHARGES
-----------------------
   0 C :    1.984971
   1 H :   -0.000116
   2 H :   -0.992561
   3 H :   -0.992561
   4 H :    0.000268
Sum of atomic charges:   -0.0000000

--------------------------------
MULLIKEN REDUCED ORBITAL CHARGES
--------------------------------
  0 C s       :     4.000504  s :     4.000504
      pz      :     0.006280  p :     0.014524
      px      :     0.001719
      py      :     0.006525
      dz2     :     0.000000  d :     0.000001
      dxz     :     0.000000
      dyz     :     0.000000
      dx2y2   :     0.000000
      dxy     :     0.000000
  1 H s       :     1.000116  s :     1.000116
  2 H s       :     1.992561  s :     1.992561
  3 H s       :     1.992561  s :     1.992561
  4 H s       :     0.999732  s :     0.999732


                     *******************************
                     * LOEWDIN POPULATION ANALYSIS *
                     *******************************

----------------------
LOEWDIN ATOMIC CHARGES
----------------------
   0 C :    1.985103
   1 H :   -0.000119
   2 H :   -0.992624
   3 H :   -0.992625
   4 H :    0.000265

-------------------------------
LOEWDIN REDUCED ORBITAL CHARGES
-------------------------------
  0 C s       :     4.000477  s :     4.000477
      pz      :     0.006235  p :     0.014419
      px      :     0.001705
      py      :     0.006479
      dz2     :     0.000000  d :     0.000001
      dxz     :     0.000000
      dyz     :     0.000000
      dx2y2   :     0.000000
      dxy     :     0.000000
  1 H s       :     1.000119  s :     1.000119
  2 H s       :     1.992624  s :     1.992624
  3 H s       :     1.992625  s :     1.992625
  4 H s       :     0.999735  s :     0.999735


                      *****************************
                      * MAYER POPULATION ANALYSIS *
                      *****************************

  NA   - Mulliken gross atomic population
  ZA   - Total nuclear charge
  QA   - Mulliken gross atomic charge
  VA   - Mayer's total valence
  BVA  - Mayer's bonded valence
  FA   - Mayer's free valence

  ATOM       NA         ZA         QA         VA         BVA        FA
  0 C      4.0150     6.0000     1.9850     0.0299     0.0299    -0.0000
  1 H      1.0001     1.0000    -0.0001     1.0000     1.0000    -0.0000
  2 H      1.9926     1.0000    -0.9926     0.0148     0.0148    -0.0000
  3 H      1.9926     1.0000    -0.9926     0.0148     0.0148    -0.0000
  4 H      0.9997     1.0000     0.0003     1.0000     1.0000    -0.0000

  Mayer bond orders larger than 0.1
B(  1-H ,  4-H ) :   0.9998 

-------
TIMINGS
-------

Total SCF time: 0 days 0 hours 0 min 13 sec 

Total time                  ....      13.100 sec
Sum of individual times     ....      12.638 sec  ( 96.5%)

Fock matrix formation       ....      12.357 sec  ( 94.3%)
  XC integration            ....       2.321 sec  ( 18.8% of F)
    Basis function eval.    ....       0.392 sec  ( 16.9% of XC)
    Density eval.           ....       0.095 sec  (  4.1% of XC)
    XC-Functional eval.     ....       0.807 sec  ( 34.8% of XC)
    XC-Potential eval.      ....       0.029 sec  (  1.2% of XC)
Diagonalization             ....       0.026 sec  (  0.2%)
Density matrix formation    ....       0.000 sec  (  0.0%)
Population analysis         ....       0.010 sec  (  0.1%)
Initial guess               ....       0.103 sec  (  0.8%)
Orbital Transformation      ....       0.000 sec  (  0.0%)
Orbital Orthonormalization  ....       0.000 sec  (  0.0%)
DIIS solution               ....       0.000 sec  (  0.0%)
Grid generation             ....       0.142 sec  (  1.1%)


-------------------------------------------------------------------------------
                          DFT DISPERSION CORRECTION                            
                                                                               
                              DFTD3 V3.1  Rev 1                                
                              USING zero damping                               
-------------------------------------------------------------------------------
The omegaB97X-D3 functional is recognized. Fit by Chai et al.
Active option DFTDOPT                   ...         3   

molecular C6(AA) [au] = 319.263426 


            DFT-D V3
 parameters
 s6 scaling factor         :     1.0000 
 rs6 scaling factor        :     1.2810 
 s8 scaling factor         :     1.0000 
 rs8 scaling factor        :     1.0940 
 Damping factor alpha6     :    14.0000 
 Damping factor alpha8     :    16.0000 
 ad hoc parameters k1-k3   :    16.0000     1.3333    -4.0000 

 Edisp/kcal,au: -0.093978898681  -0.000149764892 
 E6   /kcal   :  -0.077305001 
 E8   /kcal   :  -0.016673898 
 % E8         :  17.742172243 

-------------------------   ----------------
Dispersion correction           -0.000149765
-------------------------   ----------------


-------------------------   --------------------
FINAL SINGLE POINT ENERGY       -38.614230537144
-------------------------   --------------------


                            ***************************************
                            *     ORCA property calculations      *
                            ***************************************

                                    ---------------------
                                    Active property flags
                                    ---------------------
   (+) Dipole Moment


------------------------------------------------------------------------------
                       ORCA ELECTRIC PROPERTIES CALCULATION
------------------------------------------------------------------------------

Dipole Moment Calculation                       ... on
Quadrupole Moment Calculation                   ... off
Polarizability Calculation                      ... off
GBWName                                         ... Scan_44.gbw
Electron density file                           ... Scan_44.scfp.tmp

-------------
DIPOLE MOMENT
-------------
                                X             Y             Z
Electronic contribution:      6.08904       5.97119      -6.21186
Nuclear contribution   :     -0.00000      -0.00001       0.00000
                        -----------------------------------------
Total Dipole Moment    :      6.08904       5.97118      -6.21186
                        -----------------------------------------
Magnitude (a.u.)       :     10.55076
Magnitude (Debye)      :     26.81790


Timings for individual modules:

Sum of individual times         ...       13.425 sec (=   0.224 min)
GTO integral calculation        ...        0.303 sec (=   0.005 min)   2.3 %
SCF iterations                  ...       13.123 sec (=   0.219 min)  97.7 %
                             ****ORCA TERMINATED NORMALLY****
TOTAL RUN TIME: 0 days 0 hours 0 minutes 13 seconds 742 msec
