
                                 *****************
                                 * O   R   C   A *
                                 *****************

           --- An Ab Initio, DFT and Semiempirical electronic structure package ---

                  #######################################################
                  #                        -***-                        #
                  #  Department of molecular theory and spectroscopy    #
                  #              Directorship: Frank Neese              #
                  # Max Planck Institute for Chemical Energy Conversion #
                  #                  D-45470 Muelheim/Ruhr              #
                  #                       Germany                       #
                  #                                                     #
                  #                  All rights reserved                #
                  #                        -***-                        #
                  #######################################################


                         Program Version 4.0.0.2 - RELEASE -


 With contributions from (in alphabetic order):
   Daniel Aravena         : Magnetic Properties
   Michael Atanasov       : Ab Initio Ligand Field Theory
   Ute Becker             : Parallelization
   Martin Brehm           : Molecular dynamics
   Dmytro Bykov           : SCF Hessian
   Vijay G. Chilkuri      : MRCI spin determinant printing
   Dipayan Datta          : RHF DLPNO-CCSD density
   Achintya Kumar Dutta   : EOM-CC, STEOM-CC
   Dmitry Ganyushin       : Spin-Orbit,Spin-Spin,Magnetic field MRCI
   Yang Guo               : DLPNO-NEVPT2, CIM, IAO-localization
   Andreas Hansen         : Spin unrestricted coupled pair/coupled cluster methods
   Lee Huntington         : MR-EOM, pCC
   Robert Izsak           : Overlap fitted RIJCOSX, COSX-SCS-MP3, EOM
   Christian Kollmar      : KDIIS, OOCD, Brueckner-CCSD(T), CCSD density
   Simone Kossmann        : Meta GGA functionals, TD-DFT gradient, OOMP2, MP2 Hessian
   Martin Krupicka        : AUTO-CI
   Dagmar Lenk            : GEPOL surface
   Dimitrios Liakos       : Extrapolation schemes; parallel MDCI
   Dimitrios Manganas     : ROCIS; embedding schemes
   Dimitrios Pantazis     : SARC Basis sets
   Taras Petrenko         : DFT Hessian,TD-DFT gradient, ASA, ECA, R-Raman, ABS, FL, XAS/XES, NRVS
   Peter Pinski           : DLPNO-MP2
   Christoph Reimann      : Effective Core Potentials
   Marius Retegan         : Local ZFS, SOC
   Christoph Riplinger    : Optimizer, TS searches, QM/MM, DLPNO-CCSD(T), (RO)-DLPNO pert. Triples
   Tobias Risthaus        : Range-separated hybrids, TD-DFT gradient, RPA, STAB
   Michael Roemelt        : Restricted open shell CIS
   Masaaki Saitow         : Open-shell DLPNO
   Barbara Sandhoefer     : DKH picture change effects
   Kantharuban Sivalingam : CASSCF convergence, NEVPT2, FIC-MRCI
   Georgi Stoychev        : AutoAux
   Boris Wezisla          : Elementary symmetry handling
   Frank Wennmohs         : Technical directorship


 We gratefully acknowledge several colleagues who have allowed us to
 interface, adapt or use parts of their codes:
   Stefan Grimme, W. Hujo, H. Kruse,             : VdW corrections, initial TS optimization,
                  C. Bannwarth                     DFT functionals, gCP, sTDA/sTD-DF
   Ed Valeev                                     : LibInt (2-el integral package), F12 methods
   Garnet Chan, S. Sharma, J. Yang, R. Olivares  : DMRG
   Ulf Ekstrom                                   : XCFun DFT Library
   Mihaly Kallay                                 : mrcc  (arbitrary order and MRCC methods)
   Jiri Pittner, Ondrej Demel                    : Mk-CCSD
   Frank Weinhold                                : gennbo (NPA and NBO analysis)
   Christopher J. Cramer and Donald G. Truhlar   : smd solvation model


 Your calculation uses the libint2 library for the computation of 2-el integrals
 For citations please refer to: http://libint.valeyev.net

 This ORCA versions uses:
   CBLAS   interface :  Fast vector & matrix operations
   LAPACKE interface :  Fast linear algebra routines
   SCALAPACK package :  Parallel linear algebra routines


Your calculation utilizes the atom-pairwise dispersion correction
with the zero-damping scheme (D30)
Cite in your paper:
S.Grimme, J.Antony, S.Ehrlich and H.Krieg, J.Chem.Phys., 132, (2010), 154104 
   

XCFun DFT library Copyright 2009-2010 Ulf Ekstrom and contributors.
See http://admol.org/xcfun for more information. This is free soft-
ware; see the source code for copying conditions. There is ABSOLUTELY
NO WARRANTY; not even for MERCHANTABILITY or FITNESS FOR A PARTICULAR
PURPOSE. For details see the documentation. Scientific users of this 
library should cite U. Ekstrom, L. Visscher, R. Bast, A. J. Thorvald-
sen and K. Ruud; J.Chem.Theor.Comp. 2010, DOI: 10.1021/ct100117s
XCFun Version 0.99 
Your calculation utilizes the basis: 6-31G(d)
   H-He, Li-Ne : W. J. Hehre, R. Ditchfield and J.A. Pople, J. Chem. Phys. 56, 2257 (1972).
                 Note: He and Ne are unpublished basis sets taken from the Gaussian program.
                 Note: Li and B from J. D. Dill and J. A. Pople, J. Chem. Phys. 62, 2921 (1975).
   Na - Ar     : M. M. Francl, W. J. Pietro, W. J. Hehre, J. S. Binkley, M. S. Gordon, 
                 D. J. DeFrees and J. A. Pople, J. Chem. Phys. 77, 3654 (1982).
   K - Zn      : V. A. Rassolov, J. A. Pople, M. A. Ratner, and T. L. Windus, J. Chem. Phys. 109, 1223 (1998).

================================================================================
                                        WARNINGS
                       Please study these warnings very carefully!
================================================================================

Warning: TCutStore was < 0. Adjusted to Thresh (uncritical)

INFO   : the flag for use of LIBINT has been found!

================================================================================
                                       INPUT FILE
================================================================================
NAME = initial45.inp
|  1> ! WB97X-D3 6-31G(d) VerySlowConv
|  2> ! KDIIS NOSOSCF
|  3> %base "Scan_45"
|  4> 
|  5> %scf
|  6> maxiter 999
|  7> end
|  8> 
|  9> * xyz 0 1
| 10> C         -4.472707992881    1.925921932861    0.000001440441
| 11> H          0.527263399665    1.925913993889   -0.000018402443
| 12> H         -6.139344936419    3.235687278453    4.528417274327
| 13> H         -6.139373007500   -2.650677294616   -1.129901724668
| 14> H         -6.139377462865    5.192754089414   -3.398488587657
| 15> **                         ****END OF INPUT****
================================================================================

                       ****************************
                       * Single Point Calculation *
                       ****************************

---------------------------------
CARTESIAN COORDINATES (ANGSTROEM)
---------------------------------
  C     -4.472708    1.925922    0.000001
  H      0.527263    1.925914   -0.000018
  H     -6.139345    3.235687    4.528417
  H     -6.139373   -2.650677   -1.129902
  H     -6.139377    5.192754   -3.398489

----------------------------
CARTESIAN COORDINATES (A.U.)
----------------------------
  NO LB      ZA    FRAG     MASS         X           Y           Z
   0 C     6.0000    0    12.011   -8.452193    3.639465    0.000003
   1 H     1.0000    0     1.008    0.996383    3.639450   -0.000035
   2 H     1.0000    0     1.008  -11.601681    6.114563    8.557468
   3 H     1.0000    0     1.008  -11.601734   -5.009054   -2.135205
   4 H     1.0000    0     1.008  -11.601742    9.812883   -6.422213

--------------------------------
INTERNAL COORDINATES (ANGSTROEM)
--------------------------------
 C      0   0   0     0.000000000000     0.00000000     0.00000000
 H      1   0   0     4.999971392592     0.00000000     0.00000000
 H      1   2   0     4.999971392585   109.47121898     0.00000000
 H      1   2   3     4.999971392160   109.47117363   240.00009234
 H      1   2   3     4.999971393153   109.47126972   120.00009341

---------------------------
INTERNAL COORDINATES (A.U.)
---------------------------
 C      0   0   0     0.000000000000     0.00000000     0.00000000
 H      1   0   0     9.448576609439     0.00000000     0.00000000
 H      1   2   0     9.448576609427   109.47121898     0.00000000
 H      1   2   3     9.448576608624   109.47117363   240.00009234
 H      1   2   3     9.448576610500   109.47126972   120.00009341

---------------------
BASIS SET INFORMATION
---------------------
There are 2 groups of distinct atoms

 Group   1 Type C   : 10s4p1d contracted to 3s2p1d pattern {631/31/1}
 Group   2 Type H   : 4s contracted to 2s pattern {31}

Atom   0C    basis set group =>   1
Atom   1H    basis set group =>   2
Atom   2H    basis set group =>   2
Atom   3H    basis set group =>   2
Atom   4H    basis set group =>   2
------------------------------------------------------------------------------
                           ORCA GTO INTEGRAL CALCULATION
------------------------------------------------------------------------------

                         BASIS SET STATISTICS AND STARTUP INFO

 # of primitive gaussian shells          ...   31
 # of primitive gaussian functions       ...   43
 # of contracted shells                  ...   14
 # of contracted basis functions         ...   22
 Highest angular momentum                ...    2
 Maximum contraction depth               ...    6
 Integral package used                   ... LIBINT
 Integral threshhold            Thresh   ...  1.000e-10
 Primitive cut-off              TCut     ...  1.000e-11


------------------------------ INTEGRAL EVALUATION ----------------------------


 * One electron integrals 
 Pre-screening matrix                    ... done
 Shell pair data                         ... done (   0.000 sec)

-------------------------------------------------------------------------------
                                 ORCA SCF
-------------------------------------------------------------------------------

------------
SCF SETTINGS
------------
Hamiltonian:
 Density Functional     Method          .... DFT(GTOs)
 Exchange Functional    Exchange        .... WB97X-D3
 Correlation Functional Correlation     .... WB97X-D3
 Gradients option       PostSCFGGA      .... off
 Hybrid DFT is turned on
   Fraction HF Exchange ScalHFX         ....  0.195728
   Scaling of DF-GGA-X  ScalDFX         ....  0.000000
   Scaling of DF-GGA-C  ScalDFC         ....  1.000000
   Scaling of DF-LDA-C  ScalLDAC        ....  1.000000
   Perturbative correction              ....  0.000000
 Long-range corrected/Screened/Range-Separated Hybrid DFT is turned on
   Amount of maximum screened exact exchange              ....  0.804272
   Range separation parameter mu (erf(mu*r12)/r12)        ....  0.250000


General Settings:
 Integral files         IntName         .... Scan_45
 Hartree-Fock type      HFTyp           .... RHF
 Total Charge           Charge          ....    0
 Multiplicity           Mult            ....    1
 Number of Electrons    NEL             ....   10
 Basis Dimension        Dim             ....   22
 Nuclear Repulsion      ENuc            ....      2.9289316008 Eh

Convergence Acceleration:
 DIIS                   CNVDIIS         .... on
   Start iteration      DIISMaxIt       ....     0
   Startup error        DIISStart       ....  0.200000
   # of expansion vecs  DIISMaxEq       ....     5
   Bias factor          DIISBfac        ....   1.050
   Max. coefficient     DIISMaxC        ....  10.000
 Newton-Raphson         CNVNR           .... off
 SOSCF                  CNVSOSCF        .... off
 Level Shifting         CNVShift        .... off
 Zerner damping         CNVZerner       .... off
 Static damping         CNVDamp         .... off
 Fernandez-Rico         CNVRico         .... off

SCF Procedure:
 Maximum # iterations   MaxIter         ....   999
 SCF integral mode      SCFMode         .... Direct
   Integral package                     .... LIBINT
 Reset frequeny         DirectResetFreq ....    20
 Integral Threshold     Thresh          ....  1.000e-10 Eh
 Primitive CutOff       TCut            ....  1.000e-11 Eh

Convergence Tolerance:
 Convergence Check Mode ConvCheckMode   .... All-Criteria
 Convergence forced     ConvForced      .... 0
 Energy Change          TolE            ....  1.000e-06 Eh
 Max Density Change     TolMaxP         ....  1.000e-05
 RMS Density Change     TolRMSP         ....  1.000e-06
 DIIS Error             TolErr          ....  1.000e-06


Diagonalization of the overlap matrix:
Smallest eigenvalue                        ... 1.869e-01
Time for diagonalization                   ...    0.001 sec
Threshold for overlap eigenvalues          ... 1.000e-08
Number of eigenvalues below threshold      ... 0
Time for construction of square roots      ...    0.006 sec
Total time needed                          ...    0.006 sec

-------------------
DFT GRID GENERATION
-------------------

General Integration Accuracy     IntAcc      ...  4.340
Radial Grid Type                 RadialGrid  ... Gauss-Chebyshev
Angular Grid (max. acc.)         AngularGrid ... Lebedev-110
Angular grid pruning method      GridPruning ... 3 (G Style)
Weight generation scheme         WeightScheme... Becke
Basis function cutoff            BFCut       ...    1.0000e-10
Integration weight cutoff        WCut        ...    1.0000e-14
Grids for H and He will be reduced by one unit

# of grid points (after initial pruning)     ...   4832 (   0.0 sec)
# of grid points (after weights+screening)   ...   4817 (   0.0 sec)
nearest neighbour list constructed           ...    0.0 sec
Grid point re-assignment to atoms done       ...    0.0 sec
Grid point division into batches done        ...    0.0 sec
Reduced shell lists constructed in    0.0 sec

Total number of grid points                  ...     4817
Total number of batches                      ...       78
Average number of points per batch           ...       61
Average number of grid points per atom       ...      963
Average number of shells per batch           ...     6.81 (48.64%)
Average number of basis functions per batch  ...    11.39 (51.78%)
Average number of large shells per batch     ...     4.18 (61.34%)
Average number of large basis fcns per batch ...     7.14 (62.67%)
Maximum spatial batch extension              ...  22.25, 25.60, 17.72 au
Average spatial batch extension              ...   6.91,  6.28,  5.85 au

Time for grid setup =    0.025 sec

------------------------------
INITIAL GUESS: MODEL POTENTIAL
------------------------------
Loading Hartree-Fock densities                     ... done
Calculating cut-offs                               ... done
Setting up the integral package                    ... done
Initializing the effective Hamiltonian             ... done
Starting the Coulomb interaction                   ... done (   0.0 sec)
Reading the grid                                   ... done
Mapping shells                                     ... done
Starting the XC term evaluation                    ... done (   0.0 sec)
  promolecular density results
     # of electrons  =      9.997777090
     EX              =     -5.945204119
     EC              =     -0.216458697
     EX+EC           =     -6.161662816
Transforming the Hamiltonian                       ... done (   0.0 sec)
Diagonalizing the Hamiltonian                      ... done (   0.0 sec)
Back transforming the eigenvectors                 ... done (   0.0 sec)
Now organizing SCF variables                       ... done
                      ------------------
                      INITIAL GUESS DONE (   0.1 sec)
                      ------------------
--------------
SCF ITERATIONS
--------------
ITER       Energy         Delta-E        Max-DP      RMS-DP      [F,P]   Gradient Norm
               ***  Starting incremental Fock matrix formation  ***
                             ****Resetting KDIIS****
                             ****Turning on KDIIS(Cayley)****
  0    -38.1407787565   0.000000000000 0.05547186  0.00489199  0.2172805   0.151733124
  1    -38.1742527563  -0.033473999813 0.09585181  0.00888504  0.1980308   0.136997518
  2    -38.2301645932  -0.055911836841 0.15790398  0.01371246  0.1625827   0.112499317
  3    -38.2807704253  -0.050605832122 0.24821457  0.01963588  0.1065752   0.072633951
  4    -38.3093473847  -0.028576959381 0.08641037  0.00565999  0.0273145   0.016337453
  5    -38.3109239976  -0.001576612908 0.00680330  0.00049070  0.0021551   0.001713314
  6    -38.3110356424  -0.000111644792 0.00729608  0.00064865  0.0048485   0.003034837
  7    -38.3109503464   0.000085295999 0.00096068  0.00011166  0.0010351   0.000875275
  8    -38.3109616768  -0.000011330385 0.00268050  0.00033537  0.0014975   0.001079281
  9    -38.3109647894  -0.000003112623 0.00138771  0.00010193  0.0011684   0.000905264
 10    -38.3109600812   0.000004708208 0.00654200  0.00070834  0.0006704   0.000685183
 11    -38.3109862398  -0.000026158650 0.00174098  0.00021020  0.0008634   0.000901045
 12    -38.3109835436   0.000002696168 0.00210053  0.00023432  0.0012163   0.000662950
 13    -38.3109780850   0.000005458626 0.00168619  0.00015702  0.0010385   0.000613113
 14    -38.3109852446  -0.000007159590 0.00295447  0.00027491  0.0014334   0.000839464
 15    -38.3110062300  -0.000020985364 0.00756060  0.00073781  0.0031565   0.001583133
 16    -38.3110133821  -0.000007152169 0.00493894  0.00046939  0.0024369   0.001214271
 17    -38.3109874079   0.000025974244 0.00154631  0.00018569  0.0008117   0.000814357
 18    -38.3109798851   0.000007522785 0.00388043  0.00036308  0.0004913   0.000536262
 19    -38.3110206074  -0.000040722292 0.00324080  0.00032740  0.0018174   0.001752067
               *** Restarting incremental Fock matrix formation ***
                             ****Resetting KDIIS****
 20    -38.3109828697   0.000037737750 0.00025119  0.00003123  0.0003754   0.000372960
 21    -38.3109840142  -0.000001144509 0.00029412  0.00003163  0.0004528   0.000415616
                          ***Energy convergence achieved***
 22    -38.3109841852  -0.000000171027 0.00072889  0.00007613  0.0004141   0.000375811
 23    -38.3109854519  -0.000001266720 0.00985558  0.00106042  0.0004050   0.000350465
 24    -38.3109934645  -0.000008012605 0.00043961  0.00006643  0.0000264   0.000024515
                          ***Energy convergence achieved***
 25    -38.3109935320  -0.000000067496 0.00023144  0.00003367  0.0000696   0.000055422
 26    -38.3109934958   0.000000036193 0.00043296  0.00004916  0.0000282   0.000026693

            ***Energy convergence in two consecutive cycles with***
                    ***'reasonable' density convergence***
                       *** signaling convergence ***

                    *** KDIIS BlockDiag ( 0.000 sec) ***

               *****************************************************
               *                     SUCCESS                       *
               *           SCF CONVERGED AFTER  27 CYCLES          *
               *****************************************************

Setting up the final grid:

General Integration Accuracy     IntAcc      ...  4.670
Radial Grid Type                 RadialGrid  ... Gauss-Chebyshev
Angular Grid (max. acc.)         AngularGrid ... Lebedev-302
Angular grid pruning method      GridPruning ... 3 (G Style)
Weight generation scheme         WeightScheme... Becke
Basis function cutoff            BFCut       ...    1.0000e-10
Integration weight cutoff        WCut        ...    1.0000e-14
Grids for H and He will be reduced by one unit

# of grid points (after initial pruning)     ...  19788 (   0.0 sec)
# of grid points (after weights+screening)   ...  19756 (   0.0 sec)
nearest neighbour list constructed           ...    0.0 sec
Grid point re-assignment to atoms done       ...    0.0 sec
Grid point division into batches done        ...    0.0 sec
Reduced shell lists constructed in    0.1 sec

Total number of grid points                  ...    19756
Total number of batches                      ...      311
Average number of points per batch           ...       63
Average number of grid points per atom       ...     3951
Average number of shells per batch           ...     5.61 (40.09%)
Average number of basis functions per batch  ...     9.48 (43.08%)
Average number of large shells per batch     ...     3.53 (62.94%)
Average number of large basis fcns per batch ...     5.99 (63.24%)
Maximum spatial batch extension              ...  20.64, 18.04, 17.36 au
Average spatial batch extension              ...   4.07,  3.95,  3.88 au

Final grid set up in    0.1 sec
Final integration                            ... done (   0.1 sec)
Change in XC energy                          ...    -0.000518691
Integrated number of electrons               ...    10.000011562
Previous integrated no of electrons          ...     9.997356576

----------------
TOTAL SCF ENERGY
----------------

Total Energy       :          -38.31151221 Eh           -1042.50925 eV

Components:
Nuclear Repulsion  :            2.92893160 Eh              79.70028 eV
Electronic Energy  :          -41.24044381 Eh           -1122.20953 eV
One Electron Energy:          -53.62731055 Eh           -1459.27331 eV
Two Electron Energy:           12.38686674 Eh             337.06378 eV

Virial components:
Potential Energy   :          -76.50731537 Eh           -2081.86989 eV
Kinetic Energy     :           38.19580316 Eh            1039.36064 eV
Virial Ratio       :            2.00302937


DFT components:
N(Alpha)           :        5.000005780968 electrons
N(Beta)            :        5.000005780968 electrons
N(Total)           :       10.000011561935 electrons
E(XC)              :       -3.932979955819 Eh       

---------------
SCF CONVERGENCE
---------------

  Last Energy change         ...   -2.0038e-08  Tolerance :   1.0000e-06
  Last MAX-Density change    ...    7.3647e-05  Tolerance :   1.0000e-05
  Last RMS-Density change    ...    7.2647e-06  Tolerance :   1.0000e-06
  Last DIIS Error            ...    1.3225e-05  Tolerance :   1.0000e-06

             **** THE GBW FILE WAS UPDATED (Scan_45.gbw) ****
             **** DENSITY FILE WAS UPDATED (Scan_45.scfp.tmp) ****
             **** ENERGY FILE WAS UPDATED (Scan_45.en.tmp) ****
----------------
ORBITAL ENERGIES
----------------

  NO   OCC          E(Eh)            E(eV) 
   0   2.0000     -11.529243      -313.7266 
   1   2.0000      -1.413729       -38.4695 
   2   2.0000      -0.056461        -1.5364 
   3   2.0000      -0.056382        -1.5342 
   4   2.0000      -0.056175        -1.5286 
   5   0.0000      -0.782421       -21.2907 
   6   0.0000      -0.779609       -21.2142 
   7   0.0000      -0.779597       -21.2139 
   8   0.0000      -0.512801       -13.9540 
   9   0.0000       0.081639         2.2215 
  10   0.0000       0.103283         2.8105 
  11   0.0000       0.103445         2.8149 
  12   0.0000       0.156297         4.2531 
  13   0.0000       0.446612        12.1529 
  14   0.0000       0.976952        26.5842 
  15   0.0000       0.977703        26.6047 
  16   0.0000       0.977719        26.6051 
  17   0.0000       0.979854        26.6632 
  18   0.0000       0.979883        26.6640 
  19   0.0000       1.193065        32.4649 
  20   0.0000       1.193092        32.4657 
  21   0.0000       1.193226        32.4693 

                    ********************************
                    * MULLIKEN POPULATION ANALYSIS *
                    ********************************

-----------------------
MULLIKEN ATOMIC CHARGES
-----------------------
   0 C :    1.982321
   1 H :   -0.994092
   2 H :   -0.994111
   3 H :   -0.994119
   4 H :    1.000000
Sum of atomic charges:    0.0000000

--------------------------------
MULLIKEN REDUCED ORBITAL CHARGES
--------------------------------
  0 C s       :     3.999443  s :     3.999443
      pz      :     0.005499  p :     0.018233
      px      :     0.007085
      py      :     0.005648
      dz2     :     0.000000  d :     0.000003
      dxz     :     0.000000
      dyz     :     0.000002
      dx2y2   :     0.000000
      dxy     :     0.000000
  1 H s       :     1.994092  s :     1.994092
  2 H s       :     1.994111  s :     1.994111
  3 H s       :     1.994119  s :     1.994119
  4 H s       :     0.000000  s :     0.000000


                     *******************************
                     * LOEWDIN POPULATION ANALYSIS *
                     *******************************

----------------------
LOEWDIN ATOMIC CHARGES
----------------------
   0 C :    1.982450
   1 H :   -0.994135
   2 H :   -0.994154
   3 H :   -0.994162
   4 H :    1.000000

-------------------------------
LOEWDIN REDUCED ORBITAL CHARGES
-------------------------------
  0 C s       :     3.999415  s :     3.999415
      pz      :     0.005470  p :     0.018132
      px      :     0.007043
      py      :     0.005618
      dz2     :     0.000000  d :     0.000003
      dxz     :     0.000000
      dyz     :     0.000002
      dx2y2   :     0.000000
      dxy     :     0.000000
  1 H s       :     1.994135  s :     1.994135
  2 H s       :     1.994154  s :     1.994154
  3 H s       :     1.994162  s :     1.994162
  4 H s       :     0.000000  s :     0.000000


                      *****************************
                      * MAYER POPULATION ANALYSIS *
                      *****************************

  NA   - Mulliken gross atomic population
  ZA   - Total nuclear charge
  QA   - Mulliken gross atomic charge
  VA   - Mayer's total valence
  BVA  - Mayer's bonded valence
  FA   - Mayer's free valence

  ATOM       NA         ZA         QA         VA         BVA        FA
  0 C      4.0177     6.0000     1.9823     0.0352     0.0352     0.0000
  1 H      1.9941     1.0000    -0.9941     0.0118     0.0118    -0.0000
  2 H      1.9941     1.0000    -0.9941     0.0117     0.0117    -0.0000
  3 H      1.9941     1.0000    -0.9941     0.0117     0.0117     0.0000
  4 H      0.0000     1.0000     1.0000     0.0000     0.0000    -0.0000

  Mayer bond orders larger than 0.1


-------
TIMINGS
-------

Total SCF time: 0 days 0 hours 0 min 9 sec 

Total time                  ....       9.358 sec
Sum of individual times     ....       9.063 sec  ( 96.8%)

Fock matrix formation       ....       8.757 sec  ( 93.6%)
  XC integration            ....       1.351 sec  ( 15.4% of F)
    Basis function eval.    ....       0.222 sec  ( 16.5% of XC)
    Density eval.           ....       0.057 sec  (  4.2% of XC)
    XC-Functional eval.     ....       0.480 sec  ( 35.5% of XC)
    XC-Potential eval.      ....       0.016 sec  (  1.2% of XC)
Diagonalization             ....       0.029 sec  (  0.3%)
Density matrix formation    ....       0.000 sec  (  0.0%)
Population analysis         ....       0.012 sec  (  0.1%)
Initial guess               ....       0.123 sec  (  1.3%)
Orbital Transformation      ....       0.000 sec  (  0.0%)
Orbital Orthonormalization  ....       0.000 sec  (  0.0%)
DIIS solution               ....       0.000 sec  (  0.0%)
Grid generation             ....       0.142 sec  (  1.5%)


-------------------------------------------------------------------------------
                          DFT DISPERSION CORRECTION                            
                                                                               
                              DFTD3 V3.1  Rev 1                                
                              USING zero damping                               
-------------------------------------------------------------------------------
The omegaB97X-D3 functional is recognized. Fit by Chai et al.
Active option DFTDOPT                   ...         3   

molecular C6(AA) [au] = 319.263478 


            DFT-D V3
 parameters
 s6 scaling factor         :     1.0000 
 rs6 scaling factor        :     1.2810 
 s8 scaling factor         :     1.0000 
 rs8 scaling factor        :     1.0940 
 Damping factor alpha6     :    14.0000 
 Damping factor alpha8     :    16.0000 
 ad hoc parameters k1-k3   :    16.0000     1.3333    -4.0000 

 Edisp/kcal,au: -0.082617608584  -0.000131659526 
 E6   /kcal   :  -0.068483210 
 E8   /kcal   :  -0.014134399 
 % E8         :  17.108216063 

-------------------------   ----------------
Dispersion correction           -0.000131660
-------------------------   ----------------


-------------------------   --------------------
FINAL SINGLE POINT ENERGY       -38.311643866015
-------------------------   --------------------


                            ***************************************
                            *     ORCA property calculations      *
                            ***************************************

                                    ---------------------
                                    Active property flags
                                    ---------------------
   (+) Dipole Moment


------------------------------------------------------------------------------
                       ORCA ELECTRIC PROPERTIES CALCULATION
------------------------------------------------------------------------------

Dipole Moment Calculation                       ... on
Quadrupole Moment Calculation                   ... off
Polarizability Calculation                      ... off
GBWName                                         ... Scan_45.gbw
Electron density file                           ... Scan_45.scfp.tmp

-------------
DIPOLE MOMENT
-------------
                                X             Y             Z
Electronic contribution:     -6.24626      12.24360     -12.73693
Nuclear contribution   :     -0.00000      -0.00001       0.00000
                        -----------------------------------------
Total Dipole Moment    :     -6.24626      12.24359     -12.73693
                        -----------------------------------------
Magnitude (a.u.)       :     18.73901
Magnitude (Debye)      :     47.63078


Timings for individual modules:

Sum of individual times         ...        9.798 sec (=   0.163 min)
GTO integral calculation        ...        0.417 sec (=   0.007 min)   4.3 %
SCF iterations                  ...        9.381 sec (=   0.156 min)  95.7 %
                             ****ORCA TERMINATED NORMALLY****
TOTAL RUN TIME: 0 days 0 hours 0 minutes 10 seconds 186 msec
