
                                 *****************
                                 * O   R   C   A *
                                 *****************

           --- An Ab Initio, DFT and Semiempirical electronic structure package ---

                  #######################################################
                  #                        -***-                        #
                  #  Department of molecular theory and spectroscopy    #
                  #              Directorship: Frank Neese              #
                  # Max Planck Institute for Chemical Energy Conversion #
                  #                  D-45470 Muelheim/Ruhr              #
                  #                       Germany                       #
                  #                                                     #
                  #                  All rights reserved                #
                  #                        -***-                        #
                  #######################################################


                         Program Version 4.0.0.2 - RELEASE -


 With contributions from (in alphabetic order):
   Daniel Aravena         : Magnetic Properties
   Michael Atanasov       : Ab Initio Ligand Field Theory
   Ute Becker             : Parallelization
   Martin Brehm           : Molecular dynamics
   Dmytro Bykov           : SCF Hessian
   Vijay G. Chilkuri      : MRCI spin determinant printing
   Dipayan Datta          : RHF DLPNO-CCSD density
   Achintya Kumar Dutta   : EOM-CC, STEOM-CC
   Dmitry Ganyushin       : Spin-Orbit,Spin-Spin,Magnetic field MRCI
   Yang Guo               : DLPNO-NEVPT2, CIM, IAO-localization
   Andreas Hansen         : Spin unrestricted coupled pair/coupled cluster methods
   Lee Huntington         : MR-EOM, pCC
   Robert Izsak           : Overlap fitted RIJCOSX, COSX-SCS-MP3, EOM
   Christian Kollmar      : KDIIS, OOCD, Brueckner-CCSD(T), CCSD density
   Simone Kossmann        : Meta GGA functionals, TD-DFT gradient, OOMP2, MP2 Hessian
   Martin Krupicka        : AUTO-CI
   Dagmar Lenk            : GEPOL surface
   Dimitrios Liakos       : Extrapolation schemes; parallel MDCI
   Dimitrios Manganas     : ROCIS; embedding schemes
   Dimitrios Pantazis     : SARC Basis sets
   Taras Petrenko         : DFT Hessian,TD-DFT gradient, ASA, ECA, R-Raman, ABS, FL, XAS/XES, NRVS
   Peter Pinski           : DLPNO-MP2
   Christoph Reimann      : Effective Core Potentials
   Marius Retegan         : Local ZFS, SOC
   Christoph Riplinger    : Optimizer, TS searches, QM/MM, DLPNO-CCSD(T), (RO)-DLPNO pert. Triples
   Tobias Risthaus        : Range-separated hybrids, TD-DFT gradient, RPA, STAB
   Michael Roemelt        : Restricted open shell CIS
   Masaaki Saitow         : Open-shell DLPNO
   Barbara Sandhoefer     : DKH picture change effects
   Kantharuban Sivalingam : CASSCF convergence, NEVPT2, FIC-MRCI
   Georgi Stoychev        : AutoAux
   Boris Wezisla          : Elementary symmetry handling
   Frank Wennmohs         : Technical directorship


 We gratefully acknowledge several colleagues who have allowed us to
 interface, adapt or use parts of their codes:
   Stefan Grimme, W. Hujo, H. Kruse,             : VdW corrections, initial TS optimization,
                  C. Bannwarth                     DFT functionals, gCP, sTDA/sTD-DF
   Ed Valeev                                     : LibInt (2-el integral package), F12 methods
   Garnet Chan, S. Sharma, J. Yang, R. Olivares  : DMRG
   Ulf Ekstrom                                   : XCFun DFT Library
   Mihaly Kallay                                 : mrcc  (arbitrary order and MRCC methods)
   Jiri Pittner, Ondrej Demel                    : Mk-CCSD
   Frank Weinhold                                : gennbo (NPA and NBO analysis)
   Christopher J. Cramer and Donald G. Truhlar   : smd solvation model


 Your calculation uses the libint2 library for the computation of 2-el integrals
 For citations please refer to: http://libint.valeyev.net

 This ORCA versions uses:
   CBLAS   interface :  Fast vector & matrix operations
   LAPACKE interface :  Fast linear algebra routines
   SCALAPACK package :  Parallel linear algebra routines


Your calculation utilizes the atom-pairwise dispersion correction
with the zero-damping scheme (D30)
Cite in your paper:
S.Grimme, J.Antony, S.Ehrlich and H.Krieg, J.Chem.Phys., 132, (2010), 154104 
   

XCFun DFT library Copyright 2009-2010 Ulf Ekstrom and contributors.
See http://admol.org/xcfun for more information. This is free soft-
ware; see the source code for copying conditions. There is ABSOLUTELY
NO WARRANTY; not even for MERCHANTABILITY or FITNESS FOR A PARTICULAR
PURPOSE. For details see the documentation. Scientific users of this 
library should cite U. Ekstrom, L. Visscher, R. Bast, A. J. Thorvald-
sen and K. Ruud; J.Chem.Theor.Comp. 2010, DOI: 10.1021/ct100117s
XCFun Version 0.99 
Your calculation utilizes the basis: 6-31G(d)
   H-He, Li-Ne : W. J. Hehre, R. Ditchfield and J.A. Pople, J. Chem. Phys. 56, 2257 (1972).
                 Note: He and Ne are unpublished basis sets taken from the Gaussian program.
                 Note: Li and B from J. D. Dill and J. A. Pople, J. Chem. Phys. 62, 2921 (1975).
   Na - Ar     : M. M. Francl, W. J. Pietro, W. J. Hehre, J. S. Binkley, M. S. Gordon, 
                 D. J. DeFrees and J. A. Pople, J. Chem. Phys. 77, 3654 (1982).
   K - Zn      : V. A. Rassolov, J. A. Pople, M. A. Ratner, and T. L. Windus, J. Chem. Phys. 109, 1223 (1998).

================================================================================
                                        WARNINGS
                       Please study these warnings very carefully!
================================================================================

Warning: TCutStore was < 0. Adjusted to Thresh (uncritical)

INFO   : the flag for use of LIBINT has been found!

================================================================================
                                       INPUT FILE
================================================================================
NAME = initial5.inp
|  1> ! WB97X-D3 6-31G(d) VerySlowConv
|  2> ! KDIIS NOSOSCF
|  3> %base "Scan_5"
|  4> 
|  5> %scf
|  6> maxiter 999
|  7> end
|  8> 
|  9> * xyz 0 1
| 10> C         -4.472707999943    1.925920000040    0.000001999861
| 11> H         -3.478100216287    1.925919119199   -0.000002165358
| 12> H         -4.804239924388    2.186462790171    0.900806463101
| 13> H         -4.804245675346    1.015530698832   -0.224761728042
| 14> H         -4.804246184036    2.575767391759   -0.676034569562
| 15> **                         ****END OF INPUT****
================================================================================

                       ****************************
                       * Single Point Calculation *
                       ****************************

---------------------------------
CARTESIAN COORDINATES (ANGSTROEM)
---------------------------------
  C     -4.472708    1.925920    0.000002
  H     -3.478100    1.925919   -0.000002
  H     -4.804240    2.186463    0.900806
  H     -4.804246    1.015531   -0.224762
  H     -4.804246    2.575767   -0.676035

----------------------------
CARTESIAN COORDINATES (A.U.)
----------------------------
  NO LB      ZA    FRAG     MASS         X           Y           Z
   0 C     6.0000    0    12.011   -8.452193    3.639461    0.000004
   1 H     1.0000    0     1.008   -6.572657    3.639460   -0.000004
   2 H     1.0000    0     1.008   -9.078698    4.131816    1.702278
   3 H     1.0000    0     1.008   -9.078709    1.919075   -0.424738
   4 H     1.0000    0     1.008   -9.078710    4.867495   -1.277520

--------------------------------
INTERNAL COORDINATES (ANGSTROEM)
--------------------------------
 C      0   0   0     0.000000000000     0.00000000     0.00000000
 H      1   0   0     0.994607783665     0.00000000     0.00000000
 H      1   2   0     0.994607783706   109.47122061     0.00000000
 H      1   2   3     0.994607783675   109.47122063   240.00000002
 H      1   2   3     0.994607783618   109.47122067   120.00000000

---------------------------
INTERNAL COORDINATES (A.U.)
---------------------------
 C      0   0   0     0.000000000000     0.00000000     0.00000000
 H      1   0   0     1.879536321793     0.00000000     0.00000000
 H      1   2   0     1.879536321871   109.47122061     0.00000000
 H      1   2   3     1.879536321812   109.47122063   240.00000002
 H      1   2   3     1.879536321704   109.47122067   120.00000000

---------------------
BASIS SET INFORMATION
---------------------
There are 2 groups of distinct atoms

 Group   1 Type C   : 10s4p1d contracted to 3s2p1d pattern {631/31/1}
 Group   2 Type H   : 4s contracted to 2s pattern {31}

Atom   0C    basis set group =>   1
Atom   1H    basis set group =>   2
Atom   2H    basis set group =>   2
Atom   3H    basis set group =>   2
Atom   4H    basis set group =>   2
------------------------------------------------------------------------------
                           ORCA GTO INTEGRAL CALCULATION
------------------------------------------------------------------------------

                         BASIS SET STATISTICS AND STARTUP INFO

 # of primitive gaussian shells          ...   31
 # of primitive gaussian functions       ...   43
 # of contracted shells                  ...   14
 # of contracted basis functions         ...   22
 Highest angular momentum                ...    2
 Maximum contraction depth               ...    6
 Integral package used                   ... LIBINT
 Integral threshhold            Thresh   ...  1.000e-10
 Primitive cut-off              TCut     ...  1.000e-11


------------------------------ INTEGRAL EVALUATION ----------------------------


 * One electron integrals 
 Pre-screening matrix                    ... done
 Shell pair data                         ... done (   0.000 sec)

-------------------------------------------------------------------------------
                                 ORCA SCF
-------------------------------------------------------------------------------

------------
SCF SETTINGS
------------
Hamiltonian:
 Density Functional     Method          .... DFT(GTOs)
 Exchange Functional    Exchange        .... WB97X-D3
 Correlation Functional Correlation     .... WB97X-D3
 Gradients option       PostSCFGGA      .... off
 Hybrid DFT is turned on
   Fraction HF Exchange ScalHFX         ....  0.195728
   Scaling of DF-GGA-X  ScalDFX         ....  0.000000
   Scaling of DF-GGA-C  ScalDFC         ....  1.000000
   Scaling of DF-LDA-C  ScalLDAC        ....  1.000000
   Perturbative correction              ....  0.000000
 Long-range corrected/Screened/Range-Separated Hybrid DFT is turned on
   Amount of maximum screened exact exchange              ....  0.804272
   Range separation parameter mu (erf(mu*r12)/r12)        ....  0.250000


General Settings:
 Integral files         IntName         .... Scan_5
 Hartree-Fock type      HFTyp           .... RHF
 Total Charge           Charge          ....    0
 Multiplicity           Mult            ....    1
 Number of Electrons    NEL             ....   10
 Basis Dimension        Dim             ....   22
 Nuclear Repulsion      ENuc            ....     14.7239690413 Eh

Convergence Acceleration:
 DIIS                   CNVDIIS         .... on
   Start iteration      DIISMaxIt       ....     0
   Startup error        DIISStart       ....  0.200000
   # of expansion vecs  DIISMaxEq       ....     5
   Bias factor          DIISBfac        ....   1.050
   Max. coefficient     DIISMaxC        ....  10.000
 Newton-Raphson         CNVNR           .... off
 SOSCF                  CNVSOSCF        .... off
 Level Shifting         CNVShift        .... off
 Zerner damping         CNVZerner       .... off
 Static damping         CNVDamp         .... off
 Fernandez-Rico         CNVRico         .... off

SCF Procedure:
 Maximum # iterations   MaxIter         ....   999
 SCF integral mode      SCFMode         .... Direct
   Integral package                     .... LIBINT
 Reset frequeny         DirectResetFreq ....    20
 Integral Threshold     Thresh          ....  1.000e-10 Eh
 Primitive CutOff       TCut            ....  1.000e-11 Eh

Convergence Tolerance:
 Convergence Check Mode ConvCheckMode   .... All-Criteria
 Convergence forced     ConvForced      .... 0
 Energy Change          TolE            ....  1.000e-06 Eh
 Max Density Change     TolMaxP         ....  1.000e-05
 RMS Density Change     TolRMSP         ....  1.000e-06
 DIIS Error             TolErr          ....  1.000e-06


Diagonalization of the overlap matrix:
Smallest eigenvalue                        ... 1.482e-02
Time for diagonalization                   ...    0.001 sec
Threshold for overlap eigenvalues          ... 1.000e-08
Number of eigenvalues below threshold      ... 0
Time for construction of square roots      ...    0.005 sec
Total time needed                          ...    0.006 sec

-------------------
DFT GRID GENERATION
-------------------

General Integration Accuracy     IntAcc      ...  4.340
Radial Grid Type                 RadialGrid  ... Gauss-Chebyshev
Angular Grid (max. acc.)         AngularGrid ... Lebedev-110
Angular grid pruning method      GridPruning ... 3 (G Style)
Weight generation scheme         WeightScheme... Becke
Basis function cutoff            BFCut       ...    1.0000e-10
Integration weight cutoff        WCut        ...    1.0000e-14
Grids for H and He will be reduced by one unit

# of grid points (after initial pruning)     ...   4832 (   0.0 sec)
# of grid points (after weights+screening)   ...   4697 (   0.0 sec)
nearest neighbour list constructed           ...    0.0 sec
Grid point re-assignment to atoms done       ...    0.0 sec
Grid point division into batches done        ...    0.0 sec
Reduced shell lists constructed in    0.0 sec

Total number of grid points                  ...     4697
Total number of batches                      ...       76
Average number of points per batch           ...       61
Average number of grid points per atom       ...      939
Average number of shells per batch           ...    13.13 (93.78%)
Average number of basis functions per batch  ...    20.64 (93.80%)
Average number of large shells per batch     ...    12.58 (95.85%)
Average number of large basis fcns per batch ...    19.78 (95.85%)
Maximum spatial batch extension              ...  20.99, 25.60, 23.60 au
Average spatial batch extension              ...   5.15,  5.21,  4.73 au

Time for grid setup =    0.030 sec

------------------------------
INITIAL GUESS: MODEL POTENTIAL
------------------------------
Loading Hartree-Fock densities                     ... done
Calculating cut-offs                               ... done
Setting up the integral package                    ... done
Initializing the effective Hamiltonian             ... done
Starting the Coulomb interaction                   ... done (   0.0 sec)
Reading the grid                                   ... done
Mapping shells                                     ... done
Starting the XC term evaluation                    ... done (   0.0 sec)
  promolecular density results
     # of electrons  =      9.999322236
     EX              =     -6.332775622
     EC              =     -0.301024983
     EX+EC           =     -6.633800605
Transforming the Hamiltonian                       ... done (   0.0 sec)
Diagonalizing the Hamiltonian                      ... done (   0.0 sec)
Back transforming the eigenvectors                 ... done (   0.0 sec)
Now organizing SCF variables                       ... done
                      ------------------
                      INITIAL GUESS DONE (   0.2 sec)
                      ------------------
--------------
SCF ITERATIONS
--------------
ITER       Energy         Delta-E        Max-DP      RMS-DP      [F,P]   Gradient Norm
               ***  Starting incremental Fock matrix formation  ***
                             ****Resetting KDIIS****
                             ****Turning on KDIIS(Cayley)****
  0    -40.3704405822   0.000000000000 0.03605428  0.00352698  0.1033488   0.139155857
  1    -40.4038163695  -0.033375787373 0.02713412  0.00295100  0.0857342   0.113195242
  2    -40.4263312371  -0.022514867584 0.04522176  0.00514444  0.0702548   0.092787775
  3    -40.4547350176  -0.028403780478 0.07117656  0.00843380  0.0440570   0.057802019
Warning: badly conditioned DIIS matrix, 1 vectors out of 5 destroyed
  4    -40.4726780664  -0.017943048817 0.00220080  0.00016923  0.0006180   0.000640835
  5    -40.4726796580  -0.000001591628 0.00061079  0.00008841  0.0002535   0.000282112
Warning: badly conditioned DIIS matrix, 1 vectors out of 5 destroyed
                          ***Energy convergence achieved***
  6    -40.4726799402  -0.000000282123 0.00025836  0.00002893  0.0001619   0.000202500
Warning: badly conditioned DIIS matrix, 1 vectors out of 5 destroyed

            ***Energy convergence in two consecutive cycles with***
                    ***'reasonable' density convergence***
                       *** signaling convergence ***

                    *** KDIIS BlockDiag ( 0.000 sec) ***

               *****************************************************
               *                     SUCCESS                       *
               *           SCF CONVERGED AFTER   7 CYCLES          *
               *****************************************************

Setting up the final grid:

General Integration Accuracy     IntAcc      ...  4.670
Radial Grid Type                 RadialGrid  ... Gauss-Chebyshev
Angular Grid (max. acc.)         AngularGrid ... Lebedev-302
Angular grid pruning method      GridPruning ... 3 (G Style)
Weight generation scheme         WeightScheme... Becke
Basis function cutoff            BFCut       ...    1.0000e-10
Integration weight cutoff        WCut        ...    1.0000e-14
Grids for H and He will be reduced by one unit

# of grid points (after initial pruning)     ...  19788 (   0.0 sec)
# of grid points (after weights+screening)   ...  19227 (   0.0 sec)
nearest neighbour list constructed           ...    0.0 sec
Grid point re-assignment to atoms done       ...    0.0 sec
Grid point division into batches done        ...    0.0 sec
Reduced shell lists constructed in    0.1 sec

Total number of grid points                  ...    19227
Total number of batches                      ...      304
Average number of points per batch           ...       63
Average number of grid points per atom       ...     3845
Average number of shells per batch           ...    12.09 (86.32%)
Average number of basis functions per batch  ...    19.04 (86.53%)
Average number of large shells per batch     ...    11.53 (95.39%)
Average number of large basis fcns per batch ...    18.18 (95.49%)
Maximum spatial batch extension              ...  20.64, 20.64, 20.64 au
Average spatial batch extension              ...   3.43,  3.24,  3.10 au

Final grid set up in    0.1 sec
Final integration                            ... done (   0.2 sec)
Change in XC energy                          ...     0.000938163
Integrated number of electrons               ...     9.999995052
Previous integrated no of electrons          ...    10.000699302

----------------
TOTAL SCF ENERGY
----------------

Total Energy       :          -40.47174200 Eh           -1101.29209 eV

Components:
Nuclear Repulsion  :           14.72396904 Eh             400.65957 eV
Electronic Energy  :          -55.19571104 Eh           -1501.95166 eV
One Electron Energy:          -82.20932107 Eh           -2237.02935 eV
Two Electron Energy:           27.01361004 Eh             735.07770 eV

Virial components:
Potential Energy   :          -81.29299048 Eh           -2212.09473 eV
Kinetic Energy     :           40.82124848 Eh            1110.80264 eV
Virial Ratio       :            1.99143812


DFT components:
N(Alpha)           :        4.999997526222 electrons
N(Beta)            :        4.999997526222 electrons
N(Total)           :        9.999995052444 electrons
E(XC)              :       -4.662209134394 Eh       

---------------
SCF CONVERGENCE
---------------

  Last Energy change         ...   -2.1816e-07  Tolerance :   1.0000e-06
  Last MAX-Density change    ...    1.3893e-05  Tolerance :   1.0000e-05
  Last RMS-Density change    ...    1.0460e-06  Tolerance :   1.0000e-06
  Last DIIS Error            ...    2.9336e-06  Tolerance :   1.0000e-06

             **** THE GBW FILE WAS UPDATED (Scan_5.gbw) ****
             **** DENSITY FILE WAS UPDATED (Scan_5.scfp.tmp) ****
             **** ENERGY FILE WAS UPDATED (Scan_5.en.tmp) ****
----------------
ORBITAL ENERGIES
----------------

  NO   OCC          E(Eh)            E(eV) 
   0   2.0000     -10.212065      -277.8844 
   1   2.0000      -0.835499       -22.7351 
   2   2.0000      -0.503040       -13.6884 
   3   2.0000      -0.502983       -13.6869 
   4   2.0000      -0.502927       -13.6854 
   5   0.0000       0.235741         6.4148 
   6   0.0000       0.301863         8.2141 
   7   0.0000       0.301973         8.2171 
   8   0.0000       0.302562         8.2331 
   9   0.0000       0.607401        16.5282 
  10   0.0000       0.608385        16.5550 
  11   0.0000       0.609088        16.5741 
  12   0.0000       1.097995        29.8780 
  13   0.0000       1.098025        29.8788 
  14   0.0000       1.098535        29.8927 
  15   0.0000       1.228609        33.4321 
  16   0.0000       1.243833        33.8464 
  17   0.0000       1.727568        47.0095 
  18   0.0000       1.728042        47.0224 
  19   0.0000       2.488037        67.7029 
  20   0.0000       2.488780        67.7231 
  21   0.0000       2.489144        67.7331 

                    ********************************
                    * MULLIKEN POPULATION ANALYSIS *
                    ********************************

-----------------------
MULLIKEN ATOMIC CHARGES
-----------------------
   0 C :   -0.725662
   1 H :    0.181866
   2 H :    0.181217
   3 H :    0.181190
   4 H :    0.181389
Sum of atomic charges:   -0.0000000

--------------------------------
MULLIKEN REDUCED ORBITAL CHARGES
--------------------------------
  0 C s       :     3.278120  s :     3.278120
      pz      :     1.139155  p :     3.417249
      px      :     1.138950
      py      :     1.139143
      dz2     :     0.007576  d :     0.030293
      dxz     :     0.003371
      dyz     :     0.006702
      dx2y2   :     0.009270
      dxy     :     0.003373
  1 H s       :     0.818134  s :     0.818134
  2 H s       :     0.818783  s :     0.818783
  3 H s       :     0.818810  s :     0.818810
  4 H s       :     0.818611  s :     0.818611


                     *******************************
                     * LOEWDIN POPULATION ANALYSIS *
                     *******************************

----------------------
LOEWDIN ATOMIC CHARGES
----------------------
   0 C :   -0.578422
   1 H :    0.144703
   2 H :    0.144482
   3 H :    0.144507
   4 H :    0.144729

-------------------------------
LOEWDIN REDUCED ORBITAL CHARGES
-------------------------------
  0 C s       :     2.951196  s :     2.951196
      pz      :     1.190585  p :     3.571692
      px      :     1.190529
      py      :     1.190578
      dz2     :     0.013888  d :     0.055533
      dxz     :     0.006174
      dyz     :     0.012312
      dx2y2   :     0.016983
      dxy     :     0.006176
  1 H s       :     0.855297  s :     0.855297
  2 H s       :     0.855518  s :     0.855518
  3 H s       :     0.855493  s :     0.855493
  4 H s       :     0.855271  s :     0.855271


                      *****************************
                      * MAYER POPULATION ANALYSIS *
                      *****************************

  NA   - Mulliken gross atomic population
  ZA   - Total nuclear charge
  QA   - Mulliken gross atomic charge
  VA   - Mayer's total valence
  BVA  - Mayer's bonded valence
  FA   - Mayer's free valence

  ATOM       NA         ZA         QA         VA         BVA        FA
  0 C      6.7257     6.0000    -0.7257     3.8576     3.8576    -0.0000
  1 H      0.8181     1.0000     0.1819     0.9267     0.9267    -0.0000
  2 H      0.8188     1.0000     0.1812     0.9270     0.9270    -0.0000
  3 H      0.8188     1.0000     0.1812     0.9270     0.9270    -0.0000
  4 H      0.8186     1.0000     0.1814     0.9269     0.9269     0.0000

  Mayer bond orders larger than 0.1
B(  0-C ,  1-H ) :   0.9642 B(  0-C ,  2-H ) :   0.9645 B(  0-C ,  3-H ) :   0.9645 
B(  0-C ,  4-H ) :   0.9644 

-------
TIMINGS
-------

Total SCF time: 0 days 0 hours 0 min 3 sec 

Total time                  ....       3.371 sec
Sum of individual times     ....       3.247 sec  ( 96.3%)

Fock matrix formation       ....       2.901 sec  ( 86.0%)
  XC integration            ....       0.607 sec  ( 20.9% of F)
    Basis function eval.    ....       0.197 sec  ( 32.5% of XC)
    Density eval.           ....       0.026 sec  (  4.3% of XC)
    XC-Functional eval.     ....       0.171 sec  ( 28.2% of XC)
    XC-Potential eval.      ....       0.017 sec  (  2.8% of XC)
Diagonalization             ....       0.015 sec  (  0.5%)
Density matrix formation    ....       0.000 sec  (  0.0%)
Population analysis         ....       0.012 sec  (  0.4%)
Initial guess               ....       0.142 sec  (  4.2%)
Orbital Transformation      ....       0.000 sec  (  0.0%)
Orbital Orthonormalization  ....       0.000 sec  (  0.0%)
DIIS solution               ....       0.000 sec  (  0.0%)
Grid generation             ....       0.177 sec  (  5.2%)


-------------------------------------------------------------------------------
                          DFT DISPERSION CORRECTION                            
                                                                               
                              DFTD3 V3.1  Rev 1                                
                              USING zero damping                               
-------------------------------------------------------------------------------
The omegaB97X-D3 functional is recognized. Fit by Chai et al.
Active option DFTDOPT                   ...         3   

molecular C6(AA) [au] = 127.505875 


            DFT-D V3
 parameters
 s6 scaling factor         :     1.0000 
 rs6 scaling factor        :     1.2810 
 s8 scaling factor         :     1.0000 
 rs8 scaling factor        :     1.0940 
 Damping factor alpha6     :    14.0000 
 Damping factor alpha8     :    16.0000 
 ad hoc parameters k1-k3   :    16.0000     1.3333    -4.0000 

 Edisp/kcal,au: -0.007477938461  -0.000011916852 
 E6   /kcal   :  -0.001165559 
 E8   /kcal   :  -0.006312379 
 % E8         :  84.413359238 

-------------------------   ----------------
Dispersion correction           -0.000011917
-------------------------   ----------------


-------------------------   --------------------
FINAL SINGLE POINT ENERGY       -40.471753912246
-------------------------   --------------------


                            ***************************************
                            *     ORCA property calculations      *
                            ***************************************

                                    ---------------------
                                    Active property flags
                                    ---------------------
   (+) Dipole Moment


------------------------------------------------------------------------------
                       ORCA ELECTRIC PROPERTIES CALCULATION
------------------------------------------------------------------------------

Dipole Moment Calculation                       ... on
Quadrupole Moment Calculation                   ... off
Polarizability Calculation                      ... off
GBWName                                         ... Scan_5.gbw
Electron density file                           ... Scan_5.scfp.tmp

-------------
DIPOLE MOMENT
-------------
                                X             Y             Z
Electronic contribution:     -0.00051       0.00006      -0.00015
Nuclear contribution   :     -0.00000      -0.00000       0.00000
                        -----------------------------------------
Total Dipole Moment    :     -0.00051       0.00006      -0.00015
                        -----------------------------------------
Magnitude (a.u.)       :      0.00053
Magnitude (Debye)      :      0.00135


Timings for individual modules:

Sum of individual times         ...        3.814 sec (=   0.064 min)
GTO integral calculation        ...        0.414 sec (=   0.007 min)  10.8 %
SCF iterations                  ...        3.400 sec (=   0.057 min)  89.2 %
                             ****ORCA TERMINATED NORMALLY****
TOTAL RUN TIME: 0 days 0 hours 0 minutes 4 seconds 220 msec
