
                                 *****************
                                 * O   R   C   A *
                                 *****************

           --- An Ab Initio, DFT and Semiempirical electronic structure package ---

                  #######################################################
                  #                        -***-                        #
                  #  Department of molecular theory and spectroscopy    #
                  #              Directorship: Frank Neese              #
                  # Max Planck Institute for Chemical Energy Conversion #
                  #                  D-45470 Muelheim/Ruhr              #
                  #                       Germany                       #
                  #                                                     #
                  #                  All rights reserved                #
                  #                        -***-                        #
                  #######################################################


                         Program Version 4.0.0.2 - RELEASE -


 With contributions from (in alphabetic order):
   Daniel Aravena         : Magnetic Properties
   Michael Atanasov       : Ab Initio Ligand Field Theory
   Ute Becker             : Parallelization
   Martin Brehm           : Molecular dynamics
   Dmytro Bykov           : SCF Hessian
   Vijay G. Chilkuri      : MRCI spin determinant printing
   Dipayan Datta          : RHF DLPNO-CCSD density
   Achintya Kumar Dutta   : EOM-CC, STEOM-CC
   Dmitry Ganyushin       : Spin-Orbit,Spin-Spin,Magnetic field MRCI
   Yang Guo               : DLPNO-NEVPT2, CIM, IAO-localization
   Andreas Hansen         : Spin unrestricted coupled pair/coupled cluster methods
   Lee Huntington         : MR-EOM, pCC
   Robert Izsak           : Overlap fitted RIJCOSX, COSX-SCS-MP3, EOM
   Christian Kollmar      : KDIIS, OOCD, Brueckner-CCSD(T), CCSD density
   Simone Kossmann        : Meta GGA functionals, TD-DFT gradient, OOMP2, MP2 Hessian
   Martin Krupicka        : AUTO-CI
   Dagmar Lenk            : GEPOL surface
   Dimitrios Liakos       : Extrapolation schemes; parallel MDCI
   Dimitrios Manganas     : ROCIS; embedding schemes
   Dimitrios Pantazis     : SARC Basis sets
   Taras Petrenko         : DFT Hessian,TD-DFT gradient, ASA, ECA, R-Raman, ABS, FL, XAS/XES, NRVS
   Peter Pinski           : DLPNO-MP2
   Christoph Reimann      : Effective Core Potentials
   Marius Retegan         : Local ZFS, SOC
   Christoph Riplinger    : Optimizer, TS searches, QM/MM, DLPNO-CCSD(T), (RO)-DLPNO pert. Triples
   Tobias Risthaus        : Range-separated hybrids, TD-DFT gradient, RPA, STAB
   Michael Roemelt        : Restricted open shell CIS
   Masaaki Saitow         : Open-shell DLPNO
   Barbara Sandhoefer     : DKH picture change effects
   Kantharuban Sivalingam : CASSCF convergence, NEVPT2, FIC-MRCI
   Georgi Stoychev        : AutoAux
   Boris Wezisla          : Elementary symmetry handling
   Frank Wennmohs         : Technical directorship


 We gratefully acknowledge several colleagues who have allowed us to
 interface, adapt or use parts of their codes:
   Stefan Grimme, W. Hujo, H. Kruse,             : VdW corrections, initial TS optimization,
                  C. Bannwarth                     DFT functionals, gCP, sTDA/sTD-DF
   Ed Valeev                                     : LibInt (2-el integral package), F12 methods
   Garnet Chan, S. Sharma, J. Yang, R. Olivares  : DMRG
   Ulf Ekstrom                                   : XCFun DFT Library
   Mihaly Kallay                                 : mrcc  (arbitrary order and MRCC methods)
   Jiri Pittner, Ondrej Demel                    : Mk-CCSD
   Frank Weinhold                                : gennbo (NPA and NBO analysis)
   Christopher J. Cramer and Donald G. Truhlar   : smd solvation model


 Your calculation uses the libint2 library for the computation of 2-el integrals
 For citations please refer to: http://libint.valeyev.net

 This ORCA versions uses:
   CBLAS   interface :  Fast vector & matrix operations
   LAPACKE interface :  Fast linear algebra routines
   SCALAPACK package :  Parallel linear algebra routines


Your calculation utilizes the atom-pairwise dispersion correction
with the zero-damping scheme (D30)
Cite in your paper:
S.Grimme, J.Antony, S.Ehrlich and H.Krieg, J.Chem.Phys., 132, (2010), 154104 
   

XCFun DFT library Copyright 2009-2010 Ulf Ekstrom and contributors.
See http://admol.org/xcfun for more information. This is free soft-
ware; see the source code for copying conditions. There is ABSOLUTELY
NO WARRANTY; not even for MERCHANTABILITY or FITNESS FOR A PARTICULAR
PURPOSE. For details see the documentation. Scientific users of this 
library should cite U. Ekstrom, L. Visscher, R. Bast, A. J. Thorvald-
sen and K. Ruud; J.Chem.Theor.Comp. 2010, DOI: 10.1021/ct100117s
XCFun Version 0.99 
Your calculation utilizes the basis: 6-31G(d)
   H-He, Li-Ne : W. J. Hehre, R. Ditchfield and J.A. Pople, J. Chem. Phys. 56, 2257 (1972).
                 Note: He and Ne are unpublished basis sets taken from the Gaussian program.
                 Note: Li and B from J. D. Dill and J. A. Pople, J. Chem. Phys. 62, 2921 (1975).
   Na - Ar     : M. M. Francl, W. J. Pietro, W. J. Hehre, J. S. Binkley, M. S. Gordon, 
                 D. J. DeFrees and J. A. Pople, J. Chem. Phys. 77, 3654 (1982).
   K - Zn      : V. A. Rassolov, J. A. Pople, M. A. Ratner, and T. L. Windus, J. Chem. Phys. 109, 1223 (1998).

================================================================================
                                        WARNINGS
                       Please study these warnings very carefully!
================================================================================

Warning: TCutStore was < 0. Adjusted to Thresh (uncritical)

INFO   : the flag for use of LIBINT has been found!

================================================================================
                                       INPUT FILE
================================================================================
NAME = initial6.inp
|  1> ! WB97X-D3 6-31G(d) VerySlowConv
|  2> ! KDIIS NOSOSCF
|  3> %base "Scan_6"
|  4> 
|  5> %scf
|  6> maxiter 999
|  7> end
|  8> 
|  9> * xyz 0 1
| 10> C         -4.472707999975    1.925920000010    0.000001999970
| 11> H         -3.429171498640    1.925919075951   -0.000002370434
| 12> H         -4.820549300081    2.199279927535    0.945120621964
| 13> H         -4.820555333884    0.970745023663   -0.235818750870
| 14> H         -4.820555867420    2.607735972841   -0.709291500630
| 15> **                         ****END OF INPUT****
================================================================================

                       ****************************
                       * Single Point Calculation *
                       ****************************

---------------------------------
CARTESIAN COORDINATES (ANGSTROEM)
---------------------------------
  C     -4.472708    1.925920    0.000002
  H     -3.429171    1.925919   -0.000002
  H     -4.820549    2.199280    0.945121
  H     -4.820555    0.970745   -0.235819
  H     -4.820556    2.607736   -0.709292

----------------------------
CARTESIAN COORDINATES (A.U.)
----------------------------
  NO LB      ZA    FRAG     MASS         X           Y           Z
   0 C     6.0000    0    12.011   -8.452193    3.639461    0.000004
   1 H     1.0000    0     1.008   -6.480195    3.639460   -0.000004
   2 H     1.0000    0     1.008   -9.109518    4.156037    1.786019
   3 H     1.0000    0     1.008   -9.109529    1.834442   -0.445633
   4 H     1.0000    0     1.008   -9.109530    4.927907   -1.340367

--------------------------------
INTERNAL COORDINATES (ANGSTROEM)
--------------------------------
 C      0   0   0     0.000000000000     0.00000000     0.00000000
 H      1   0   0     1.043536501345     0.00000000     0.00000000
 H      1   2   0     1.043536501362   109.47122063     0.00000000
 H      1   2   3     1.043536501362   109.47122063   240.00000001
 H      1   2   3     1.043536501368   109.47122064   120.00000000

---------------------------
INTERNAL COORDINATES (A.U.)
---------------------------
 C      0   0   0     0.000000000000     0.00000000     0.00000000
 H      1   0   0     1.971998198292     0.00000000     0.00000000
 H      1   2   0     1.971998198325   109.47122063     0.00000000
 H      1   2   3     1.971998198324   109.47122063   240.00000001
 H      1   2   3     1.971998198335   109.47122064   120.00000000

---------------------
BASIS SET INFORMATION
---------------------
There are 2 groups of distinct atoms

 Group   1 Type C   : 10s4p1d contracted to 3s2p1d pattern {631/31/1}
 Group   2 Type H   : 4s contracted to 2s pattern {31}

Atom   0C    basis set group =>   1
Atom   1H    basis set group =>   2
Atom   2H    basis set group =>   2
Atom   3H    basis set group =>   2
Atom   4H    basis set group =>   2
------------------------------------------------------------------------------
                           ORCA GTO INTEGRAL CALCULATION
------------------------------------------------------------------------------

                         BASIS SET STATISTICS AND STARTUP INFO

 # of primitive gaussian shells          ...   31
 # of primitive gaussian functions       ...   43
 # of contracted shells                  ...   14
 # of contracted basis functions         ...   22
 Highest angular momentum                ...    2
 Maximum contraction depth               ...    6
 Integral package used                   ... LIBINT
 Integral threshhold            Thresh   ...  1.000e-10
 Primitive cut-off              TCut     ...  1.000e-11


------------------------------ INTEGRAL EVALUATION ----------------------------


 * One electron integrals 
 Pre-screening matrix                    ... done
 Shell pair data                         ... done (   0.000 sec)

-------------------------------------------------------------------------------
                                 ORCA SCF
-------------------------------------------------------------------------------

------------
SCF SETTINGS
------------
Hamiltonian:
 Density Functional     Method          .... DFT(GTOs)
 Exchange Functional    Exchange        .... WB97X-D3
 Correlation Functional Correlation     .... WB97X-D3
 Gradients option       PostSCFGGA      .... off
 Hybrid DFT is turned on
   Fraction HF Exchange ScalHFX         ....  0.195728
   Scaling of DF-GGA-X  ScalDFX         ....  0.000000
   Scaling of DF-GGA-C  ScalDFC         ....  1.000000
   Scaling of DF-LDA-C  ScalLDAC        ....  1.000000
   Perturbative correction              ....  0.000000
 Long-range corrected/Screened/Range-Separated Hybrid DFT is turned on
   Amount of maximum screened exact exchange              ....  0.804272
   Range separation parameter mu (erf(mu*r12)/r12)        ....  0.250000


General Settings:
 Integral files         IntName         .... Scan_6
 Hartree-Fock type      HFTyp           .... RHF
 Total Charge           Charge          ....    0
 Multiplicity           Mult            ....    1
 Number of Electrons    NEL             ....   10
 Basis Dimension        Dim             ....   22
 Nuclear Repulsion      ENuc            ....     14.0336003541 Eh

Convergence Acceleration:
 DIIS                   CNVDIIS         .... on
   Start iteration      DIISMaxIt       ....     0
   Startup error        DIISStart       ....  0.200000
   # of expansion vecs  DIISMaxEq       ....     5
   Bias factor          DIISBfac        ....   1.050
   Max. coefficient     DIISMaxC        ....  10.000
 Newton-Raphson         CNVNR           .... off
 SOSCF                  CNVSOSCF        .... off
 Level Shifting         CNVShift        .... off
 Zerner damping         CNVZerner       .... off
 Static damping         CNVDamp         .... off
 Fernandez-Rico         CNVRico         .... off

SCF Procedure:
 Maximum # iterations   MaxIter         ....   999
 SCF integral mode      SCFMode         .... Direct
   Integral package                     .... LIBINT
 Reset frequeny         DirectResetFreq ....    20
 Integral Threshold     Thresh          ....  1.000e-10 Eh
 Primitive CutOff       TCut            ....  1.000e-11 Eh

Convergence Tolerance:
 Convergence Check Mode ConvCheckMode   .... All-Criteria
 Convergence forced     ConvForced      .... 0
 Energy Change          TolE            ....  1.000e-06 Eh
 Max Density Change     TolMaxP         ....  1.000e-05
 RMS Density Change     TolRMSP         ....  1.000e-06
 DIIS Error             TolErr          ....  1.000e-06


Diagonalization of the overlap matrix:
Smallest eigenvalue                        ... 1.758e-02
Time for diagonalization                   ...    0.001 sec
Threshold for overlap eigenvalues          ... 1.000e-08
Number of eigenvalues below threshold      ... 0
Time for construction of square roots      ...    0.005 sec
Total time needed                          ...    0.006 sec

-------------------
DFT GRID GENERATION
-------------------

General Integration Accuracy     IntAcc      ...  4.340
Radial Grid Type                 RadialGrid  ... Gauss-Chebyshev
Angular Grid (max. acc.)         AngularGrid ... Lebedev-110
Angular grid pruning method      GridPruning ... 3 (G Style)
Weight generation scheme         WeightScheme... Becke
Basis function cutoff            BFCut       ...    1.0000e-10
Integration weight cutoff        WCut        ...    1.0000e-14
Grids for H and He will be reduced by one unit

# of grid points (after initial pruning)     ...   4832 (   0.0 sec)
# of grid points (after weights+screening)   ...   4703 (   0.0 sec)
nearest neighbour list constructed           ...    0.0 sec
Grid point re-assignment to atoms done       ...    0.0 sec
Grid point division into batches done        ...    0.0 sec
Reduced shell lists constructed in    0.0 sec

Total number of grid points                  ...     4703
Total number of batches                      ...       77
Average number of points per batch           ...       61
Average number of grid points per atom       ...      941
Average number of shells per batch           ...    13.17 (94.05%)
Average number of basis functions per batch  ...    20.71 (94.11%)
Average number of large shells per batch     ...    12.58 (95.52%)
Average number of large basis fcns per batch ...    19.78 (95.54%)
Maximum spatial batch extension              ...  20.96, 25.60, 23.60 au
Average spatial batch extension              ...   5.17,  5.29,  4.78 au

Time for grid setup =    0.030 sec

------------------------------
INITIAL GUESS: MODEL POTENTIAL
------------------------------
Loading Hartree-Fock densities                     ... done
Calculating cut-offs                               ... done
Setting up the integral package                    ... done
Initializing the effective Hamiltonian             ... done
Starting the Coulomb interaction                   ... done (   0.0 sec)
Reading the grid                                   ... done
Mapping shells                                     ... done
Starting the XC term evaluation                    ... done (   0.0 sec)
  promolecular density results
     # of electrons  =      9.999151135
     EX              =     -6.298145117
     EC              =     -0.297741212
     EX+EC           =     -6.595886329
Transforming the Hamiltonian                       ... done (   0.0 sec)
Diagonalizing the Hamiltonian                      ... done (   0.0 sec)
Back transforming the eigenvectors                 ... done (   0.0 sec)
Now organizing SCF variables                       ... done
                      ------------------
                      INITIAL GUESS DONE (   0.2 sec)
                      ------------------
--------------
SCF ITERATIONS
--------------
ITER       Energy         Delta-E        Max-DP      RMS-DP      [F,P]   Gradient Norm
               ***  Starting incremental Fock matrix formation  ***
                             ****Resetting KDIIS****
                             ****Turning on KDIIS(Cayley)****
  0    -40.4103889357   0.000000000000 0.03204701  0.00317309  0.0960139   0.125465848
  1    -40.4384325694  -0.028043633623 0.02390733  0.00270233  0.0794611   0.101688419
  2    -40.4571009291  -0.018668359722 0.03983237  0.00475853  0.0655310   0.083244999
  3    -40.4806053865  -0.023504457452 0.06205674  0.00763826  0.0409529   0.051680667
Warning: badly conditioned DIIS matrix, 1 vectors out of 5 destroyed
  4    -40.4952911353  -0.014685748763 0.00190531  0.00016267  0.0007189   0.000862391
  5    -40.4952947225  -0.000003587233 0.00038347  0.00005692  0.0001692   0.000180863
Warning: badly conditioned DIIS matrix, 1 vectors out of 5 destroyed
                          ***Energy convergence achieved***
  6    -40.4952948463  -0.000000123818 0.00017064  0.00001764  0.0001126   0.000137631
Warning: badly conditioned DIIS matrix, 1 vectors out of 5 destroyed
                           ***RMSP convergence achieved***
                           ***MAXP convergence achieved***
                    *** KDIIS BlockDiag ( 0.000 sec) ***

               *****************************************************
               *                     SUCCESS                       *
               *           SCF CONVERGED AFTER   7 CYCLES          *
               *****************************************************

Setting up the final grid:

General Integration Accuracy     IntAcc      ...  4.670
Radial Grid Type                 RadialGrid  ... Gauss-Chebyshev
Angular Grid (max. acc.)         AngularGrid ... Lebedev-302
Angular grid pruning method      GridPruning ... 3 (G Style)
Weight generation scheme         WeightScheme... Becke
Basis function cutoff            BFCut       ...    1.0000e-10
Integration weight cutoff        WCut        ...    1.0000e-14
Grids for H and He will be reduced by one unit

# of grid points (after initial pruning)     ...  19788 (   0.0 sec)
# of grid points (after weights+screening)   ...  19250 (   0.0 sec)
nearest neighbour list constructed           ...    0.0 sec
Grid point re-assignment to atoms done       ...    0.0 sec
Grid point division into batches done        ...    0.0 sec
Reduced shell lists constructed in    0.1 sec

Total number of grid points                  ...    19250
Total number of batches                      ...      303
Average number of points per batch           ...       63
Average number of grid points per atom       ...     3850
Average number of shells per batch           ...    12.09 (86.35%)
Average number of basis functions per batch  ...    19.04 (86.56%)
Average number of large shells per batch     ...    11.46 (94.78%)
Average number of large basis fcns per batch ...    18.10 (95.06%)
Maximum spatial batch extension              ...  20.64, 20.64, 20.64 au
Average spatial batch extension              ...   3.45,  3.24,  3.14 au

Final grid set up in    0.1 sec
Final integration                            ... done (   0.2 sec)
Change in XC energy                          ...     0.000763603
Integrated number of electrons               ...    10.000002546
Previous integrated no of electrons          ...    10.000589257

----------------
TOTAL SCF ENERGY
----------------

Total Energy       :          -40.49453134 Eh           -1101.91222 eV

Components:
Nuclear Repulsion  :           14.03360035 Eh             381.87368 eV
Electronic Energy  :          -54.52813170 Eh           -1483.78590 eV
One Electron Energy:          -80.95509049 Eh           -2202.90001 eV
Two Electron Energy:           26.42695879 Eh             719.11411 eV

Virial components:
Potential Energy   :          -80.99835674 Eh           -2204.07734 eV
Kinetic Energy     :           40.50382540 Eh            1102.16512 eV
Virial Ratio       :            1.99977054


DFT components:
N(Alpha)           :        5.000001272970 electrons
N(Beta)            :        5.000001272970 electrons
N(Total)           :       10.000002545940 electrons
E(XC)              :       -4.601154347409 Eh       

---------------
SCF CONVERGENCE
---------------

  Last Energy change         ...   -9.9850e-08  Tolerance :   1.0000e-06
  Last MAX-Density change    ...    7.5315e-06  Tolerance :   1.0000e-05
  Last RMS-Density change    ...    6.6393e-07  Tolerance :   1.0000e-06
  Last DIIS Error            ...    2.0905e-06  Tolerance :   1.0000e-06

             **** THE GBW FILE WAS UPDATED (Scan_6.gbw) ****
             **** DENSITY FILE WAS UPDATED (Scan_6.scfp.tmp) ****
             **** ENERGY FILE WAS UPDATED (Scan_6.en.tmp) ****
----------------
ORBITAL ENERGIES
----------------

  NO   OCC          E(Eh)            E(eV) 
   0   2.0000     -10.234728      -278.5011 
   1   2.0000      -0.819579       -22.3019 
   2   2.0000      -0.494065       -13.4442 
   3   2.0000      -0.493996       -13.4423 
   4   2.0000      -0.493866       -13.4388 
   5   0.0000       0.225323         6.1313 
   6   0.0000       0.286069         7.7843 
   7   0.0000       0.286148         7.7865 
   8   0.0000       0.286629         7.7996 
   9   0.0000       0.620453        16.8834 
  10   0.0000       0.620826        16.8935 
  11   0.0000       0.621322        16.9070 
  12   0.0000       1.051612        28.6158 
  13   0.0000       1.051780        28.6204 
  14   0.0000       1.052238        28.6329 
  15   0.0000       1.142697        31.0944 
  16   0.0000       1.222796        33.2740 
  17   0.0000       1.739172        47.3253 
  18   0.0000       1.739387        47.3311 
  19   0.0000       2.415751        65.7359 
  20   0.0000       2.416267        65.7500 
  21   0.0000       2.416547        65.7576 

                    ********************************
                    * MULLIKEN POPULATION ANALYSIS *
                    ********************************

-----------------------
MULLIKEN ATOMIC CHARGES
-----------------------
   0 C :   -0.714095
   1 H :    0.178444
   2 H :    0.178629
   3 H :    0.178601
   4 H :    0.178421
Sum of atomic charges:    0.0000000

--------------------------------
MULLIKEN REDUCED ORBITAL CHARGES
--------------------------------
  0 C s       :     3.317274  s :     3.317274
      pz      :     1.122426  p :     3.367317
      px      :     1.122357
      py      :     1.122534
      dz2     :     0.007383  d :     0.029504
      dxz     :     0.003285
      dyz     :     0.006517
      dx2y2   :     0.009033
      dxy     :     0.003286
  1 H s       :     0.821556  s :     0.821556
  2 H s       :     0.821371  s :     0.821371
  3 H s       :     0.821399  s :     0.821399
  4 H s       :     0.821579  s :     0.821579


                     *******************************
                     * LOEWDIN POPULATION ANALYSIS *
                     *******************************

----------------------
LOEWDIN ATOMIC CHARGES
----------------------
   0 C :   -0.562931
   1 H :    0.140649
   2 H :    0.140589
   3 H :    0.140671
   4 H :    0.141021

-------------------------------
LOEWDIN REDUCED ORBITAL CHARGES
-------------------------------
  0 C s       :     2.983865  s :     2.983865
      pz      :     1.175442  p :     3.526341
      px      :     1.175385
      py      :     1.175514
      dz2     :     0.013193  d :     0.052725
      dxz     :     0.005865
      dyz     :     0.011676
      dx2y2   :     0.016127
      dxy     :     0.005865
  1 H s       :     0.859351  s :     0.859351
  2 H s       :     0.859411  s :     0.859411
  3 H s       :     0.859329  s :     0.859329
  4 H s       :     0.858979  s :     0.858979


                      *****************************
                      * MAYER POPULATION ANALYSIS *
                      *****************************

  NA   - Mulliken gross atomic population
  ZA   - Total nuclear charge
  QA   - Mulliken gross atomic charge
  VA   - Mayer's total valence
  BVA  - Mayer's bonded valence
  FA   - Mayer's free valence

  ATOM       NA         ZA         QA         VA         BVA        FA
  0 C      6.7141     6.0000    -0.7141     3.8486     3.8486     0.0000
  1 H      0.8216     1.0000     0.1784     0.9300     0.9300    -0.0000
  2 H      0.8214     1.0000     0.1786     0.9298     0.9298    -0.0000
  3 H      0.8214     1.0000     0.1786     0.9299     0.9299    -0.0000
  4 H      0.8216     1.0000     0.1784     0.9301     0.9301     0.0000

  Mayer bond orders larger than 0.1
B(  0-C ,  1-H ) :   0.9622 B(  0-C ,  2-H ) :   0.9621 B(  0-C ,  3-H ) :   0.9621 
B(  0-C ,  4-H ) :   0.9623 

-------
TIMINGS
-------

Total SCF time: 0 days 0 hours 0 min 3 sec 

Total time                  ....       3.377 sec
Sum of individual times     ....       3.249 sec  ( 96.2%)

Fock matrix formation       ....       2.904 sec  ( 86.0%)
  XC integration            ....       0.618 sec  ( 21.3% of F)
    Basis function eval.    ....       0.197 sec  ( 31.9% of XC)
    Density eval.           ....       0.025 sec  (  4.1% of XC)
    XC-Functional eval.     ....       0.178 sec  ( 28.7% of XC)
    XC-Potential eval.      ....       0.017 sec  (  2.8% of XC)
Diagonalization             ....       0.016 sec  (  0.5%)
Density matrix formation    ....       0.000 sec  (  0.0%)
Population analysis         ....       0.012 sec  (  0.4%)
Initial guess               ....       0.142 sec  (  4.2%)
Orbital Transformation      ....       0.000 sec  (  0.0%)
Orbital Orthonormalization  ....       0.000 sec  (  0.0%)
DIIS solution               ....       0.000 sec  (  0.0%)
Grid generation             ....       0.175 sec  (  5.2%)


-------------------------------------------------------------------------------
                          DFT DISPERSION CORRECTION                            
                                                                               
                              DFTD3 V3.1  Rev 1                                
                              USING zero damping                               
-------------------------------------------------------------------------------
The omegaB97X-D3 functional is recognized. Fit by Chai et al.
Active option DFTDOPT                   ...         3   

molecular C6(AA) [au] = 127.553026 


            DFT-D V3
 parameters
 s6 scaling factor         :     1.0000 
 rs6 scaling factor        :     1.2810 
 s8 scaling factor         :     1.0000 
 rs8 scaling factor        :     1.0940 
 Damping factor alpha6     :    14.0000 
 Damping factor alpha8     :    16.0000 
 ad hoc parameters k1-k3   :    16.0000     1.3333    -4.0000 

 Edisp/kcal,au: -0.010980628151  -0.000017498743 
 E6   /kcal   :  -0.001711978 
 E8   /kcal   :  -0.009268650 
 % E8         :  84.409109280 

-------------------------   ----------------
Dispersion correction           -0.000017499
-------------------------   ----------------


-------------------------   --------------------
FINAL SINGLE POINT ENERGY       -40.494548841854
-------------------------   --------------------


                            ***************************************
                            *     ORCA property calculations      *
                            ***************************************

                                    ---------------------
                                    Active property flags
                                    ---------------------
   (+) Dipole Moment


------------------------------------------------------------------------------
                       ORCA ELECTRIC PROPERTIES CALCULATION
------------------------------------------------------------------------------

Dipole Moment Calculation                       ... on
Quadrupole Moment Calculation                   ... off
Polarizability Calculation                      ... off
GBWName                                         ... Scan_6.gbw
Electron density file                           ... Scan_6.scfp.tmp

-------------
DIPOLE MOMENT
-------------
                                X             Y             Z
Electronic contribution:     -0.00059       0.00056      -0.00091
Nuclear contribution   :     -0.00000      -0.00000       0.00000
                        -----------------------------------------
Total Dipole Moment    :     -0.00059       0.00056      -0.00091
                        -----------------------------------------
Magnitude (a.u.)       :      0.00122
Magnitude (Debye)      :      0.00310


Timings for individual modules:

Sum of individual times         ...        3.820 sec (=   0.064 min)
GTO integral calculation        ...        0.414 sec (=   0.007 min)  10.8 %
SCF iterations                  ...        3.406 sec (=   0.057 min)  89.2 %
                             ****ORCA TERMINATED NORMALLY****
TOTAL RUN TIME: 0 days 0 hours 0 minutes 4 seconds 223 msec
