
                                 *****************
                                 * O   R   C   A *
                                 *****************

           --- An Ab Initio, DFT and Semiempirical electronic structure package ---

                  #######################################################
                  #                        -***-                        #
                  #  Department of molecular theory and spectroscopy    #
                  #              Directorship: Frank Neese              #
                  # Max Planck Institute for Chemical Energy Conversion #
                  #                  D-45470 Muelheim/Ruhr              #
                  #                       Germany                       #
                  #                                                     #
                  #                  All rights reserved                #
                  #                        -***-                        #
                  #######################################################


                         Program Version 4.0.0.2 - RELEASE -


 With contributions from (in alphabetic order):
   Daniel Aravena         : Magnetic Properties
   Michael Atanasov       : Ab Initio Ligand Field Theory
   Ute Becker             : Parallelization
   Martin Brehm           : Molecular dynamics
   Dmytro Bykov           : SCF Hessian
   Vijay G. Chilkuri      : MRCI spin determinant printing
   Dipayan Datta          : RHF DLPNO-CCSD density
   Achintya Kumar Dutta   : EOM-CC, STEOM-CC
   Dmitry Ganyushin       : Spin-Orbit,Spin-Spin,Magnetic field MRCI
   Yang Guo               : DLPNO-NEVPT2, CIM, IAO-localization
   Andreas Hansen         : Spin unrestricted coupled pair/coupled cluster methods
   Lee Huntington         : MR-EOM, pCC
   Robert Izsak           : Overlap fitted RIJCOSX, COSX-SCS-MP3, EOM
   Christian Kollmar      : KDIIS, OOCD, Brueckner-CCSD(T), CCSD density
   Simone Kossmann        : Meta GGA functionals, TD-DFT gradient, OOMP2, MP2 Hessian
   Martin Krupicka        : AUTO-CI
   Dagmar Lenk            : GEPOL surface
   Dimitrios Liakos       : Extrapolation schemes; parallel MDCI
   Dimitrios Manganas     : ROCIS; embedding schemes
   Dimitrios Pantazis     : SARC Basis sets
   Taras Petrenko         : DFT Hessian,TD-DFT gradient, ASA, ECA, R-Raman, ABS, FL, XAS/XES, NRVS
   Peter Pinski           : DLPNO-MP2
   Christoph Reimann      : Effective Core Potentials
   Marius Retegan         : Local ZFS, SOC
   Christoph Riplinger    : Optimizer, TS searches, QM/MM, DLPNO-CCSD(T), (RO)-DLPNO pert. Triples
   Tobias Risthaus        : Range-separated hybrids, TD-DFT gradient, RPA, STAB
   Michael Roemelt        : Restricted open shell CIS
   Masaaki Saitow         : Open-shell DLPNO
   Barbara Sandhoefer     : DKH picture change effects
   Kantharuban Sivalingam : CASSCF convergence, NEVPT2, FIC-MRCI
   Georgi Stoychev        : AutoAux
   Boris Wezisla          : Elementary symmetry handling
   Frank Wennmohs         : Technical directorship


 We gratefully acknowledge several colleagues who have allowed us to
 interface, adapt or use parts of their codes:
   Stefan Grimme, W. Hujo, H. Kruse,             : VdW corrections, initial TS optimization,
                  C. Bannwarth                     DFT functionals, gCP, sTDA/sTD-DF
   Ed Valeev                                     : LibInt (2-el integral package), F12 methods
   Garnet Chan, S. Sharma, J. Yang, R. Olivares  : DMRG
   Ulf Ekstrom                                   : XCFun DFT Library
   Mihaly Kallay                                 : mrcc  (arbitrary order and MRCC methods)
   Jiri Pittner, Ondrej Demel                    : Mk-CCSD
   Frank Weinhold                                : gennbo (NPA and NBO analysis)
   Christopher J. Cramer and Donald G. Truhlar   : smd solvation model


 Your calculation uses the libint2 library for the computation of 2-el integrals
 For citations please refer to: http://libint.valeyev.net

 This ORCA versions uses:
   CBLAS   interface :  Fast vector & matrix operations
   LAPACKE interface :  Fast linear algebra routines
   SCALAPACK package :  Parallel linear algebra routines


Your calculation utilizes the atom-pairwise dispersion correction
with the zero-damping scheme (D30)
Cite in your paper:
S.Grimme, J.Antony, S.Ehrlich and H.Krieg, J.Chem.Phys., 132, (2010), 154104 
   

XCFun DFT library Copyright 2009-2010 Ulf Ekstrom and contributors.
See http://admol.org/xcfun for more information. This is free soft-
ware; see the source code for copying conditions. There is ABSOLUTELY
NO WARRANTY; not even for MERCHANTABILITY or FITNESS FOR A PARTICULAR
PURPOSE. For details see the documentation. Scientific users of this 
library should cite U. Ekstrom, L. Visscher, R. Bast, A. J. Thorvald-
sen and K. Ruud; J.Chem.Theor.Comp. 2010, DOI: 10.1021/ct100117s
XCFun Version 0.99 
Your calculation utilizes the basis: 6-31G(d)
   H-He, Li-Ne : W. J. Hehre, R. Ditchfield and J.A. Pople, J. Chem. Phys. 56, 2257 (1972).
                 Note: He and Ne are unpublished basis sets taken from the Gaussian program.
                 Note: Li and B from J. D. Dill and J. A. Pople, J. Chem. Phys. 62, 2921 (1975).
   Na - Ar     : M. M. Francl, W. J. Pietro, W. J. Hehre, J. S. Binkley, M. S. Gordon, 
                 D. J. DeFrees and J. A. Pople, J. Chem. Phys. 77, 3654 (1982).
   K - Zn      : V. A. Rassolov, J. A. Pople, M. A. Ratner, and T. L. Windus, J. Chem. Phys. 109, 1223 (1998).

================================================================================
                                        WARNINGS
                       Please study these warnings very carefully!
================================================================================

Warning: TCutStore was < 0. Adjusted to Thresh (uncritical)

INFO   : the flag for use of LIBINT has been found!

================================================================================
                                       INPUT FILE
================================================================================
NAME = initial7.inp
|  1> ! WB97X-D3 6-31G(d) VerySlowConv
|  2> ! KDIIS NOSOSCF
|  3> %base "Scan_7"
|  4> 
|  5> %scf
|  6> maxiter 999
|  7> end
|  8> 
|  9> * xyz 0 1
| 10> C         -4.472707999975    1.925920000001    0.000002000006
| 11> H         -3.371578248780    1.925919024989   -0.000002611709
| 12> H         -4.839746818258    2.214366785157    0.997282144760
| 13> H         -4.839753185043    0.918028486158   -0.248833804415
| 14> H         -4.839753747944    2.645365703695   -0.748437728642
| 15> **                         ****END OF INPUT****
================================================================================

                       ****************************
                       * Single Point Calculation *
                       ****************************

---------------------------------
CARTESIAN COORDINATES (ANGSTROEM)
---------------------------------
  C     -4.472708    1.925920    0.000002
  H     -3.371578    1.925919   -0.000003
  H     -4.839747    2.214367    0.997282
  H     -4.839753    0.918028   -0.248834
  H     -4.839754    2.645366   -0.748438

----------------------------
CARTESIAN COORDINATES (A.U.)
----------------------------
  NO LB      ZA    FRAG     MASS         X           Y           Z
   0 C     6.0000    0    12.011   -8.452193    3.639461    0.000004
   1 H     1.0000    0     1.008   -6.371360    3.639460   -0.000005
   2 H     1.0000    0     1.008   -9.145796    4.184547    1.884590
   3 H     1.0000    0     1.008   -9.145808    1.734822   -0.470228
   4 H     1.0000    0     1.008   -9.145809    4.999017   -1.414342

--------------------------------
INTERNAL COORDINATES (ANGSTROEM)
--------------------------------
 C      0   0   0     0.000000000000     0.00000000     0.00000000
 H      1   0   0     1.101129751205     0.00000000     0.00000000
 H      1   2   0     1.101129751262   109.47122064     0.00000000
 H      1   2   3     1.101129751265   109.47122064   240.00000000
 H      1   2   3     1.101129751248   109.47122063   120.00000000

---------------------------
INTERNAL COORDINATES (A.U.)
---------------------------
 C      0   0   0     0.000000000000     0.00000000     0.00000000
 H      1   0   0     2.080833667690     0.00000000     0.00000000
 H      1   2   0     2.080833667798   109.47122064     0.00000000
 H      1   2   3     2.080833667803   109.47122064   240.00000000
 H      1   2   3     2.080833667772   109.47122063   120.00000000

---------------------
BASIS SET INFORMATION
---------------------
There are 2 groups of distinct atoms

 Group   1 Type C   : 10s4p1d contracted to 3s2p1d pattern {631/31/1}
 Group   2 Type H   : 4s contracted to 2s pattern {31}

Atom   0C    basis set group =>   1
Atom   1H    basis set group =>   2
Atom   2H    basis set group =>   2
Atom   3H    basis set group =>   2
Atom   4H    basis set group =>   2
------------------------------------------------------------------------------
                           ORCA GTO INTEGRAL CALCULATION
------------------------------------------------------------------------------

                         BASIS SET STATISTICS AND STARTUP INFO

 # of primitive gaussian shells          ...   31
 # of primitive gaussian functions       ...   43
 # of contracted shells                  ...   14
 # of contracted basis functions         ...   22
 Highest angular momentum                ...    2
 Maximum contraction depth               ...    6
 Integral package used                   ... LIBINT
 Integral threshhold            Thresh   ...  1.000e-10
 Primitive cut-off              TCut     ...  1.000e-11


------------------------------ INTEGRAL EVALUATION ----------------------------


 * One electron integrals 
 Pre-screening matrix                    ... done
 Shell pair data                         ... done (   0.000 sec)

-------------------------------------------------------------------------------
                                 ORCA SCF
-------------------------------------------------------------------------------

------------
SCF SETTINGS
------------
Hamiltonian:
 Density Functional     Method          .... DFT(GTOs)
 Exchange Functional    Exchange        .... WB97X-D3
 Correlation Functional Correlation     .... WB97X-D3
 Gradients option       PostSCFGGA      .... off
 Hybrid DFT is turned on
   Fraction HF Exchange ScalHFX         ....  0.195728
   Scaling of DF-GGA-X  ScalDFX         ....  0.000000
   Scaling of DF-GGA-C  ScalDFC         ....  1.000000
   Scaling of DF-LDA-C  ScalLDAC        ....  1.000000
   Perturbative correction              ....  0.000000
 Long-range corrected/Screened/Range-Separated Hybrid DFT is turned on
   Amount of maximum screened exact exchange              ....  0.804272
   Range separation parameter mu (erf(mu*r12)/r12)        ....  0.250000


General Settings:
 Integral files         IntName         .... Scan_7
 Hartree-Fock type      HFTyp           .... RHF
 Total Charge           Charge          ....    0
 Multiplicity           Mult            ....    1
 Number of Electrons    NEL             ....   10
 Basis Dimension        Dim             ....   22
 Nuclear Repulsion      ENuc            ....     13.2995899878 Eh

Convergence Acceleration:
 DIIS                   CNVDIIS         .... on
   Start iteration      DIISMaxIt       ....     0
   Startup error        DIISStart       ....  0.200000
   # of expansion vecs  DIISMaxEq       ....     5
   Bias factor          DIISBfac        ....   1.050
   Max. coefficient     DIISMaxC        ....  10.000
 Newton-Raphson         CNVNR           .... off
 SOSCF                  CNVSOSCF        .... off
 Level Shifting         CNVShift        .... off
 Zerner damping         CNVZerner       .... off
 Static damping         CNVDamp         .... off
 Fernandez-Rico         CNVRico         .... off

SCF Procedure:
 Maximum # iterations   MaxIter         ....   999
 SCF integral mode      SCFMode         .... Direct
   Integral package                     .... LIBINT
 Reset frequeny         DirectResetFreq ....    20
 Integral Threshold     Thresh          ....  1.000e-10 Eh
 Primitive CutOff       TCut            ....  1.000e-11 Eh

Convergence Tolerance:
 Convergence Check Mode ConvCheckMode   .... All-Criteria
 Convergence forced     ConvForced      .... 0
 Energy Change          TolE            ....  1.000e-06 Eh
 Max Density Change     TolMaxP         ....  1.000e-05
 RMS Density Change     TolRMSP         ....  1.000e-06
 DIIS Error             TolErr          ....  1.000e-06


Diagonalization of the overlap matrix:
Smallest eigenvalue                        ... 2.127e-02
Time for diagonalization                   ...    0.000 sec
Threshold for overlap eigenvalues          ... 1.000e-08
Number of eigenvalues below threshold      ... 0
Time for construction of square roots      ...    0.006 sec
Total time needed                          ...    0.006 sec

-------------------
DFT GRID GENERATION
-------------------

General Integration Accuracy     IntAcc      ...  4.340
Radial Grid Type                 RadialGrid  ... Gauss-Chebyshev
Angular Grid (max. acc.)         AngularGrid ... Lebedev-110
Angular grid pruning method      GridPruning ... 3 (G Style)
Weight generation scheme         WeightScheme... Becke
Basis function cutoff            BFCut       ...    1.0000e-10
Integration weight cutoff        WCut        ...    1.0000e-14
Grids for H and He will be reduced by one unit

# of grid points (after initial pruning)     ...   4832 (   0.0 sec)
# of grid points (after weights+screening)   ...   4707 (   0.0 sec)
nearest neighbour list constructed           ...    0.0 sec
Grid point re-assignment to atoms done       ...    0.0 sec
Grid point division into batches done        ...    0.0 sec
Reduced shell lists constructed in    0.0 sec

Total number of grid points                  ...     4707
Total number of batches                      ...       77
Average number of points per batch           ...       61
Average number of grid points per atom       ...      941
Average number of shells per batch           ...    13.14 (93.86%)
Average number of basis functions per batch  ...    20.68 (94.00%)
Average number of large shells per batch     ...    12.40 (94.34%)
Average number of large basis fcns per batch ...    19.55 (94.54%)
Maximum spatial batch extension              ...  20.92, 25.60, 23.60 au
Average spatial batch extension              ...   5.07,  5.14,  4.80 au

Time for grid setup =    0.029 sec

------------------------------
INITIAL GUESS: MODEL POTENTIAL
------------------------------
Loading Hartree-Fock densities                     ... done
Calculating cut-offs                               ... done
Setting up the integral package                    ... done
Initializing the effective Hamiltonian             ... done
Starting the Coulomb interaction                   ... done (   0.0 sec)
Reading the grid                                   ... done
Mapping shells                                     ... done
Starting the XC term evaluation                    ... done (   0.0 sec)
  promolecular density results
     # of electrons  =      9.998940558
     EX              =     -6.260403693
     EC              =     -0.293739657
     EX+EC           =     -6.554143350
Transforming the Hamiltonian                       ... done (   0.0 sec)
Diagonalizing the Hamiltonian                      ... done (   0.0 sec)
Back transforming the eigenvectors                 ... done (   0.0 sec)
Now organizing SCF variables                       ... done
                      ------------------
                      INITIAL GUESS DONE (   0.2 sec)
                      ------------------
--------------
SCF ITERATIONS
--------------
ITER       Energy         Delta-E        Max-DP      RMS-DP      [F,P]   Gradient Norm
               ***  Starting incremental Fock matrix formation  ***
                             ****Resetting KDIIS****
                             ****Turning on KDIIS(Cayley)****
  0    -40.4340345431   0.000000000000 0.02775513  0.00279785  0.0886543   0.110477525
  1    -40.4566112820  -0.022576738867 0.02043827  0.00243862  0.0730352   0.089193986
  2    -40.4714351892  -0.014823907179 0.03403248  0.00433203  0.0601225   0.072899201
  3    -40.4900505359  -0.018615346707 0.05253684  0.00680958  0.0373930   0.045073637
Warning: badly conditioned DIIS matrix, 1 vectors out of 5 destroyed
  4    -40.5015356196  -0.011485083748 0.00184421  0.00018274  0.0008580   0.000988550
  5    -40.5015406661  -0.000005046446 0.00035372  0.00004555  0.0001048   0.000103726
Warning: badly conditioned DIIS matrix, 1 vectors out of 5 destroyed
                          ***Energy convergence achieved***
  6    -40.5015406886  -0.000000022496 0.00013856  0.00001452  0.0000975   0.000115325
Warning: badly conditioned DIIS matrix, 1 vectors out of 5 destroyed
                           ***RMSP convergence achieved***
                           ***MAXP convergence achieved***
                    *** KDIIS BlockDiag ( 0.000 sec) ***

               *****************************************************
               *                     SUCCESS                       *
               *           SCF CONVERGED AFTER   7 CYCLES          *
               *****************************************************

Setting up the final grid:

General Integration Accuracy     IntAcc      ...  4.670
Radial Grid Type                 RadialGrid  ... Gauss-Chebyshev
Angular Grid (max. acc.)         AngularGrid ... Lebedev-302
Angular grid pruning method      GridPruning ... 3 (G Style)
Weight generation scheme         WeightScheme... Becke
Basis function cutoff            BFCut       ...    1.0000e-10
Integration weight cutoff        WCut        ...    1.0000e-14
Grids for H and He will be reduced by one unit

# of grid points (after initial pruning)     ...  19788 (   0.0 sec)
# of grid points (after weights+screening)   ...  19280 (   0.0 sec)
nearest neighbour list constructed           ...    0.0 sec
Grid point re-assignment to atoms done       ...    0.0 sec
Grid point division into batches done        ...    0.0 sec
Reduced shell lists constructed in    0.1 sec

Total number of grid points                  ...    19280
Total number of batches                      ...      304
Average number of points per batch           ...       63
Average number of grid points per atom       ...     3856
Average number of shells per batch           ...    12.08 (86.25%)
Average number of basis functions per batch  ...    19.03 (86.48%)
Average number of large shells per batch     ...    11.41 (94.49%)
Average number of large basis fcns per batch ...    18.06 (94.92%)
Maximum spatial batch extension              ...  20.64, 20.64, 20.64 au
Average spatial batch extension              ...   3.46,  3.28,  3.13 au

Final grid set up in    0.1 sec
Final integration                            ... done (   0.2 sec)
Change in XC energy                          ...     0.000479433
Integrated number of electrons               ...    10.000004097
Previous integrated no of electrons          ...    10.000424687

----------------
TOTAL SCF ENERGY
----------------

Total Energy       :          -40.50106133 Eh           -1102.08991 eV

Components:
Nuclear Repulsion  :           13.29958999 Eh             361.90024 eV
Electronic Energy  :          -53.80065132 Eh           -1463.99015 eV
One Electron Energy:          -79.58786810 Eh           -2165.69599 eV
Two Electron Energy:           25.78721679 Eh             701.70584 eV

Virial components:
Potential Energy   :          -80.67900416 Eh           -2195.38731 eV
Kinetic Energy     :           40.17794283 Eh            1093.29741 eV
Virial Ratio       :            2.00804219


DFT components:
N(Alpha)           :        5.000002048585 electrons
N(Beta)            :        5.000002048585 electrons
N(Total)           :       10.000004097169 electrons
E(XC)              :       -4.534990343337 Eh       

---------------
SCF CONVERGENCE
---------------

  Last Energy change         ...   -7.1498e-08  Tolerance :   1.0000e-06
  Last MAX-Density change    ...    3.7230e-06  Tolerance :   1.0000e-05
  Last RMS-Density change    ...    3.9125e-07  Tolerance :   1.0000e-06
  Last DIIS Error            ...    1.8110e-06  Tolerance :   1.0000e-06

             **** THE GBW FILE WAS UPDATED (Scan_7.gbw) ****
             **** DENSITY FILE WAS UPDATED (Scan_7.scfp.tmp) ****
             **** ENERGY FILE WAS UPDATED (Scan_7.en.tmp) ****
----------------
ORBITAL ENERGIES
----------------

  NO   OCC          E(Eh)            E(eV) 
   0   2.0000     -10.261000      -279.2160 
   1   2.0000      -0.801807       -21.8183 
   2   2.0000      -0.483871       -13.1668 
   3   2.0000      -0.483823       -13.1655 
   4   2.0000      -0.483541       -13.1578 
   5   0.0000       0.210704         5.7336 
   6   0.0000       0.267209         7.2711 
   7   0.0000       0.267417         7.2768 
   8   0.0000       0.267673         7.2838 
   9   0.0000       0.636635        17.3237 
  10   0.0000       0.637053        17.3351 
  11   0.0000       0.637106        17.3365 
  12   0.0000       1.004515        27.3343 
  13   0.0000       1.004777        27.3414 
  14   0.0000       1.005145        27.3514 
  15   0.0000       1.049391        28.5554 
  16   0.0000       1.208117        32.8745 
  17   0.0000       1.750888        47.6441 
  18   0.0000       1.751056        47.6487 
  19   0.0000       2.335980        63.5653 
  20   0.0000       2.336088        63.5682 
  21   0.0000       2.336237        63.5722 

                    ********************************
                    * MULLIKEN POPULATION ANALYSIS *
                    ********************************

-----------------------
MULLIKEN ATOMIC CHARGES
-----------------------
   0 C :   -0.690925
   1 H :    0.172130
   2 H :    0.173195
   3 H :    0.173149
   4 H :    0.172451
Sum of atomic charges:   -0.0000000

--------------------------------
MULLIKEN REDUCED ORBITAL CHARGES
--------------------------------
  0 C s       :     3.353962  s :     3.353962
      pz      :     1.102804  p :     3.308730
      px      :     1.102894
      py      :     1.103032
      dz2     :     0.007069  d :     0.028233
      dxz     :     0.003144
      dyz     :     0.006231
      dx2y2   :     0.008647
      dxy     :     0.003143
  1 H s       :     0.827870  s :     0.827870
  2 H s       :     0.826805  s :     0.826805
  3 H s       :     0.826851  s :     0.826851
  4 H s       :     0.827549  s :     0.827549


                     *******************************
                     * LOEWDIN POPULATION ANALYSIS *
                     *******************************

----------------------
LOEWDIN ATOMIC CHARGES
----------------------
   0 C :   -0.544916
   1 H :    0.135952
   2 H :    0.136184
   3 H :    0.136284
   4 H :    0.136496

-------------------------------
LOEWDIN REDUCED ORBITAL CHARGES
-------------------------------
  0 C s       :     3.022367  s :     3.022367
      pz      :     1.157856  p :     3.473668
      px      :     1.157811
      py      :     1.158001
      dz2     :     0.012236  d :     0.048881
      dxz     :     0.005439
      dyz     :     0.010818
      dx2y2   :     0.014951
      dxy     :     0.005436
  1 H s       :     0.864048  s :     0.864048
  2 H s       :     0.863816  s :     0.863816
  3 H s       :     0.863716  s :     0.863716
  4 H s       :     0.863504  s :     0.863504


                      *****************************
                      * MAYER POPULATION ANALYSIS *
                      *****************************

  NA   - Mulliken gross atomic population
  ZA   - Total nuclear charge
  QA   - Mulliken gross atomic charge
  VA   - Mayer's total valence
  BVA  - Mayer's bonded valence
  FA   - Mayer's free valence

  ATOM       NA         ZA         QA         VA         BVA        FA
  0 C      6.6909     6.0000    -0.6909     3.8385     3.8385     0.0000
  1 H      0.8279     1.0000     0.1721     0.9352     0.9352    -0.0000
  2 H      0.8268     1.0000     0.1732     0.9346     0.9346    -0.0000
  3 H      0.8269     1.0000     0.1731     0.9346     0.9346    -0.0000
  4 H      0.8275     1.0000     0.1725     0.9351     0.9351     0.0000

  Mayer bond orders larger than 0.1
B(  0-C ,  1-H ) :   0.9599 B(  0-C ,  2-H ) :   0.9593 B(  0-C ,  3-H ) :   0.9594 
B(  0-C ,  4-H ) :   0.9599 

-------
TIMINGS
-------

Total SCF time: 0 days 0 hours 0 min 2 sec 

Total time                  ....       2.925 sec
Sum of individual times     ....       2.807 sec  ( 96.0%)

Fock matrix formation       ....       2.451 sec  ( 83.8%)
  XC integration            ....       0.605 sec  ( 24.7% of F)
    Basis function eval.    ....       0.199 sec  ( 32.9% of XC)
    Density eval.           ....       0.027 sec  (  4.4% of XC)
    XC-Functional eval.     ....       0.177 sec  ( 29.3% of XC)
    XC-Potential eval.      ....       0.017 sec  (  2.9% of XC)
Diagonalization             ....       0.041 sec  (  1.4%)
Density matrix formation    ....       0.000 sec  (  0.0%)
Population analysis         ....       0.012 sec  (  0.4%)
Initial guess               ....       0.129 sec  (  4.4%)
Orbital Transformation      ....       0.000 sec  (  0.0%)
Orbital Orthonormalization  ....       0.000 sec  (  0.0%)
DIIS solution               ....       0.000 sec  (  0.0%)
Grid generation             ....       0.175 sec  (  6.0%)


-------------------------------------------------------------------------------
                          DFT DISPERSION CORRECTION                            
                                                                               
                              DFTD3 V3.1  Rev 1                                
                              USING zero damping                               
-------------------------------------------------------------------------------
The omegaB97X-D3 functional is recognized. Fit by Chai et al.
Active option DFTDOPT                   ...         3   

molecular C6(AA) [au] = 127.700980 


            DFT-D V3
 parameters
 s6 scaling factor         :     1.0000 
 rs6 scaling factor        :     1.2810 
 s8 scaling factor         :     1.0000 
 rs8 scaling factor        :     1.0940 
 Damping factor alpha6     :    14.0000 
 Damping factor alpha8     :    16.0000 
 ad hoc parameters k1-k3   :    16.0000     1.3333    -4.0000 

 Edisp/kcal,au: -0.016877543842  -0.000026896075 
 E6   /kcal   :  -0.002633224 
 E8   /kcal   :  -0.014244320 
 % E8         :  84.398062682 

-------------------------   ----------------
Dispersion correction           -0.000026896
-------------------------   ----------------


-------------------------   --------------------
FINAL SINGLE POINT ENERGY       -40.501088223589
-------------------------   --------------------


                            ***************************************
                            *     ORCA property calculations      *
                            ***************************************

                                    ---------------------
                                    Active property flags
                                    ---------------------
   (+) Dipole Moment


------------------------------------------------------------------------------
                       ORCA ELECTRIC PROPERTIES CALCULATION
------------------------------------------------------------------------------

Dipole Moment Calculation                       ... on
Quadrupole Moment Calculation                   ... off
Polarizability Calculation                      ... off
GBWName                                         ... Scan_7.gbw
Electron density file                           ... Scan_7.scfp.tmp

-------------
DIPOLE MOMENT
-------------
                                X             Y             Z
Electronic contribution:     -0.00062       0.00079      -0.00133
Nuclear contribution   :     -0.00000      -0.00000      -0.00000
                        -----------------------------------------
Total Dipole Moment    :     -0.00062       0.00079      -0.00133
                        -----------------------------------------
Magnitude (a.u.)       :      0.00167
Magnitude (Debye)      :      0.00424


Timings for individual modules:

Sum of individual times         ...        3.295 sec (=   0.055 min)
GTO integral calculation        ...        0.337 sec (=   0.006 min)  10.2 %
SCF iterations                  ...        2.958 sec (=   0.049 min)  89.8 %
                             ****ORCA TERMINATED NORMALLY****
TOTAL RUN TIME: 0 days 0 hours 0 minutes 3 seconds 668 msec
