
                                 *****************
                                 * O   R   C   A *
                                 *****************

           --- An Ab Initio, DFT and Semiempirical electronic structure package ---

                  #######################################################
                  #                        -***-                        #
                  #  Department of molecular theory and spectroscopy    #
                  #              Directorship: Frank Neese              #
                  # Max Planck Institute for Chemical Energy Conversion #
                  #                  D-45470 Muelheim/Ruhr              #
                  #                       Germany                       #
                  #                                                     #
                  #                  All rights reserved                #
                  #                        -***-                        #
                  #######################################################


                         Program Version 4.0.0.2 - RELEASE -


 With contributions from (in alphabetic order):
   Daniel Aravena         : Magnetic Properties
   Michael Atanasov       : Ab Initio Ligand Field Theory
   Ute Becker             : Parallelization
   Martin Brehm           : Molecular dynamics
   Dmytro Bykov           : SCF Hessian
   Vijay G. Chilkuri      : MRCI spin determinant printing
   Dipayan Datta          : RHF DLPNO-CCSD density
   Achintya Kumar Dutta   : EOM-CC, STEOM-CC
   Dmitry Ganyushin       : Spin-Orbit,Spin-Spin,Magnetic field MRCI
   Yang Guo               : DLPNO-NEVPT2, CIM, IAO-localization
   Andreas Hansen         : Spin unrestricted coupled pair/coupled cluster methods
   Lee Huntington         : MR-EOM, pCC
   Robert Izsak           : Overlap fitted RIJCOSX, COSX-SCS-MP3, EOM
   Christian Kollmar      : KDIIS, OOCD, Brueckner-CCSD(T), CCSD density
   Simone Kossmann        : Meta GGA functionals, TD-DFT gradient, OOMP2, MP2 Hessian
   Martin Krupicka        : AUTO-CI
   Dagmar Lenk            : GEPOL surface
   Dimitrios Liakos       : Extrapolation schemes; parallel MDCI
   Dimitrios Manganas     : ROCIS; embedding schemes
   Dimitrios Pantazis     : SARC Basis sets
   Taras Petrenko         : DFT Hessian,TD-DFT gradient, ASA, ECA, R-Raman, ABS, FL, XAS/XES, NRVS
   Peter Pinski           : DLPNO-MP2
   Christoph Reimann      : Effective Core Potentials
   Marius Retegan         : Local ZFS, SOC
   Christoph Riplinger    : Optimizer, TS searches, QM/MM, DLPNO-CCSD(T), (RO)-DLPNO pert. Triples
   Tobias Risthaus        : Range-separated hybrids, TD-DFT gradient, RPA, STAB
   Michael Roemelt        : Restricted open shell CIS
   Masaaki Saitow         : Open-shell DLPNO
   Barbara Sandhoefer     : DKH picture change effects
   Kantharuban Sivalingam : CASSCF convergence, NEVPT2, FIC-MRCI
   Georgi Stoychev        : AutoAux
   Boris Wezisla          : Elementary symmetry handling
   Frank Wennmohs         : Technical directorship


 We gratefully acknowledge several colleagues who have allowed us to
 interface, adapt or use parts of their codes:
   Stefan Grimme, W. Hujo, H. Kruse,             : VdW corrections, initial TS optimization,
                  C. Bannwarth                     DFT functionals, gCP, sTDA/sTD-DF
   Ed Valeev                                     : LibInt (2-el integral package), F12 methods
   Garnet Chan, S. Sharma, J. Yang, R. Olivares  : DMRG
   Ulf Ekstrom                                   : XCFun DFT Library
   Mihaly Kallay                                 : mrcc  (arbitrary order and MRCC methods)
   Jiri Pittner, Ondrej Demel                    : Mk-CCSD
   Frank Weinhold                                : gennbo (NPA and NBO analysis)
   Christopher J. Cramer and Donald G. Truhlar   : smd solvation model


 Your calculation uses the libint2 library for the computation of 2-el integrals
 For citations please refer to: http://libint.valeyev.net

 This ORCA versions uses:
   CBLAS   interface :  Fast vector & matrix operations
   LAPACKE interface :  Fast linear algebra routines
   SCALAPACK package :  Parallel linear algebra routines


Your calculation utilizes the atom-pairwise dispersion correction
with the zero-damping scheme (D30)
Cite in your paper:
S.Grimme, J.Antony, S.Ehrlich and H.Krieg, J.Chem.Phys., 132, (2010), 154104 
   

XCFun DFT library Copyright 2009-2010 Ulf Ekstrom and contributors.
See http://admol.org/xcfun for more information. This is free soft-
ware; see the source code for copying conditions. There is ABSOLUTELY
NO WARRANTY; not even for MERCHANTABILITY or FITNESS FOR A PARTICULAR
PURPOSE. For details see the documentation. Scientific users of this 
library should cite U. Ekstrom, L. Visscher, R. Bast, A. J. Thorvald-
sen and K. Ruud; J.Chem.Theor.Comp. 2010, DOI: 10.1021/ct100117s
XCFun Version 0.99 
Your calculation utilizes the basis: 6-31G(d)
   H-He, Li-Ne : W. J. Hehre, R. Ditchfield and J.A. Pople, J. Chem. Phys. 56, 2257 (1972).
                 Note: He and Ne are unpublished basis sets taken from the Gaussian program.
                 Note: Li and B from J. D. Dill and J. A. Pople, J. Chem. Phys. 62, 2921 (1975).
   Na - Ar     : M. M. Francl, W. J. Pietro, W. J. Hehre, J. S. Binkley, M. S. Gordon, 
                 D. J. DeFrees and J. A. Pople, J. Chem. Phys. 77, 3654 (1982).
   K - Zn      : V. A. Rassolov, J. A. Pople, M. A. Ratner, and T. L. Windus, J. Chem. Phys. 109, 1223 (1998).

================================================================================
                                        WARNINGS
                       Please study these warnings very carefully!
================================================================================

Warning: TCutStore was < 0. Adjusted to Thresh (uncritical)

INFO   : the flag for use of LIBINT has been found!

================================================================================
                                       INPUT FILE
================================================================================
NAME = initial8.inp
|  1> ! WB97X-D3 6-31G(d) VerySlowConv
|  2> ! KDIIS NOSOSCF
|  3> %base "Scan_8"
|  4> 
|  5> %scf
|  6> maxiter 999
|  7> end
|  8> 
|  9> * xyz 0 1
| 10> C         -4.472708000138    1.925919999972    0.000002000030
| 11> H         -3.304520721739    1.925918965610   -0.000002892553
| 12> H         -4.862099057298    2.231932860384    1.058015350841
| 13> H         -4.862105811813    0.856649059989   -0.263987616778
| 14> H         -4.862106409012    2.689179114045   -0.794016841540
| 15> **                         ****END OF INPUT****
================================================================================

                       ****************************
                       * Single Point Calculation *
                       ****************************

---------------------------------
CARTESIAN COORDINATES (ANGSTROEM)
---------------------------------
  C     -4.472708    1.925920    0.000002
  H     -3.304521    1.925919   -0.000003
  H     -4.862099    2.231933    1.058015
  H     -4.862106    0.856649   -0.263988
  H     -4.862106    2.689179   -0.794017

----------------------------
CARTESIAN COORDINATES (A.U.)
----------------------------
  NO LB      ZA    FRAG     MASS         X           Y           Z
   0 C     6.0000    0    12.011   -8.452193    3.639461    0.000004
   1 H     1.0000    0     1.008   -6.244639    3.639459   -0.000005
   2 H     1.0000    0     1.008   -9.188036    4.217742    1.999359
   3 H     1.0000    0     1.008   -9.188048    1.618832   -0.498864
   4 H     1.0000    0     1.008   -9.188050    5.081812   -1.500474

--------------------------------
INTERNAL COORDINATES (ANGSTROEM)
--------------------------------
 C      0   0   0     0.000000000000     0.00000000     0.00000000
 H      1   0   0     1.168187278410     0.00000000     0.00000000
 H      1   2   0     1.168187278063   109.47122063     0.00000000
 H      1   2   3     1.168187278056   109.47122063   239.99999999
 H      1   2   3     1.168187278144   109.47122062   120.00000000

---------------------------
INTERNAL COORDINATES (A.U.)
---------------------------
 C      0   0   0     0.000000000000     0.00000000     0.00000000
 H      1   0   0     2.207554029325     0.00000000     0.00000000
 H      1   2   0     2.207554028670   109.47122063     0.00000000
 H      1   2   3     2.207554028657   109.47122063   239.99999999
 H      1   2   3     2.207554028823   109.47122062   120.00000000

---------------------
BASIS SET INFORMATION
---------------------
There are 2 groups of distinct atoms

 Group   1 Type C   : 10s4p1d contracted to 3s2p1d pattern {631/31/1}
 Group   2 Type H   : 4s contracted to 2s pattern {31}

Atom   0C    basis set group =>   1
Atom   1H    basis set group =>   2
Atom   2H    basis set group =>   2
Atom   3H    basis set group =>   2
Atom   4H    basis set group =>   2
------------------------------------------------------------------------------
                           ORCA GTO INTEGRAL CALCULATION
------------------------------------------------------------------------------

                         BASIS SET STATISTICS AND STARTUP INFO

 # of primitive gaussian shells          ...   31
 # of primitive gaussian functions       ...   43
 # of contracted shells                  ...   14
 # of contracted basis functions         ...   22
 Highest angular momentum                ...    2
 Maximum contraction depth               ...    6
 Integral package used                   ... LIBINT
 Integral threshhold            Thresh   ...  1.000e-10
 Primitive cut-off              TCut     ...  1.000e-11


------------------------------ INTEGRAL EVALUATION ----------------------------


 * One electron integrals 
 Pre-screening matrix                    ... done
 Shell pair data                         ... done (   0.000 sec)

-------------------------------------------------------------------------------
                                 ORCA SCF
-------------------------------------------------------------------------------

------------
SCF SETTINGS
------------
Hamiltonian:
 Density Functional     Method          .... DFT(GTOs)
 Exchange Functional    Exchange        .... WB97X-D3
 Correlation Functional Correlation     .... WB97X-D3
 Gradients option       PostSCFGGA      .... off
 Hybrid DFT is turned on
   Fraction HF Exchange ScalHFX         ....  0.195728
   Scaling of DF-GGA-X  ScalDFX         ....  0.000000
   Scaling of DF-GGA-C  ScalDFC         ....  1.000000
   Scaling of DF-LDA-C  ScalLDAC        ....  1.000000
   Perturbative correction              ....  0.000000
 Long-range corrected/Screened/Range-Separated Hybrid DFT is turned on
   Amount of maximum screened exact exchange              ....  0.804272
   Range separation parameter mu (erf(mu*r12)/r12)        ....  0.250000


General Settings:
 Integral files         IntName         .... Scan_8
 Hartree-Fock type      HFTyp           .... RHF
 Total Charge           Charge          ....    0
 Multiplicity           Mult            ....    1
 Number of Electrons    NEL             ....   10
 Basis Dimension        Dim             ....   22
 Nuclear Repulsion      ENuc            ....     12.5361527973 Eh

Convergence Acceleration:
 DIIS                   CNVDIIS         .... on
   Start iteration      DIISMaxIt       ....     0
   Startup error        DIISStart       ....  0.200000
   # of expansion vecs  DIISMaxEq       ....     5
   Bias factor          DIISBfac        ....   1.050
   Max. coefficient     DIISMaxC        ....  10.000
 Newton-Raphson         CNVNR           .... off
 SOSCF                  CNVSOSCF        .... off
 Level Shifting         CNVShift        .... off
 Zerner damping         CNVZerner       .... off
 Static damping         CNVDamp         .... off
 Fernandez-Rico         CNVRico         .... off

SCF Procedure:
 Maximum # iterations   MaxIter         ....   999
 SCF integral mode      SCFMode         .... Direct
   Integral package                     .... LIBINT
 Reset frequeny         DirectResetFreq ....    20
 Integral Threshold     Thresh          ....  1.000e-10 Eh
 Primitive CutOff       TCut            ....  1.000e-11 Eh

Convergence Tolerance:
 Convergence Check Mode ConvCheckMode   .... All-Criteria
 Convergence forced     ConvForced      .... 0
 Energy Change          TolE            ....  1.000e-06 Eh
 Max Density Change     TolMaxP         ....  1.000e-05
 RMS Density Change     TolRMSP         ....  1.000e-06
 DIIS Error             TolErr          ....  1.000e-06


Diagonalization of the overlap matrix:
Smallest eigenvalue                        ... 2.616e-02
Time for diagonalization                   ...    0.001 sec
Threshold for overlap eigenvalues          ... 1.000e-08
Number of eigenvalues below threshold      ... 0
Time for construction of square roots      ...    0.005 sec
Total time needed                          ...    0.006 sec

-------------------
DFT GRID GENERATION
-------------------

General Integration Accuracy     IntAcc      ...  4.340
Radial Grid Type                 RadialGrid  ... Gauss-Chebyshev
Angular Grid (max. acc.)         AngularGrid ... Lebedev-110
Angular grid pruning method      GridPruning ... 3 (G Style)
Weight generation scheme         WeightScheme... Becke
Basis function cutoff            BFCut       ...    1.0000e-10
Integration weight cutoff        WCut        ...    1.0000e-14
Grids for H and He will be reduced by one unit

# of grid points (after initial pruning)     ...   4832 (   0.0 sec)
# of grid points (after weights+screening)   ...   4714 (   0.0 sec)
nearest neighbour list constructed           ...    0.0 sec
Grid point re-assignment to atoms done       ...    0.0 sec
Grid point division into batches done        ...    0.0 sec
Reduced shell lists constructed in    0.0 sec

Total number of grid points                  ...     4714
Total number of batches                      ...       77
Average number of points per batch           ...       61
Average number of grid points per atom       ...      943
Average number of shells per batch           ...    13.08 (93.41%)
Average number of basis functions per batch  ...    20.56 (93.47%)
Average number of large shells per batch     ...    12.36 (94.51%)
Average number of large basis fcns per batch ...    19.51 (94.89%)
Maximum spatial batch extension              ...  20.88, 25.60, 23.60 au
Average spatial batch extension              ...   5.33,  5.29,  4.96 au

Time for grid setup =    0.029 sec

------------------------------
INITIAL GUESS: MODEL POTENTIAL
------------------------------
Loading Hartree-Fock densities                     ... done
Calculating cut-offs                               ... done
Setting up the integral package                    ... done
Initializing the effective Hamiltonian             ... done
Starting the Coulomb interaction                   ... done (   0.0 sec)
Reading the grid                                   ... done
Mapping shells                                     ... done
Starting the XC term evaluation                    ... done (   0.0 sec)
  promolecular density results
     # of electrons  =      9.998666393
     EX              =     -6.220453666
     EC              =     -0.288950209
     EX+EC           =     -6.509403876
Transforming the Hamiltonian                       ... done (   0.0 sec)
Diagonalizing the Hamiltonian                      ... done (   0.0 sec)
Back transforming the eigenvectors                 ... done (   0.0 sec)
Now organizing SCF variables                       ... done
                      ------------------
                      INITIAL GUESS DONE (   0.2 sec)
                      ------------------
--------------
SCF ITERATIONS
--------------
ITER       Energy         Delta-E        Max-DP      RMS-DP      [F,P]   Gradient Norm
               ***  Starting incremental Fock matrix formation  ***
                             ****Resetting KDIIS****
                             ****Turning on KDIIS(Cayley)****
  0    -40.4374651655   0.000000000000 0.02332186  0.00241469  0.0800712   0.094709841
  1    -40.4547803874  -0.017315221861 0.01688114  0.00216127  0.0656575   0.076165298
  2    -40.4659906447  -0.011210257337 0.02805478  0.00386427  0.0539471   0.062131173
  3    -40.4800172456  -0.014026600869 0.04297458  0.00596693  0.0333921   0.038230017
Warning: badly conditioned DIIS matrix, 1 vectors out of 5 destroyed
  4    -40.4885429260  -0.008525680389 0.00180918  0.00019407  0.0008258   0.000931630
  5    -40.4885475853  -0.000004659267 0.00043371  0.00004133  0.0000614   0.000079483
Warning: badly conditioned DIIS matrix, 1 vectors out of 5 destroyed
                          ***Energy convergence achieved***
  6    -40.4885476080  -0.000000022728 0.00009505  0.00001050  0.0000670   0.000082010
Warning: badly conditioned DIIS matrix, 1 vectors out of 5 destroyed
                           ***RMSP convergence achieved***
                           ***MAXP convergence achieved***
                    *** KDIIS BlockDiag ( 0.000 sec) ***

               *****************************************************
               *                     SUCCESS                       *
               *           SCF CONVERGED AFTER   7 CYCLES          *
               *****************************************************

Setting up the final grid:

General Integration Accuracy     IntAcc      ...  4.670
Radial Grid Type                 RadialGrid  ... Gauss-Chebyshev
Angular Grid (max. acc.)         AngularGrid ... Lebedev-302
Angular grid pruning method      GridPruning ... 3 (G Style)
Weight generation scheme         WeightScheme... Becke
Basis function cutoff            BFCut       ...    1.0000e-10
Integration weight cutoff        WCut        ...    1.0000e-14
Grids for H and He will be reduced by one unit

# of grid points (after initial pruning)     ...  19788 (   0.0 sec)
# of grid points (after weights+screening)   ...  19303 (   0.0 sec)
nearest neighbour list constructed           ...    0.0 sec
Grid point re-assignment to atoms done       ...    0.0 sec
Grid point division into batches done        ...    0.0 sec
Reduced shell lists constructed in    0.1 sec

Total number of grid points                  ...    19303
Total number of batches                      ...      305
Average number of points per batch           ...       63
Average number of grid points per atom       ...     3861
Average number of shells per batch           ...    12.04 (86.02%)
Average number of basis functions per batch  ...    18.98 (86.29%)
Average number of large shells per batch     ...    11.30 (93.84%)
Average number of large basis fcns per batch ...    17.93 (94.44%)
Maximum spatial batch extension              ...  20.64, 20.64, 20.64 au
Average spatial batch extension              ...   3.48,  3.22,  3.13 au

Final grid set up in    0.1 sec
Final integration                            ... done (   0.2 sec)
Change in XC energy                          ...     0.000193764
Integrated number of electrons               ...    10.000020752
Previous integrated no of electrons          ...    10.000224154

----------------
TOTAL SCF ENERGY
----------------

Total Energy       :          -40.48835388 Eh           -1101.74412 eV

Components:
Nuclear Repulsion  :           12.53615280 Eh             341.12606 eV
Electronic Energy  :          -53.02450668 Eh           -1442.87018 eV
One Electron Energy:          -78.12882038 Eh           -2125.99329 eV
Two Electron Energy:           25.10431370 Eh             683.12311 eV

Virial components:
Potential Energy   :          -80.34366286 Eh           -2186.26221 eV
Kinetic Energy     :           39.85530898 Eh            1084.51809 eV
Virial Ratio       :            2.01588358


DFT components:
N(Alpha)           :        5.000010375935 electrons
N(Beta)            :        5.000010375935 electrons
N(Total)           :       10.000020751871 electrons
E(XC)              :       -4.465079413525 Eh       

---------------
SCF CONVERGENCE
---------------

  Last Energy change         ...   -3.7288e-08  Tolerance :   1.0000e-06
  Last MAX-Density change    ...    1.6915e-06  Tolerance :   1.0000e-05
  Last RMS-Density change    ...    2.9993e-07  Tolerance :   1.0000e-06
  Last DIIS Error            ...    1.3356e-06  Tolerance :   1.0000e-06

             **** THE GBW FILE WAS UPDATED (Scan_8.gbw) ****
             **** DENSITY FILE WAS UPDATED (Scan_8.scfp.tmp) ****
             **** ENERGY FILE WAS UPDATED (Scan_8.en.tmp) ****
----------------
ORBITAL ENERGIES
----------------

  NO   OCC          E(Eh)            E(eV) 
   0   2.0000     -10.290388      -280.0157 
   1   2.0000      -0.782602       -21.2957 
   2   2.0000      -0.472533       -12.8583 
   3   2.0000      -0.472474       -12.8567 
   4   2.0000      -0.472135       -12.8475 
   5   0.0000       0.190505         5.1839 
   6   0.0000       0.245183         6.6718 
   7   0.0000       0.245400         6.6777 
   8   0.0000       0.245475         6.6797 
   9   0.0000       0.656025        17.8513 
  10   0.0000       0.656546        17.8655 
  11   0.0000       0.657430        17.8896 
  12   0.0000       0.959836        26.1185 
  13   0.0000       0.960069        26.1248 
  14   0.0000       0.960311        26.1314 
  15   0.0000       0.963915        26.2295 
  16   0.0000       1.188671        32.3454 
  17   0.0000       1.761828        47.9418 
  18   0.0000       1.762172        47.9511 
  19   0.0000       2.249091        61.2009 
  20   0.0000       2.249515        61.2124 
  21   0.0000       2.249659        61.2163 

                    ********************************
                    * MULLIKEN POPULATION ANALYSIS *
                    ********************************

-----------------------
MULLIKEN ATOMIC CHARGES
-----------------------
   0 C :   -0.654196
   1 H :    0.162508
   2 H :    0.164309
   3 H :    0.164252
   4 H :    0.163126
Sum of atomic charges:   -0.0000000

--------------------------------
MULLIKEN REDUCED ORBITAL CHARGES
--------------------------------
  0 C s       :     3.388108  s :     3.388108
      pz      :     1.079742  p :     3.239740
      px      :     1.079964
      py      :     1.080034
      dz2     :     0.006596  d :     0.026348
      dxz     :     0.002932
      dyz     :     0.005822
      dx2y2   :     0.008068
      dxy     :     0.002930
  1 H s       :     0.837492  s :     0.837492
  2 H s       :     0.835691  s :     0.835691
  3 H s       :     0.835748  s :     0.835748
  4 H s       :     0.836874  s :     0.836874


                     *******************************
                     * LOEWDIN POPULATION ANALYSIS *
                     *******************************

----------------------
LOEWDIN ATOMIC CHARGES
----------------------
   0 C :   -0.523612
   1 H :    0.130443
   2 H :    0.131044
   3 H :    0.131125
   4 H :    0.131000

-------------------------------
LOEWDIN REDUCED ORBITAL CHARGES
-------------------------------
  0 C s       :     3.067646  s :     3.067646
      pz      :     1.137275  p :     3.411957
      px      :     1.137232
      py      :     1.137450
      dz2     :     0.011016  d :     0.044009
      dxz     :     0.004897
      dyz     :     0.009746
      dx2y2   :     0.013458
      dxy     :     0.004893
  1 H s       :     0.869557  s :     0.869557
  2 H s       :     0.868956  s :     0.868956
  3 H s       :     0.868875  s :     0.868875
  4 H s       :     0.869000  s :     0.869000


                      *****************************
                      * MAYER POPULATION ANALYSIS *
                      *****************************

  NA   - Mulliken gross atomic population
  ZA   - Total nuclear charge
  QA   - Mulliken gross atomic charge
  VA   - Mayer's total valence
  BVA  - Mayer's bonded valence
  FA   - Mayer's free valence

  ATOM       NA         ZA         QA         VA         BVA        FA
  0 C      6.6542     6.0000    -0.6542     3.8272     3.8272    -0.0000
  1 H      0.8375     1.0000     0.1625     0.9422     0.9422    -0.0000
  2 H      0.8357     1.0000     0.1643     0.9412     0.9412    -0.0000
  3 H      0.8357     1.0000     0.1643     0.9413     0.9413     0.0000
  4 H      0.8369     1.0000     0.1631     0.9420     0.9420     0.0000

  Mayer bond orders larger than 0.1
B(  0-C ,  1-H ) :   0.9574 B(  0-C ,  2-H ) :   0.9563 B(  0-C ,  3-H ) :   0.9564 
B(  0-C ,  4-H ) :   0.9571 

-------
TIMINGS
-------

Total SCF time: 0 days 0 hours 0 min 2 sec 

Total time                  ....       2.926 sec
Sum of individual times     ....       2.809 sec  ( 96.0%)

Fock matrix formation       ....       2.473 sec  ( 84.5%)
  XC integration            ....       0.627 sec  ( 25.4% of F)
    Basis function eval.    ....       0.199 sec  ( 31.8% of XC)
    Density eval.           ....       0.028 sec  (  4.4% of XC)
    XC-Functional eval.     ....       0.184 sec  ( 29.4% of XC)
    XC-Potential eval.      ....       0.017 sec  (  2.7% of XC)
Diagonalization             ....       0.020 sec  (  0.7%)
Density matrix formation    ....       0.000 sec  (  0.0%)
Population analysis         ....       0.012 sec  (  0.4%)
Initial guess               ....       0.129 sec  (  4.4%)
Orbital Transformation      ....       0.000 sec  (  0.0%)
Orbital Orthonormalization  ....       0.000 sec  (  0.0%)
DIIS solution               ....       0.000 sec  (  0.0%)
Grid generation             ....       0.174 sec  (  6.0%)


-------------------------------------------------------------------------------
                          DFT DISPERSION CORRECTION                            
                                                                               
                              DFTD3 V3.1  Rev 1                                
                              USING zero damping                               
-------------------------------------------------------------------------------
The omegaB97X-D3 functional is recognized. Fit by Chai et al.
Active option DFTDOPT                   ...         3   

molecular C6(AA) [au] = 128.311125 


            DFT-D V3
 parameters
 s6 scaling factor         :     1.0000 
 rs6 scaling factor        :     1.2810 
 s8 scaling factor         :     1.0000 
 rs8 scaling factor        :     1.0940 
 Damping factor alpha6     :    14.0000 
 Damping factor alpha8     :    16.0000 
 ad hoc parameters k1-k3   :    16.0000     1.3333    -4.0000 

 Edisp/kcal,au: -0.027108081717  -0.000043199473 
 E6   /kcal   :  -0.004237740 
 E8   /kcal   :  -0.022870342 
 % E8         :  84.367244534 

-------------------------   ----------------
Dispersion correction           -0.000043199
-------------------------   ----------------


-------------------------   --------------------
FINAL SINGLE POINT ENERGY       -40.488397080287
-------------------------   --------------------


                            ***************************************
                            *     ORCA property calculations      *
                            ***************************************

                                    ---------------------
                                    Active property flags
                                    ---------------------
   (+) Dipole Moment


------------------------------------------------------------------------------
                       ORCA ELECTRIC PROPERTIES CALCULATION
------------------------------------------------------------------------------

Dipole Moment Calculation                       ... on
Quadrupole Moment Calculation                   ... off
Polarizability Calculation                      ... off
GBWName                                         ... Scan_8.gbw
Electron density file                           ... Scan_8.scfp.tmp

-------------
DIPOLE MOMENT
-------------
                                X             Y             Z
Electronic contribution:     -0.00059       0.00068      -0.00126
Nuclear contribution   :      0.00000       0.00000      -0.00000
                        -----------------------------------------
Total Dipole Moment    :     -0.00059       0.00068      -0.00126
                        -----------------------------------------
Magnitude (a.u.)       :      0.00155
Magnitude (Debye)      :      0.00394


Timings for individual modules:

Sum of individual times         ...        3.292 sec (=   0.055 min)
GTO integral calculation        ...        0.334 sec (=   0.006 min)  10.1 %
SCF iterations                  ...        2.958 sec (=   0.049 min)  89.9 %
                             ****ORCA TERMINATED NORMALLY****
TOTAL RUN TIME: 0 days 0 hours 0 minutes 3 seconds 665 msec
