12
Point_1/orca1.out	Energy:    -231.8139053
C          1.52520       -2.84983       -0.00000
H          2.37326       -2.91475       -0.00000
C          0.92005       -1.58804        0.00000
H          1.40031       -0.88606        0.00000
C         -0.47527       -1.48122       -0.00000
H         -0.84307       -0.71432       -0.00000
C         -1.26544       -2.63619       -0.00000
H         -2.11349       -2.57126       -0.00000
C         -0.66029       -3.89798        0.00000
H         -1.14054       -4.59996        0.00000
C          0.73503       -4.00480       -0.00000
H          1.10284       -4.77170       -0.00000
