12
Point_11/orca11.out	Energy:    -231.9060768
C          1.49649       -2.84763       -0.00000
H          2.92850       -2.95726        0.00000
C          0.90379       -1.61181       -0.00000
H          1.71474       -0.42647        0.00000
C         -0.46281       -1.50719       -0.00000
H         -1.08387       -0.21221       -0.00000
C         -1.23672       -2.63839       -0.00000
H         -2.66873       -2.52876        0.00000
C         -0.64402       -3.87421       -0.00000
H         -1.45497       -5.05955        0.00000
C          0.72258       -3.97883        0.00000
H          1.34364       -5.27380       -0.00000
