12
Point_12/orca12.out	Energy:    -231.7923832
C          1.49291       -2.84736        0.00000
H          3.02450       -2.96461        0.00000
C          0.90177       -1.61477       -0.00000
H          1.76910       -0.34700        0.00000
C         -0.46126       -1.51042       -0.00000
H         -1.12551       -0.12540       -0.00000
C         -1.23314       -2.63866       -0.00000
H         -2.76473       -2.52141        0.00000
C         -0.64200       -3.87125        0.00000
H         -1.50934       -5.13902        0.00000
C          0.72103       -3.97560        0.00000
H          1.38528       -5.36062       -0.00000
