12
Point_18/orca18.out	Energy:    -231.1369961
C          1.46756       -2.84542        0.00000
H          3.66356       -3.01353        0.00000
C          0.88741       -1.63575        0.00000
H          2.13100        0.18198       -0.00000
C         -0.45027       -1.53334        0.00000
H         -1.40267        0.45250       -0.00000
C         -1.20779       -2.64060       -0.00000
H         -3.40379       -2.47249        0.00000
C         -0.62764       -3.85027       -0.00000
H         -1.87123       -5.66800        0.00000
C          0.71003       -3.95268       -0.00000
H          1.66244       -5.93852       -0.00000
