12
Point_19/orca19.out	Energy:    -231.0589951
C          1.46492       -2.84521       -0.00000
H          3.77122       -3.02178        0.00000
C          0.88591       -1.63793       -0.00000
H          2.19197        0.27110        0.00000
C         -0.44912       -1.53573       -0.00000
H         -1.44937        0.54987       -0.00000
C         -1.20515       -2.64080        0.00000
H         -3.51146       -2.46425       -0.00000
C         -0.62615       -3.84808        0.00000
H         -1.93220       -5.75712       -0.00000
C          0.70889       -3.95029       -0.00000
H          1.70914       -6.03588       -0.00000
