12
Point_21/orca21.out	Energy:    -230.9310890
C          1.46166       -2.84496        0.00000
H          3.98427       -3.03809       -0.00000
C          0.88406       -1.64063       -0.00000
H          2.31263        0.44744        0.00000
C         -0.44771       -1.53868       -0.00000
H         -1.54176        0.74253        0.00000
C         -1.20189       -2.64104       -0.00000
H         -3.72450       -2.44794        0.00000
C         -0.62431       -3.84538        0.00000
H         -2.05285       -5.93347       -0.00000
C          0.70748       -3.94734        0.00000
H          1.80154       -6.22855       -0.00000
