12
Point_24/orca24.out	Energy:    -230.7960693
C          1.45978       -2.84482       -0.00000
H          4.29817       -3.06213        0.00000
C          0.88300       -1.64218       -0.00000
H          2.49039        0.70727        0.00000
C         -0.44690       -1.54037       -0.00000
H         -1.67790        1.02639        0.00000
C         -1.20002       -2.64120        0.00000
H         -4.03841       -2.42391       -0.00000
C         -0.62324       -3.84383        0.00000
H         -2.23060       -6.19330       -0.00000
C          0.70666       -3.94564        0.00000
H          1.93767       -6.51240       -0.00000
