12
Point_28/orca28.out	Energy:    -230.6920930
C          1.45951       -2.84480       -0.00000
H          4.71006       -3.09367        0.00000
C          0.88285       -1.64240       -0.00001
H          2.72365        1.04822        0.00000
C         -0.44678       -1.54061       -0.00001
H         -1.85654        1.39887        0.00000
C         -1.19975       -2.64122        0.00000
H         -4.45030       -2.39238       -0.00000
C         -0.62308       -3.84361        0.00001
H         -2.46385       -6.53425       -0.00000
C          0.70655       -3.94540        0.00001
H          2.11631       -6.88488       -0.00000
