12
Point_31/orca31.out	Energy:    -230.6531535
C          1.45946       -2.84478       -0.00000
H          5.01674       -3.11716        0.00000
C          0.88281       -1.64243       -0.00001
H          2.89736        1.30207        0.00000
C         -0.44677       -1.54064       -0.00001
H         -1.98956        1.67623        0.00000
C         -1.19970       -2.64121        0.00000
H         -4.75699       -2.36892       -0.00000
C         -0.62307       -3.84356        0.00001
H         -2.63751       -6.78812       -0.00000
C          0.70652       -3.94536        0.00001
H          2.24933       -7.16222       -0.00000
