12
Point_32/orca32.out	Energy:    -230.6448423
C          1.45946       -2.84478       -0.00000
H          5.11883       -3.12498        0.00000
C          0.88281       -1.64243       -0.00002
H          2.95517        1.38657        0.00001
C         -0.44677       -1.54065       -0.00001
H         -2.03383        1.76854        0.00000
C         -1.19971       -2.64121        0.00000
H         -4.85909       -2.36111       -0.00000
C         -0.62306       -3.84356        0.00002
H         -2.69532       -6.87263       -0.00001
C          0.70652       -3.94534        0.00001
H          2.29360       -7.25453       -0.00000
