12
Point_33/orca33.out	Energy:    -230.6380672
C          1.45946       -2.84478       -0.00000
H          5.22088       -3.13279        0.00000
C          0.88282       -1.64244       -0.00002
H          3.01296        1.47104        0.00001
C         -0.44677       -1.54065       -0.00002
H         -2.07809        1.86082        0.00001
C         -1.19971       -2.64122        0.00000
H         -4.96114       -2.35330       -0.00000
C         -0.62306       -3.84356        0.00002
H         -2.75311       -6.95710       -0.00001
C          0.70652       -3.94534        0.00002
H          2.33785       -7.34681       -0.00001
