12
Point_34/orca34.out	Energy:    -230.6324483
C          1.45947       -2.84478       -0.00000
H          5.32292       -3.14061        0.00000
C          0.88282       -1.64242       -0.00002
H          3.07075        1.55550        0.00001
C         -0.44678       -1.54065       -0.00002
H         -2.12234        1.95310        0.00001
C         -1.19972       -2.64121        0.00000
H         -5.06317       -2.34549       -0.00000
C         -0.62307       -3.84357        0.00002
H         -2.81089       -7.04156       -0.00001
C          0.70653       -3.94535        0.00002
H          2.38211       -7.43908       -0.00001
