12
Point_39/orca39.out	Energy:    -230.6138139
C          1.45950       -2.84476       -0.00000
H          5.83292       -3.17967        0.00000
C          0.88282       -1.64239       -0.00006
H          3.35958        1.97765        0.00002
C         -0.44681       -1.54062       -0.00006
H         -2.34352        2.41431        0.00002
C         -1.19976       -2.64122        0.00000
H         -5.57319       -2.30645       -0.00000
C         -0.62308       -3.84360        0.00006
H         -3.09970       -7.46372       -0.00002
C          0.70655       -3.94536        0.00006
H          2.60329       -7.90028       -0.00002
