12
Point_42/orca42.out	Energy:    -230.6062348
C          1.45951       -2.84474        0.00000
H          6.13888       -3.20310        0.00000
C          0.88281       -1.64237       -0.00010
H          3.53285        2.23090        0.00003
C         -0.44683       -1.54061       -0.00010
H         -2.47622        2.69100        0.00003
C         -1.19977       -2.64124       -0.00000
H         -5.87915       -2.28303       -0.00000
C         -0.62307       -3.84361        0.00010
H         -3.27296       -7.71698       -0.00003
C          0.70657       -3.94537        0.00010
H          2.73599       -8.17696       -0.00003
