12
Point_44/orca44.out	Energy:    -230.5877053
C          1.45952       -2.84473       -0.00002
H          6.34285       -3.21872        0.00000
C          0.88280       -1.64235       -0.00015
H          3.64837        2.39973        0.00004
C         -0.44685       -1.54062       -0.00013
H         -2.56467        2.87545        0.00003
C         -1.19978       -2.64125        0.00002
H         -6.08312       -2.26741       -0.00000
C         -0.62306       -3.84363        0.00015
H         -3.38847       -7.88582       -0.00004
C          0.70659       -3.94536        0.00013
H          2.82444       -8.36141       -0.00003
