12
Point_5/orca5.out	Energy:    -232.1290436
C          1.51585       -2.84911        0.00000
H          2.50366       -2.92474        0.00000
C          0.91475       -1.59578       -0.00000
H          1.47415       -0.77813       -0.00000
C         -0.47121       -1.48968        0.00000
H         -0.89962       -0.59640        0.00000
C         -1.25608       -2.63691        0.00000
H         -2.24389       -2.56128        0.00000
C         -0.65499       -3.89024       -0.00000
H         -1.21438       -4.70789       -0.00000
C          0.73098       -3.99634        0.00000
H          1.15939       -4.88962        0.00000
