12
Point_9/orca9.out	Energy:    -232.0942064
C          1.50331       -2.84815        0.00000
H          2.74941       -2.94355       -0.00000
C          0.90765       -1.60616       -0.00000
H          1.61332       -0.57470        0.00000
C         -0.46577       -1.50102        0.00000
H         -1.00621       -0.37416       -0.00000
C         -1.24354       -2.63787        0.00000
H         -2.48964       -2.54247       -0.00000
C         -0.64789       -3.87986       -0.00000
H         -1.35355       -4.91131        0.00000
C          0.72554       -3.98500        0.00000
H          1.26597       -5.11185       -0.00000
