
                                 *****************
                                 * O   R   C   A *
                                 *****************

           --- An Ab Initio, DFT and Semiempirical electronic structure package ---

                  #######################################################
                  #                        -***-                        #
                  #  Department of molecular theory and spectroscopy    #
                  #              Directorship: Frank Neese              #
                  # Max Planck Institute for Chemical Energy Conversion #
                  #                  D-45470 Muelheim/Ruhr              #
                  #                       Germany                       #
                  #                                                     #
                  #                  All rights reserved                #
                  #                        -***-                        #
                  #######################################################


                         Program Version 4.0.0.2 - RELEASE -


 With contributions from (in alphabetic order):
   Daniel Aravena         : Magnetic Properties
   Michael Atanasov       : Ab Initio Ligand Field Theory
   Ute Becker             : Parallelization
   Martin Brehm           : Molecular dynamics
   Dmytro Bykov           : SCF Hessian
   Vijay G. Chilkuri      : MRCI spin determinant printing
   Dipayan Datta          : RHF DLPNO-CCSD density
   Achintya Kumar Dutta   : EOM-CC, STEOM-CC
   Dmitry Ganyushin       : Spin-Orbit,Spin-Spin,Magnetic field MRCI
   Yang Guo               : DLPNO-NEVPT2, CIM, IAO-localization
   Andreas Hansen         : Spin unrestricted coupled pair/coupled cluster methods
   Lee Huntington         : MR-EOM, pCC
   Robert Izsak           : Overlap fitted RIJCOSX, COSX-SCS-MP3, EOM
   Christian Kollmar      : KDIIS, OOCD, Brueckner-CCSD(T), CCSD density
   Simone Kossmann        : Meta GGA functionals, TD-DFT gradient, OOMP2, MP2 Hessian
   Martin Krupicka        : AUTO-CI
   Dagmar Lenk            : GEPOL surface
   Dimitrios Liakos       : Extrapolation schemes; parallel MDCI
   Dimitrios Manganas     : ROCIS; embedding schemes
   Dimitrios Pantazis     : SARC Basis sets
   Taras Petrenko         : DFT Hessian,TD-DFT gradient, ASA, ECA, R-Raman, ABS, FL, XAS/XES, NRVS
   Peter Pinski           : DLPNO-MP2
   Christoph Reimann      : Effective Core Potentials
   Marius Retegan         : Local ZFS, SOC
   Christoph Riplinger    : Optimizer, TS searches, QM/MM, DLPNO-CCSD(T), (RO)-DLPNO pert. Triples
   Tobias Risthaus        : Range-separated hybrids, TD-DFT gradient, RPA, STAB
   Michael Roemelt        : Restricted open shell CIS
   Masaaki Saitow         : Open-shell DLPNO
   Barbara Sandhoefer     : DKH picture change effects
   Kantharuban Sivalingam : CASSCF convergence, NEVPT2, FIC-MRCI
   Georgi Stoychev        : AutoAux
   Boris Wezisla          : Elementary symmetry handling
   Frank Wennmohs         : Technical directorship


 We gratefully acknowledge several colleagues who have allowed us to
 interface, adapt or use parts of their codes:
   Stefan Grimme, W. Hujo, H. Kruse,             : VdW corrections, initial TS optimization,
                  C. Bannwarth                     DFT functionals, gCP, sTDA/sTD-DF
   Ed Valeev                                     : LibInt (2-el integral package), F12 methods
   Garnet Chan, S. Sharma, J. Yang, R. Olivares  : DMRG
   Ulf Ekstrom                                   : XCFun DFT Library
   Mihaly Kallay                                 : mrcc  (arbitrary order and MRCC methods)
   Jiri Pittner, Ondrej Demel                    : Mk-CCSD
   Frank Weinhold                                : gennbo (NPA and NBO analysis)
   Christopher J. Cramer and Donald G. Truhlar   : smd solvation model


 Your calculation uses the libint2 library for the computation of 2-el integrals
 For citations please refer to: http://libint.valeyev.net

 This ORCA versions uses:
   CBLAS   interface :  Fast vector & matrix operations
   LAPACKE interface :  Fast linear algebra routines
   SCALAPACK package :  Parallel linear algebra routines


Your calculation utilizes the atom-pairwise dispersion correction
with the zero-damping scheme (D30)
Cite in your paper:
S.Grimme, J.Antony, S.Ehrlich and H.Krieg, J.Chem.Phys., 132, (2010), 154104 
   

XCFun DFT library Copyright 2009-2010 Ulf Ekstrom and contributors.
See http://admol.org/xcfun for more information. This is free soft-
ware; see the source code for copying conditions. There is ABSOLUTELY
NO WARRANTY; not even for MERCHANTABILITY or FITNESS FOR A PARTICULAR
PURPOSE. For details see the documentation. Scientific users of this 
library should cite U. Ekstrom, L. Visscher, R. Bast, A. J. Thorvald-
sen and K. Ruud; J.Chem.Theor.Comp. 2010, DOI: 10.1021/ct100117s
XCFun Version 0.99 
Your calculation utilizes the basis: 6-31G(d)
   H-He, Li-Ne : W. J. Hehre, R. Ditchfield and J.A. Pople, J. Chem. Phys. 56, 2257 (1972).
                 Note: He and Ne are unpublished basis sets taken from the Gaussian program.
                 Note: Li and B from J. D. Dill and J. A. Pople, J. Chem. Phys. 62, 2921 (1975).
   Na - Ar     : M. M. Francl, W. J. Pietro, W. J. Hehre, J. S. Binkley, M. S. Gordon, 
                 D. J. DeFrees and J. A. Pople, J. Chem. Phys. 77, 3654 (1982).
   K - Zn      : V. A. Rassolov, J. A. Pople, M. A. Ratner, and T. L. Windus, J. Chem. Phys. 109, 1223 (1998).

================================================================================
                                        WARNINGS
                       Please study these warnings very carefully!
================================================================================

Warning: TCutStore was < 0. Adjusted to Thresh (uncritical)

INFO   : the flag for use of LIBINT has been found!

================================================================================
                                       INPUT FILE
================================================================================
NAME = initial20.inp
|  1> ! WB97X-D3 6-31G(d) VerySlowConv
|  2> ! KDIIS NOSOSCF
|  3> %base "Scan_20"
|  4> 
|  5> %scf
|  6> maxiter 999
|  7> end
|  8> 
|  9> * xyz 0 1
| 10> N         -3.539417655696    2.081342401660   -0.000000000000
| 11> N         -1.140522344304    2.048097598340   -0.000000000000
| 12> **                         ****END OF INPUT****
================================================================================

                       ****************************
                       * Single Point Calculation *
                       ****************************

---------------------------------
CARTESIAN COORDINATES (ANGSTROEM)
---------------------------------
  N     -3.539418    2.081342   -0.000000
  N     -1.140522    2.048098   -0.000000

----------------------------
CARTESIAN COORDINATES (A.U.)
----------------------------
  NO LB      ZA    FRAG     MASS         X           Y           Z
   0 N     7.0000    0    14.007   -6.688530    3.933167   -0.000000
   1 N     7.0000    0    14.007   -2.155275    3.870344   -0.000000

--------------------------------
INTERNAL COORDINATES (ANGSTROEM)
--------------------------------
 N      0   0   0     0.000000000000     0.00000000     0.00000000
 N      1   0   0     2.399125659895     0.00000000     0.00000000

---------------------------
INTERNAL COORDINATES (A.U.)
---------------------------
 N      0   0   0     0.000000000000     0.00000000     0.00000000
 N      1   0   0     4.533690458065     0.00000000     0.00000000

---------------------
BASIS SET INFORMATION
---------------------
There are 1 groups of distinct atoms

 Group   1 Type N   : 10s4p1d contracted to 3s2p1d pattern {631/31/1}

Atom   0N    basis set group =>   1
Atom   1N    basis set group =>   1
------------------------------------------------------------------------------
                           ORCA GTO INTEGRAL CALCULATION
------------------------------------------------------------------------------

                         BASIS SET STATISTICS AND STARTUP INFO

 # of primitive gaussian shells          ...   30
 # of primitive gaussian functions       ...   54
 # of contracted shells                  ...   12
 # of contracted basis functions         ...   28
 Highest angular momentum                ...    2
 Maximum contraction depth               ...    6
 Integral package used                   ... LIBINT
 Integral threshhold            Thresh   ...  1.000e-10
 Primitive cut-off              TCut     ...  1.000e-11


------------------------------ INTEGRAL EVALUATION ----------------------------


 * One electron integrals 
 Pre-screening matrix                    ... done
 Shell pair data                         ... done (   0.000 sec)

-------------------------------------------------------------------------------
                                 ORCA SCF
-------------------------------------------------------------------------------

------------
SCF SETTINGS
------------
Hamiltonian:
 Density Functional     Method          .... DFT(GTOs)
 Exchange Functional    Exchange        .... WB97X-D3
 Correlation Functional Correlation     .... WB97X-D3
 Gradients option       PostSCFGGA      .... off
 Hybrid DFT is turned on
   Fraction HF Exchange ScalHFX         ....  0.195728
   Scaling of DF-GGA-X  ScalDFX         ....  0.000000
   Scaling of DF-GGA-C  ScalDFC         ....  1.000000
   Scaling of DF-LDA-C  ScalLDAC        ....  1.000000
   Perturbative correction              ....  0.000000
 Long-range corrected/Screened/Range-Separated Hybrid DFT is turned on
   Amount of maximum screened exact exchange              ....  0.804272
   Range separation parameter mu (erf(mu*r12)/r12)        ....  0.250000


General Settings:
 Integral files         IntName         .... Scan_20
 Hartree-Fock type      HFTyp           .... RHF
 Total Charge           Charge          ....    0
 Multiplicity           Mult            ....    1
 Number of Electrons    NEL             ....   14
 Basis Dimension        Dim             ....   28
 Nuclear Repulsion      ENuc            ....     10.8079721042 Eh

Convergence Acceleration:
 DIIS                   CNVDIIS         .... on
   Start iteration      DIISMaxIt       ....     0
   Startup error        DIISStart       ....  0.200000
   # of expansion vecs  DIISMaxEq       ....     5
   Bias factor          DIISBfac        ....   1.050
   Max. coefficient     DIISMaxC        ....  10.000
 Newton-Raphson         CNVNR           .... off
 SOSCF                  CNVSOSCF        .... off
 Level Shifting         CNVShift        .... off
 Zerner damping         CNVZerner       .... off
 Static damping         CNVDamp         .... off
 Fernandez-Rico         CNVRico         .... off

SCF Procedure:
 Maximum # iterations   MaxIter         ....   999
 SCF integral mode      SCFMode         .... Direct
   Integral package                     .... LIBINT
 Reset frequeny         DirectResetFreq ....    20
 Integral Threshold     Thresh          ....  1.000e-10 Eh
 Primitive CutOff       TCut            ....  1.000e-11 Eh

Convergence Tolerance:
 Convergence Check Mode ConvCheckMode   .... All-Criteria
 Convergence forced     ConvForced      .... 0
 Energy Change          TolE            ....  1.000e-06 Eh
 Max Density Change     TolMaxP         ....  1.000e-05
 RMS Density Change     TolRMSP         ....  1.000e-06
 DIIS Error             TolErr          ....  1.000e-06


Diagonalization of the overlap matrix:
Smallest eigenvalue                        ... 1.417e-01
Time for diagonalization                   ...    0.001 sec
Threshold for overlap eigenvalues          ... 1.000e-08
Number of eigenvalues below threshold      ... 0
Time for construction of square roots      ...    0.005 sec
Total time needed                          ...    0.005 sec

-------------------
DFT GRID GENERATION
-------------------

General Integration Accuracy     IntAcc      ...  4.340
Radial Grid Type                 RadialGrid  ... Gauss-Chebyshev
Angular Grid (max. acc.)         AngularGrid ... Lebedev-110
Angular grid pruning method      GridPruning ... 3 (G Style)
Weight generation scheme         WeightScheme... Becke
Basis function cutoff            BFCut       ...    1.0000e-10
Integration weight cutoff        WCut        ...    1.0000e-14
Grids for H and He will be reduced by one unit

# of grid points (after initial pruning)     ...   3404 (   0.0 sec)
# of grid points (after weights+screening)   ...   3388 (   0.0 sec)
nearest neighbour list constructed           ...    0.0 sec
Grid point re-assignment to atoms done       ...    0.0 sec
Grid point division into batches done        ...    0.0 sec
Reduced shell lists constructed in    0.0 sec

Total number of grid points                  ...     3388
Total number of batches                      ...       54
Average number of points per batch           ...       62
Average number of grid points per atom       ...     1694
Average number of shells per batch           ...    10.18 (84.85%)
Average number of basis functions per batch  ...    25.09 (89.61%)
Average number of large shells per batch     ...     8.85 (86.96%)
Average number of large basis fcns per batch ...    21.84 (87.03%)
Maximum spatial batch extension              ...  15.78, 23.36, 25.65 au
Average spatial batch extension              ...   5.66,  6.61,  6.79 au

Time for grid setup =    0.018 sec

------------------------------
INITIAL GUESS: MODEL POTENTIAL
------------------------------
Loading Hartree-Fock densities                     ... done
Calculating cut-offs                               ... done
Setting up the integral package                    ... done
Initializing the effective Hamiltonian             ... done
Starting the Coulomb interaction                   ... done (   0.0 sec)
Reading the grid                                   ... done
Mapping shells                                     ... done
Starting the XC term evaluation                    ... done (   0.0 sec)
  promolecular density results
     # of electrons  =     14.000276876
     EX              =    -12.721563926
     EC              =     -0.402557483
     EX+EC           =    -13.124121409
Transforming the Hamiltonian                       ... done (   0.0 sec)
Diagonalizing the Hamiltonian                      ... done (   0.0 sec)
Back transforming the eigenvectors                 ... done (   0.0 sec)
Now organizing SCF variables                       ... done
                      ------------------
                      INITIAL GUESS DONE (   0.1 sec)
                      ------------------
--------------
SCF ITERATIONS
--------------
ITER       Energy         Delta-E        Max-DP      RMS-DP      [F,P]   Gradient Norm
               ***  Starting incremental Fock matrix formation  ***
                             ****Resetting KDIIS****
                             ****Turning on KDIIS(Cayley)****
  0   -108.8683787097   0.000000000000 0.00441622  0.00033444  0.0207824   0.018962153
  1   -108.8687303221  -0.000351612437 0.00751286  0.00056686  0.0186444   0.016978917
  2   -108.8692513044  -0.000520982270 0.01307803  0.00099415  0.0149884   0.013749848
  3   -108.8699105861  -0.000659281713 0.01932752  0.00148578  0.0089898   0.008248245
  4   -108.8702818247  -0.000371238567 0.00001781  0.00000198  0.0000174   0.000014273
                          ***Energy convergence achieved***
                           ***RMSP convergence achieved***
                           ***MAXP convergence achieved***
                    *** KDIIS BlockDiag ( 0.000 sec) ***

               *****************************************************
               *                     SUCCESS                       *
               *           SCF CONVERGED AFTER   5 CYCLES          *
               *****************************************************

Setting up the final grid:

General Integration Accuracy     IntAcc      ...  4.670
Radial Grid Type                 RadialGrid  ... Gauss-Chebyshev
Angular Grid (max. acc.)         AngularGrid ... Lebedev-302
Angular grid pruning method      GridPruning ... 3 (G Style)
Weight generation scheme         WeightScheme... Becke
Basis function cutoff            BFCut       ...    1.0000e-10
Integration weight cutoff        WCut        ...    1.0000e-14
Grids for H and He will be reduced by one unit

# of grid points (after initial pruning)     ...  12424 (   0.0 sec)
# of grid points (after weights+screening)   ...  12406 (   0.0 sec)
nearest neighbour list constructed           ...    0.0 sec
Grid point re-assignment to atoms done       ...    0.0 sec
Grid point division into batches done        ...    0.0 sec
Reduced shell lists constructed in    0.1 sec

Total number of grid points                  ...    12406
Total number of batches                      ...      194
Average number of points per batch           ...       63
Average number of grid points per atom       ...     6203
Average number of shells per batch           ...     8.95 (74.57%)
Average number of basis functions per batch  ...    21.91 (78.26%)
Average number of large shells per batch     ...     7.72 (86.25%)
Average number of large basis fcns per batch ...    19.12 (87.27%)
Maximum spatial batch extension              ...  17.06, 18.12, 17.81 au
Average spatial batch extension              ...   3.57,  4.07,  4.01 au

Final grid set up in    0.1 sec
Final integration                            ... done (   0.1 sec)
Change in XC energy                          ...    -0.000086436
Integrated number of electrons               ...    14.000010567
Previous integrated no of electrons          ...    14.000046166

----------------
TOTAL SCF ENERGY
----------------

Total Energy       :         -108.87036826 Eh           -2962.51333 eV

Components:
Nuclear Repulsion  :           10.80797210 Eh             294.09987 eV
Electronic Energy  :         -119.67834037 Eh           -3256.61320 eV
One Electron Energy:         -168.81338675 Eh           -4593.64579 eV
Two Electron Energy:           49.13504638 Eh            1337.03259 eV

Virial components:
Potential Energy   :         -216.49633647 Eh           -5891.16482 eV
Kinetic Energy     :          107.62596821 Eh            2928.65148 eV
Virial Ratio       :            2.01156227


DFT components:
N(Alpha)           :        7.000005283558 electrons
N(Beta)            :        7.000005283558 electrons
N(Total)           :       14.000010567116 electrons
E(XC)              :       -9.195035234426 Eh       

---------------
SCF CONVERGENCE
---------------

  Last Energy change         ...   -1.5780e-09  Tolerance :   1.0000e-06
  Last MAX-Density change    ...    5.4323e-06  Tolerance :   1.0000e-05
  Last RMS-Density change    ...    5.8272e-07  Tolerance :   1.0000e-06
  Last DIIS Error            ...    3.8509e-06  Tolerance :   1.0000e-06

             **** THE GBW FILE WAS UPDATED (Scan_20.gbw) ****
             **** DENSITY FILE WAS UPDATED (Scan_20.scfp.tmp) ****
             **** ENERGY FILE WAS UPDATED (Scan_20.en.tmp) ****
----------------
ORBITAL ENERGIES
----------------

  NO   OCC          E(Eh)            E(eV) 
   0   2.0000     -14.630899      -398.1270 
   1   2.0000     -14.630866      -398.1261 
   2   2.0000      -0.892100       -24.2753 
   3   2.0000      -0.844956       -22.9924 
   4   2.0000      -0.407127       -11.0785 
   5   2.0000      -0.373419       -10.1613 
   6   2.0000      -0.373419       -10.1612 
   7   0.0000      -0.155600        -4.2341 
   8   0.0000      -0.155599        -4.2341 
   9   0.0000      -0.104068        -2.8318 
  10   0.0000       0.701583        19.0910 
  11   0.0000       0.701585        19.0911 
  12   0.0000       0.748056        20.3557 
  13   0.0000       0.765966        20.8430 
  14   0.0000       0.807924        21.9847 
  15   0.0000       0.808604        22.0032 
  16   0.0000       0.808605        22.0033 
  17   0.0000       1.120746        30.4970 
  18   0.0000       1.715662        46.6855 
  19   0.0000       1.754896        47.7531 
  20   0.0000       1.754896        47.7532 
  21   0.0000       1.767830        48.1051 
  22   0.0000       1.769002        48.1370 
  23   0.0000       1.774886        48.2971 
  24   0.0000       1.776055        48.3289 
  25   0.0000       1.803969        49.0885 
  26   0.0000       1.803970        49.0885 
  27   0.0000       2.010165        54.6994 

                    ********************************
                    * MULLIKEN POPULATION ANALYSIS *
                    ********************************

-----------------------
MULLIKEN ATOMIC CHARGES
-----------------------
   0 N :    0.000006
   1 N :   -0.000006
Sum of atomic charges:    0.0000000

--------------------------------
MULLIKEN REDUCED ORBITAL CHARGES
--------------------------------
  0 N s       :     3.993659  s :     3.993659
      pz      :     0.999778  p :     3.005216
      px      :     1.005659
      py      :     0.999779
      dz2     :     0.000170  d :     0.001119
      dxz     :     0.000220
      dyz     :     0.000000
      dx2y2   :     0.000509
      dxy     :     0.000220
  1 N s       :     3.993659  s :     3.993659
      pz      :     0.999782  p :     3.005229
      px      :     1.005663
      py      :     0.999783
      dz2     :     0.000170  d :     0.001119
      dxz     :     0.000220
      dyz     :     0.000000
      dx2y2   :     0.000509
      dxy     :     0.000220


                     *******************************
                     * LOEWDIN POPULATION ANALYSIS *
                     *******************************

----------------------
LOEWDIN ATOMIC CHARGES
----------------------
   0 N :    0.000006
   1 N :   -0.000006

-------------------------------
LOEWDIN REDUCED ORBITAL CHARGES
-------------------------------
  0 N s       :     3.983109  s :     3.983109
      pz      :     0.999760  p :     3.015366
      px      :     1.015844
      py      :     0.999762
      dz2     :     0.000261  d :     0.001519
      dxz     :     0.000238
      dyz     :     0.000000
      dx2y2   :     0.000782
      dxy     :     0.000238
  1 N s       :     3.983109  s :     3.983109
      pz      :     0.999764  p :     3.015379
      px      :     1.015848
      py      :     0.999767
      dz2     :     0.000261  d :     0.001519
      dxz     :     0.000238
      dyz     :     0.000000
      dx2y2   :     0.000782
      dxy     :     0.000238


                      *****************************
                      * MAYER POPULATION ANALYSIS *
                      *****************************

  NA   - Mulliken gross atomic population
  ZA   - Total nuclear charge
  QA   - Mulliken gross atomic charge
  VA   - Mayer's total valence
  BVA  - Mayer's bonded valence
  FA   - Mayer's free valence

  ATOM       NA         ZA         QA         VA         BVA        FA
  0 N      7.0000     7.0000     0.0000     2.9971     2.9971     0.0000
  1 N      7.0000     7.0000    -0.0000     2.9971     2.9971    -0.0000

  Mayer bond orders larger than 0.1
B(  0-N ,  1-N ) :   2.9971 

-------
TIMINGS
-------

Total SCF time: 0 days 0 hours 0 min 1 sec 

Total time                  ....       1.695 sec
Sum of individual times     ....       1.611 sec  ( 95.1%)

Fock matrix formation       ....       1.397 sec  ( 82.4%)
  XC integration            ....       0.309 sec  ( 22.2% of F)
    Basis function eval.    ....       0.069 sec  ( 22.3% of XC)
    Density eval.           ....       0.015 sec  (  4.9% of XC)
    XC-Functional eval.     ....       0.085 sec  ( 27.3% of XC)
    XC-Potential eval.      ....       0.010 sec  (  3.4% of XC)
Diagonalization             ....       0.003 sec  (  0.2%)
Density matrix formation    ....       0.000 sec  (  0.0%)
Population analysis         ....       0.010 sec  (  0.6%)
Initial guess               ....       0.092 sec  (  5.4%)
Orbital Transformation      ....       0.000 sec  (  0.0%)
Orbital Orthonormalization  ....       0.000 sec  (  0.0%)
DIIS solution               ....       0.000 sec  (  0.0%)
Grid generation             ....       0.110 sec  (  6.5%)


-------------------------------------------------------------------------------
                          DFT DISPERSION CORRECTION                            
                                                                               
                              DFTD3 V3.1  Rev 1                                
                              USING zero damping                               
-------------------------------------------------------------------------------
The omegaB97X-D3 functional is recognized. Fit by Chai et al.
Active option DFTDOPT                   ...         3   

molecular C6(AA) [au] = 100.755373 


            DFT-D V3
 parameters
 s6 scaling factor         :     1.0000 
 rs6 scaling factor        :     1.2810 
 s8 scaling factor         :     1.0000 
 rs8 scaling factor        :     1.0940 
 Damping factor alpha6     :    14.0000 
 Damping factor alpha8     :    16.0000 
 ad hoc parameters k1-k3   :    16.0000     1.3333    -4.0000 

 Edisp/kcal,au: -0.021155611310  -0.000033713609 
 E6   /kcal   :  -0.002718659 
 E8   /kcal   :  -0.018436952 
 % E8         :  87.149230070 

-------------------------   ----------------
Dispersion correction           -0.000033714
-------------------------   ----------------


-------------------------   --------------------
FINAL SINGLE POINT ENERGY      -108.870401975414
-------------------------   --------------------


                            ***************************************
                            *     ORCA property calculations      *
                            ***************************************

                                    ---------------------
                                    Active property flags
                                    ---------------------
   (+) Dipole Moment


------------------------------------------------------------------------------
                       ORCA ELECTRIC PROPERTIES CALCULATION
------------------------------------------------------------------------------

Dipole Moment Calculation                       ... on
Quadrupole Moment Calculation                   ... off
Polarizability Calculation                      ... off
GBWName                                         ... Scan_20.gbw
Electron density file                           ... Scan_20.scfp.tmp

-------------
DIPOLE MOMENT
-------------
                                X             Y             Z
Electronic contribution:     -0.00003       0.00000       0.00000
Nuclear contribution   :      0.00000      -0.00000       0.00000
                        -----------------------------------------
Total Dipole Moment    :     -0.00003       0.00000       0.00000
                        -----------------------------------------
Magnitude (a.u.)       :      0.00003
Magnitude (Debye)      :      0.00007


Timings for individual modules:

Sum of individual times         ...        1.978 sec (=   0.033 min)
GTO integral calculation        ...        0.264 sec (=   0.004 min)  13.3 %
SCF iterations                  ...        1.714 sec (=   0.029 min)  86.7 %
                             ****ORCA TERMINATED NORMALLY****
TOTAL RUN TIME: 0 days 0 hours 0 minutes 2 seconds 283 msec
