
                                 *****************
                                 * O   R   C   A *
                                 *****************

           --- An Ab Initio, DFT and Semiempirical electronic structure package ---

                  #######################################################
                  #                        -***-                        #
                  #  Department of molecular theory and spectroscopy    #
                  #              Directorship: Frank Neese              #
                  # Max Planck Institute for Chemical Energy Conversion #
                  #                  D-45470 Muelheim/Ruhr              #
                  #                       Germany                       #
                  #                                                     #
                  #                  All rights reserved                #
                  #                        -***-                        #
                  #######################################################


                         Program Version 4.0.0.2 - RELEASE -


 With contributions from (in alphabetic order):
   Daniel Aravena         : Magnetic Properties
   Michael Atanasov       : Ab Initio Ligand Field Theory
   Ute Becker             : Parallelization
   Martin Brehm           : Molecular dynamics
   Dmytro Bykov           : SCF Hessian
   Vijay G. Chilkuri      : MRCI spin determinant printing
   Dipayan Datta          : RHF DLPNO-CCSD density
   Achintya Kumar Dutta   : EOM-CC, STEOM-CC
   Dmitry Ganyushin       : Spin-Orbit,Spin-Spin,Magnetic field MRCI
   Yang Guo               : DLPNO-NEVPT2, CIM, IAO-localization
   Andreas Hansen         : Spin unrestricted coupled pair/coupled cluster methods
   Lee Huntington         : MR-EOM, pCC
   Robert Izsak           : Overlap fitted RIJCOSX, COSX-SCS-MP3, EOM
   Christian Kollmar      : KDIIS, OOCD, Brueckner-CCSD(T), CCSD density
   Simone Kossmann        : Meta GGA functionals, TD-DFT gradient, OOMP2, MP2 Hessian
   Martin Krupicka        : AUTO-CI
   Dagmar Lenk            : GEPOL surface
   Dimitrios Liakos       : Extrapolation schemes; parallel MDCI
   Dimitrios Manganas     : ROCIS; embedding schemes
   Dimitrios Pantazis     : SARC Basis sets
   Taras Petrenko         : DFT Hessian,TD-DFT gradient, ASA, ECA, R-Raman, ABS, FL, XAS/XES, NRVS
   Peter Pinski           : DLPNO-MP2
   Christoph Reimann      : Effective Core Potentials
   Marius Retegan         : Local ZFS, SOC
   Christoph Riplinger    : Optimizer, TS searches, QM/MM, DLPNO-CCSD(T), (RO)-DLPNO pert. Triples
   Tobias Risthaus        : Range-separated hybrids, TD-DFT gradient, RPA, STAB
   Michael Roemelt        : Restricted open shell CIS
   Masaaki Saitow         : Open-shell DLPNO
   Barbara Sandhoefer     : DKH picture change effects
   Kantharuban Sivalingam : CASSCF convergence, NEVPT2, FIC-MRCI
   Georgi Stoychev        : AutoAux
   Boris Wezisla          : Elementary symmetry handling
   Frank Wennmohs         : Technical directorship


 We gratefully acknowledge several colleagues who have allowed us to
 interface, adapt or use parts of their codes:
   Stefan Grimme, W. Hujo, H. Kruse,             : VdW corrections, initial TS optimization,
                  C. Bannwarth                     DFT functionals, gCP, sTDA/sTD-DF
   Ed Valeev                                     : LibInt (2-el integral package), F12 methods
   Garnet Chan, S. Sharma, J. Yang, R. Olivares  : DMRG
   Ulf Ekstrom                                   : XCFun DFT Library
   Mihaly Kallay                                 : mrcc  (arbitrary order and MRCC methods)
   Jiri Pittner, Ondrej Demel                    : Mk-CCSD
   Frank Weinhold                                : gennbo (NPA and NBO analysis)
   Christopher J. Cramer and Donald G. Truhlar   : smd solvation model


 Your calculation uses the libint2 library for the computation of 2-el integrals
 For citations please refer to: http://libint.valeyev.net

 This ORCA versions uses:
   CBLAS   interface :  Fast vector & matrix operations
   LAPACKE interface :  Fast linear algebra routines
   SCALAPACK package :  Parallel linear algebra routines


Your calculation utilizes the atom-pairwise dispersion correction
with the zero-damping scheme (D30)
Cite in your paper:
S.Grimme, J.Antony, S.Ehrlich and H.Krieg, J.Chem.Phys., 132, (2010), 154104 
   

XCFun DFT library Copyright 2009-2010 Ulf Ekstrom and contributors.
See http://admol.org/xcfun for more information. This is free soft-
ware; see the source code for copying conditions. There is ABSOLUTELY
NO WARRANTY; not even for MERCHANTABILITY or FITNESS FOR A PARTICULAR
PURPOSE. For details see the documentation. Scientific users of this 
library should cite U. Ekstrom, L. Visscher, R. Bast, A. J. Thorvald-
sen and K. Ruud; J.Chem.Theor.Comp. 2010, DOI: 10.1021/ct100117s
XCFun Version 0.99 
Your calculation utilizes the basis: 6-31G(d)
   H-He, Li-Ne : W. J. Hehre, R. Ditchfield and J.A. Pople, J. Chem. Phys. 56, 2257 (1972).
                 Note: He and Ne are unpublished basis sets taken from the Gaussian program.
                 Note: Li and B from J. D. Dill and J. A. Pople, J. Chem. Phys. 62, 2921 (1975).
   Na - Ar     : M. M. Francl, W. J. Pietro, W. J. Hehre, J. S. Binkley, M. S. Gordon, 
                 D. J. DeFrees and J. A. Pople, J. Chem. Phys. 77, 3654 (1982).
   K - Zn      : V. A. Rassolov, J. A. Pople, M. A. Ratner, and T. L. Windus, J. Chem. Phys. 109, 1223 (1998).

================================================================================
                                        WARNINGS
                       Please study these warnings very carefully!
================================================================================

Warning: TCutStore was < 0. Adjusted to Thresh (uncritical)

INFO   : the flag for use of LIBINT has been found!

================================================================================
                                       INPUT FILE
================================================================================
NAME = initial23.inp
|  1> ! WB97X-D3 6-31G(d) VerySlowConv
|  2> ! KDIIS NOSOSCF
|  3> %base "Scan_23"
|  4> 
|  5> %scf
|  6> maxiter 999
|  7> end
|  8> 
|  9> * xyz 0 1
| 10> N         -3.708861365039    2.083690617009    0.000000000000
| 11> N         -0.971078634961    2.045749382991    0.000000000000
| 12> **                         ****END OF INPUT****
================================================================================

                       ****************************
                       * Single Point Calculation *
                       ****************************

---------------------------------
CARTESIAN COORDINATES (ANGSTROEM)
---------------------------------
  N     -3.708861    2.083691    0.000000
  N     -0.971079    2.045749    0.000000

----------------------------
CARTESIAN COORDINATES (A.U.)
----------------------------
  NO LB      ZA    FRAG     MASS         X           Y           Z
   0 N     7.0000    0    14.007   -7.008732    3.937605    0.000000
   1 N     7.0000    0    14.007   -1.835073    3.865906    0.000000

--------------------------------
INTERNAL COORDINATES (ANGSTROEM)
--------------------------------
 N      0   0   0     0.000000000000     0.00000000     0.00000000
 N      1   0   0     2.738045619480     0.00000000     0.00000000

---------------------------
INTERNAL COORDINATES (A.U.)
---------------------------
 N      0   0   0     0.000000000000     0.00000000     0.00000000
 N      1   0   0     5.174156362999     0.00000000     0.00000000

---------------------
BASIS SET INFORMATION
---------------------
There are 1 groups of distinct atoms

 Group   1 Type N   : 10s4p1d contracted to 3s2p1d pattern {631/31/1}

Atom   0N    basis set group =>   1
Atom   1N    basis set group =>   1
------------------------------------------------------------------------------
                           ORCA GTO INTEGRAL CALCULATION
------------------------------------------------------------------------------

                         BASIS SET STATISTICS AND STARTUP INFO

 # of primitive gaussian shells          ...   30
 # of primitive gaussian functions       ...   54
 # of contracted shells                  ...   12
 # of contracted basis functions         ...   28
 Highest angular momentum                ...    2
 Maximum contraction depth               ...    6
 Integral package used                   ... LIBINT
 Integral threshhold            Thresh   ...  1.000e-10
 Primitive cut-off              TCut     ...  1.000e-11


------------------------------ INTEGRAL EVALUATION ----------------------------


 * One electron integrals 
 Pre-screening matrix                    ... done
 Shell pair data                         ... done (   0.000 sec)

-------------------------------------------------------------------------------
                                 ORCA SCF
-------------------------------------------------------------------------------

------------
SCF SETTINGS
------------
Hamiltonian:
 Density Functional     Method          .... DFT(GTOs)
 Exchange Functional    Exchange        .... WB97X-D3
 Correlation Functional Correlation     .... WB97X-D3
 Gradients option       PostSCFGGA      .... off
 Hybrid DFT is turned on
   Fraction HF Exchange ScalHFX         ....  0.195728
   Scaling of DF-GGA-X  ScalDFX         ....  0.000000
   Scaling of DF-GGA-C  ScalDFC         ....  1.000000
   Scaling of DF-LDA-C  ScalLDAC        ....  1.000000
   Perturbative correction              ....  0.000000
 Long-range corrected/Screened/Range-Separated Hybrid DFT is turned on
   Amount of maximum screened exact exchange              ....  0.804272
   Range separation parameter mu (erf(mu*r12)/r12)        ....  0.250000


General Settings:
 Integral files         IntName         .... Scan_23
 Hartree-Fock type      HFTyp           .... RHF
 Total Charge           Charge          ....    0
 Multiplicity           Mult            ....    1
 Number of Electrons    NEL             ....   14
 Basis Dimension        Dim             ....   28
 Nuclear Repulsion      ENuc            ....      9.4701428721 Eh

Convergence Acceleration:
 DIIS                   CNVDIIS         .... on
   Start iteration      DIISMaxIt       ....     0
   Startup error        DIISStart       ....  0.200000
   # of expansion vecs  DIISMaxEq       ....     5
   Bias factor          DIISBfac        ....   1.050
   Max. coefficient     DIISMaxC        ....  10.000
 Newton-Raphson         CNVNR           .... off
 SOSCF                  CNVSOSCF        .... off
 Level Shifting         CNVShift        .... off
 Zerner damping         CNVZerner       .... off
 Static damping         CNVDamp         .... off
 Fernandez-Rico         CNVRico         .... off

SCF Procedure:
 Maximum # iterations   MaxIter         ....   999
 SCF integral mode      SCFMode         .... Direct
   Integral package                     .... LIBINT
 Reset frequeny         DirectResetFreq ....    20
 Integral Threshold     Thresh          ....  1.000e-10 Eh
 Primitive CutOff       TCut            ....  1.000e-11 Eh

Convergence Tolerance:
 Convergence Check Mode ConvCheckMode   .... All-Criteria
 Convergence forced     ConvForced      .... 0
 Energy Change          TolE            ....  1.000e-06 Eh
 Max Density Change     TolMaxP         ....  1.000e-05
 RMS Density Change     TolRMSP         ....  1.000e-06
 DIIS Error             TolErr          ....  1.000e-06


Diagonalization of the overlap matrix:
Smallest eigenvalue                        ... 1.832e-01
Time for diagonalization                   ...    0.001 sec
Threshold for overlap eigenvalues          ... 1.000e-08
Number of eigenvalues below threshold      ... 0
Time for construction of square roots      ...    0.006 sec
Total time needed                          ...    0.007 sec

-------------------
DFT GRID GENERATION
-------------------

General Integration Accuracy     IntAcc      ...  4.340
Radial Grid Type                 RadialGrid  ... Gauss-Chebyshev
Angular Grid (max. acc.)         AngularGrid ... Lebedev-110
Angular grid pruning method      GridPruning ... 3 (G Style)
Weight generation scheme         WeightScheme... Becke
Basis function cutoff            BFCut       ...    1.0000e-10
Integration weight cutoff        WCut        ...    1.0000e-14
Grids for H and He will be reduced by one unit

# of grid points (after initial pruning)     ...   3404 (   0.0 sec)
# of grid points (after weights+screening)   ...   3390 (   0.0 sec)
nearest neighbour list constructed           ...    0.0 sec
Grid point re-assignment to atoms done       ...    0.0 sec
Grid point division into batches done        ...    0.0 sec
Reduced shell lists constructed in    0.0 sec

Total number of grid points                  ...     3390
Total number of batches                      ...       54
Average number of points per batch           ...       62
Average number of grid points per atom       ...     1695
Average number of shells per batch           ...     9.78 (81.52%)
Average number of basis functions per batch  ...    24.18 (86.36%)
Average number of large shells per batch     ...     8.24 (84.20%)
Average number of large basis fcns per batch ...    19.91 (82.33%)
Maximum spatial batch extension              ...  15.78, 23.23, 25.65 au
Average spatial batch extension              ...   5.61,  6.64,  6.88 au

Time for grid setup =    0.021 sec

------------------------------
INITIAL GUESS: MODEL POTENTIAL
------------------------------
Loading Hartree-Fock densities                     ... done
Calculating cut-offs                               ... done
Setting up the integral package                    ... done
Initializing the effective Hamiltonian             ... done
Starting the Coulomb interaction                   ... done (   0.0 sec)
Reading the grid                                   ... done
Mapping shells                                     ... done
Starting the XC term evaluation                    ... done (   0.0 sec)
  promolecular density results
     # of electrons  =     14.000257965
     EX              =    -12.716834210
     EC              =     -0.399866145
     EX+EC           =    -13.116700354
Transforming the Hamiltonian                       ... done (   0.0 sec)
Diagonalizing the Hamiltonian                      ... done (   0.0 sec)
Back transforming the eigenvectors                 ... done (   0.0 sec)
Now organizing SCF variables                       ... done
                      ------------------
                      INITIAL GUESS DONE (   0.1 sec)
                      ------------------
--------------
SCF ITERATIONS
--------------
ITER       Energy         Delta-E        Max-DP      RMS-DP      [F,P]   Gradient Norm
               ***  Starting incremental Fock matrix formation  ***
                             ****Resetting KDIIS****
                             ****Turning on KDIIS(Cayley)****
  0   -108.7895157106   0.000000000000 0.00386432  0.00029570  0.0213378   0.017491300
  1   -108.7898125655  -0.000296854844 0.00685674  0.00054119  0.0191731   0.015747728
  2   -108.7902961889  -0.000483623477 0.01197312  0.00094443  0.0154136   0.012758936
  3   -108.7909032996  -0.000607110688 0.01772852  0.00141433  0.0092408   0.007653150
  4   -108.7912456524  -0.000342352784 0.00002365  0.00000220  0.0000175   0.000012209
                          ***Energy convergence achieved***
                           ***RMSP convergence achieved***
                           ***MAXP convergence achieved***
                    *** KDIIS BlockDiag ( 0.000 sec) ***

               *****************************************************
               *                     SUCCESS                       *
               *           SCF CONVERGED AFTER   5 CYCLES          *
               *****************************************************

Setting up the final grid:

General Integration Accuracy     IntAcc      ...  4.670
Radial Grid Type                 RadialGrid  ... Gauss-Chebyshev
Angular Grid (max. acc.)         AngularGrid ... Lebedev-302
Angular grid pruning method      GridPruning ... 3 (G Style)
Weight generation scheme         WeightScheme... Becke
Basis function cutoff            BFCut       ...    1.0000e-10
Integration weight cutoff        WCut        ...    1.0000e-14
Grids for H and He will be reduced by one unit

# of grid points (after initial pruning)     ...  12424 (   0.0 sec)
# of grid points (after weights+screening)   ...  12408 (   0.0 sec)
nearest neighbour list constructed           ...    0.0 sec
Grid point re-assignment to atoms done       ...    0.0 sec
Grid point division into batches done        ...    0.1 sec
Reduced shell lists constructed in    0.1 sec

Total number of grid points                  ...    12408
Total number of batches                      ...      194
Average number of points per batch           ...       63
Average number of grid points per atom       ...     6204
Average number of shells per batch           ...     8.83 (73.55%)
Average number of basis functions per batch  ...    21.65 (77.31%)
Average number of large shells per batch     ...     7.16 (81.12%)
Average number of large basis fcns per batch ...    17.24 (79.65%)
Maximum spatial batch extension              ...  17.92, 18.87, 17.55 au
Average spatial batch extension              ...   3.64,  4.16,  4.03 au

Final grid set up in    0.1 sec
Final integration                            ... done (   0.1 sec)
Change in XC energy                          ...    -0.000429452
Integrated number of electrons               ...    14.000008227
Previous integrated no of electrons          ...    13.999019906

----------------
TOTAL SCF ENERGY
----------------

Total Energy       :         -108.79167511 Eh           -2960.37198 eV

Components:
Nuclear Repulsion  :            9.47014287 Eh             257.69569 eV
Electronic Energy  :         -118.26181798 Eh           -3218.06767 eV
One Electron Energy:         -166.13014867 Eh           -4520.63117 eV
Two Electron Energy:           47.86833069 Eh            1302.56350 eV

Virial components:
Potential Energy   :         -216.51629998 Eh           -5891.70805 eV
Kinetic Energy     :          107.72462487 Eh            2931.33607 eV
Virial Ratio       :            2.00990535


DFT components:
N(Alpha)           :        7.000004113707 electrons
N(Beta)            :        7.000004113707 electrons
N(Total)           :       14.000008227414 electrons
E(XC)              :       -9.193033068998 Eh       

---------------
SCF CONVERGENCE
---------------

  Last Energy change         ...   -2.3078e-09  Tolerance :   1.0000e-06
  Last MAX-Density change    ...    5.4580e-06  Tolerance :   1.0000e-05
  Last RMS-Density change    ...    5.7184e-07  Tolerance :   1.0000e-06
  Last DIIS Error            ...    1.1767e-05  Tolerance :   1.0000e-06

             **** THE GBW FILE WAS UPDATED (Scan_23.gbw) ****
             **** DENSITY FILE WAS UPDATED (Scan_23.scfp.tmp) ****
             **** ENERGY FILE WAS UPDATED (Scan_23.en.tmp) ****
----------------
ORBITAL ENERGIES
----------------

  NO   OCC          E(Eh)            E(eV) 
   0   2.0000     -14.624773      -397.9603 
   1   2.0000     -14.624723      -397.9589 
   2   2.0000      -0.878683       -23.9102 
   3   2.0000      -0.852622       -23.2010 
   4   2.0000      -0.382610       -10.4113 
   5   2.0000      -0.357541        -9.7292 
   6   2.0000      -0.357541        -9.7292 
   7   0.0000      -0.168482        -4.5846 
   8   0.0000      -0.168481        -4.5846 
   9   0.0000      -0.135336        -3.6827 
  10   0.0000       0.671881        18.2828 
  11   0.0000       0.712209        19.3802 
  12   0.0000       0.712216        19.3804 
  13   0.0000       0.781260        21.2592 
  14   0.0000       0.793707        21.5979 
  15   0.0000       0.793713        21.5980 
  16   0.0000       0.812271        22.1030 
  17   0.0000       1.078568        29.3493 
  18   0.0000       1.767031        48.0834 
  19   0.0000       1.770935        48.1896 
  20   0.0000       1.771057        48.1929 
  21   0.0000       1.771068        48.1932 
  22   0.0000       1.771538        48.2060 
  23   0.0000       1.774359        48.2828 
  24   0.0000       1.774960        48.2991 
  25   0.0000       1.781487        48.4767 
  26   0.0000       1.781496        48.4770 
  27   0.0000       1.841994        50.1232 

                    ********************************
                    * MULLIKEN POPULATION ANALYSIS *
                    ********************************

-----------------------
MULLIKEN ATOMIC CHARGES
-----------------------
   0 N :    0.000028
   1 N :   -0.000028
Sum of atomic charges:   -0.0000000

--------------------------------
MULLIKEN REDUCED ORBITAL CHARGES
--------------------------------
  0 N s       :     3.997807  s :     3.997807
      pz      :     0.999912  p :     3.001678
      px      :     1.001862
      py      :     0.999904
      dz2     :     0.000082  d :     0.000487
      dxz     :     0.000078
      dyz     :     0.000000
      dx2y2   :     0.000247
      dxy     :     0.000078
  1 N s       :     3.997807  s :     3.997807
      pz      :     0.999931  p :     3.001735
      px      :     1.001881
      py      :     0.999923
      dz2     :     0.000082  d :     0.000487
      dxz     :     0.000078
      dyz     :     0.000000
      dx2y2   :     0.000247
      dxy     :     0.000078


                     *******************************
                     * LOEWDIN POPULATION ANALYSIS *
                     *******************************

----------------------
LOEWDIN ATOMIC CHARGES
----------------------
   0 N :    0.000028
   1 N :   -0.000028

-------------------------------
LOEWDIN REDUCED ORBITAL CHARGES
-------------------------------
  0 N s       :     3.994651  s :     3.994651
      pz      :     0.999912  p :     3.004750
      px      :     1.004934
      py      :     0.999904
      dz2     :     0.000103  d :     0.000571
      dxz     :     0.000079
      dyz     :     0.000000
      dx2y2   :     0.000310
      dxy     :     0.000079
  1 N s       :     3.994651  s :     3.994651
      pz      :     0.999931  p :     3.004807
      px      :     1.004953
      py      :     0.999923
      dz2     :     0.000103  d :     0.000571
      dxz     :     0.000079
      dyz     :     0.000000
      dx2y2   :     0.000310
      dxy     :     0.000079


                      *****************************
                      * MAYER POPULATION ANALYSIS *
                      *****************************

  NA   - Mulliken gross atomic population
  ZA   - Total nuclear charge
  QA   - Mulliken gross atomic charge
  VA   - Mayer's total valence
  BVA  - Mayer's bonded valence
  FA   - Mayer's free valence

  ATOM       NA         ZA         QA         VA         BVA        FA
  0 N      7.0000     7.0000     0.0000     3.0002     3.0002    -0.0000
  1 N      7.0000     7.0000    -0.0000     3.0002     3.0002     0.0000

  Mayer bond orders larger than 0.1
B(  0-N ,  1-N ) :   3.0002 

-------
TIMINGS
-------

Total SCF time: 0 days 0 hours 0 min 2 sec 

Total time                  ....       2.447 sec
Sum of individual times     ....       2.351 sec  ( 96.1%)

Fock matrix formation       ....       2.069 sec  ( 84.6%)
  XC integration            ....       0.326 sec  ( 15.7% of F)
    Basis function eval.    ....       0.082 sec  ( 25.1% of XC)
    Density eval.           ....       0.016 sec  (  4.8% of XC)
    XC-Functional eval.     ....       0.096 sec  ( 29.6% of XC)
    XC-Potential eval.      ....       0.010 sec  (  3.2% of XC)
Diagonalization             ....       0.014 sec  (  0.6%)
Density matrix formation    ....       0.000 sec  (  0.0%)
Population analysis         ....       0.011 sec  (  0.4%)
Initial guess               ....       0.129 sec  (  5.3%)
Orbital Transformation      ....       0.000 sec  (  0.0%)
Orbital Orthonormalization  ....       0.000 sec  (  0.0%)
DIIS solution               ....       0.000 sec  (  0.0%)
Grid generation             ....       0.128 sec  (  5.2%)


-------------------------------------------------------------------------------
                          DFT DISPERSION CORRECTION                            
                                                                               
                              DFTD3 V3.1  Rev 1                                
                              USING zero damping                               
-------------------------------------------------------------------------------
The omegaB97X-D3 functional is recognized. Fit by Chai et al.
Active option DFTDOPT                   ...         3   

molecular C6(AA) [au] = 100.813705 


            DFT-D V3
 parameters
 s6 scaling factor         :     1.0000 
 rs6 scaling factor        :     1.2810 
 s8 scaling factor         :     1.0000 
 rs8 scaling factor        :     1.0940 
 Damping factor alpha6     :    14.0000 
 Damping factor alpha8     :    16.0000 
 ad hoc parameters k1-k3   :    16.0000     1.3333    -4.0000 

 Edisp/kcal,au: -0.057445715088  -0.000091545564 
 E6   /kcal   :  -0.007766848 
 E8   /kcal   :  -0.049678867 
 % E8         :  86.479673282 

-------------------------   ----------------
Dispersion correction           -0.000091546
-------------------------   ----------------


-------------------------   --------------------
FINAL SINGLE POINT ENERGY      -108.791766652055
-------------------------   --------------------


                            ***************************************
                            *     ORCA property calculations      *
                            ***************************************

                                    ---------------------
                                    Active property flags
                                    ---------------------
   (+) Dipole Moment


------------------------------------------------------------------------------
                       ORCA ELECTRIC PROPERTIES CALCULATION
------------------------------------------------------------------------------

Dipole Moment Calculation                       ... on
Quadrupole Moment Calculation                   ... off
Polarizability Calculation                      ... off
GBWName                                         ... Scan_23.gbw
Electron density file                           ... Scan_23.scfp.tmp

-------------
DIPOLE MOMENT
-------------
                                X             Y             Z
Electronic contribution:     -0.00015       0.00000      -0.00000
Nuclear contribution   :      0.00000      -0.00000       0.00000
                        -----------------------------------------
Total Dipole Moment    :     -0.00015       0.00000      -0.00000
                        -----------------------------------------
Magnitude (a.u.)       :      0.00015
Magnitude (Debye)      :      0.00037


Timings for individual modules:

Sum of individual times         ...        2.893 sec (=   0.048 min)
GTO integral calculation        ...        0.424 sec (=   0.007 min)  14.6 %
SCF iterations                  ...        2.470 sec (=   0.041 min)  85.4 %
                             ****ORCA TERMINATED NORMALLY****
TOTAL RUN TIME: 0 days 0 hours 0 minutes 3 seconds 298 msec
