
                                 *****************
                                 * O   R   C   A *
                                 *****************

           --- An Ab Initio, DFT and Semiempirical electronic structure package ---

                  #######################################################
                  #                        -***-                        #
                  #  Department of molecular theory and spectroscopy    #
                  #              Directorship: Frank Neese              #
                  # Max Planck Institute for Chemical Energy Conversion #
                  #                  D-45470 Muelheim/Ruhr              #
                  #                       Germany                       #
                  #                                                     #
                  #                  All rights reserved                #
                  #                        -***-                        #
                  #######################################################


                         Program Version 4.0.0.2 - RELEASE -


 With contributions from (in alphabetic order):
   Daniel Aravena         : Magnetic Properties
   Michael Atanasov       : Ab Initio Ligand Field Theory
   Ute Becker             : Parallelization
   Martin Brehm           : Molecular dynamics
   Dmytro Bykov           : SCF Hessian
   Vijay G. Chilkuri      : MRCI spin determinant printing
   Dipayan Datta          : RHF DLPNO-CCSD density
   Achintya Kumar Dutta   : EOM-CC, STEOM-CC
   Dmitry Ganyushin       : Spin-Orbit,Spin-Spin,Magnetic field MRCI
   Yang Guo               : DLPNO-NEVPT2, CIM, IAO-localization
   Andreas Hansen         : Spin unrestricted coupled pair/coupled cluster methods
   Lee Huntington         : MR-EOM, pCC
   Robert Izsak           : Overlap fitted RIJCOSX, COSX-SCS-MP3, EOM
   Christian Kollmar      : KDIIS, OOCD, Brueckner-CCSD(T), CCSD density
   Simone Kossmann        : Meta GGA functionals, TD-DFT gradient, OOMP2, MP2 Hessian
   Martin Krupicka        : AUTO-CI
   Dagmar Lenk            : GEPOL surface
   Dimitrios Liakos       : Extrapolation schemes; parallel MDCI
   Dimitrios Manganas     : ROCIS; embedding schemes
   Dimitrios Pantazis     : SARC Basis sets
   Taras Petrenko         : DFT Hessian,TD-DFT gradient, ASA, ECA, R-Raman, ABS, FL, XAS/XES, NRVS
   Peter Pinski           : DLPNO-MP2
   Christoph Reimann      : Effective Core Potentials
   Marius Retegan         : Local ZFS, SOC
   Christoph Riplinger    : Optimizer, TS searches, QM/MM, DLPNO-CCSD(T), (RO)-DLPNO pert. Triples
   Tobias Risthaus        : Range-separated hybrids, TD-DFT gradient, RPA, STAB
   Michael Roemelt        : Restricted open shell CIS
   Masaaki Saitow         : Open-shell DLPNO
   Barbara Sandhoefer     : DKH picture change effects
   Kantharuban Sivalingam : CASSCF convergence, NEVPT2, FIC-MRCI
   Georgi Stoychev        : AutoAux
   Boris Wezisla          : Elementary symmetry handling
   Frank Wennmohs         : Technical directorship


 We gratefully acknowledge several colleagues who have allowed us to
 interface, adapt or use parts of their codes:
   Stefan Grimme, W. Hujo, H. Kruse,             : VdW corrections, initial TS optimization,
                  C. Bannwarth                     DFT functionals, gCP, sTDA/sTD-DF
   Ed Valeev                                     : LibInt (2-el integral package), F12 methods
   Garnet Chan, S. Sharma, J. Yang, R. Olivares  : DMRG
   Ulf Ekstrom                                   : XCFun DFT Library
   Mihaly Kallay                                 : mrcc  (arbitrary order and MRCC methods)
   Jiri Pittner, Ondrej Demel                    : Mk-CCSD
   Frank Weinhold                                : gennbo (NPA and NBO analysis)
   Christopher J. Cramer and Donald G. Truhlar   : smd solvation model


 Your calculation uses the libint2 library for the computation of 2-el integrals
 For citations please refer to: http://libint.valeyev.net

 This ORCA versions uses:
   CBLAS   interface :  Fast vector & matrix operations
   LAPACKE interface :  Fast linear algebra routines
   SCALAPACK package :  Parallel linear algebra routines


Your calculation utilizes the atom-pairwise dispersion correction
with the zero-damping scheme (D30)
Cite in your paper:
S.Grimme, J.Antony, S.Ehrlich and H.Krieg, J.Chem.Phys., 132, (2010), 154104 
   

XCFun DFT library Copyright 2009-2010 Ulf Ekstrom and contributors.
See http://admol.org/xcfun for more information. This is free soft-
ware; see the source code for copying conditions. There is ABSOLUTELY
NO WARRANTY; not even for MERCHANTABILITY or FITNESS FOR A PARTICULAR
PURPOSE. For details see the documentation. Scientific users of this 
library should cite U. Ekstrom, L. Visscher, R. Bast, A. J. Thorvald-
sen and K. Ruud; J.Chem.Theor.Comp. 2010, DOI: 10.1021/ct100117s
XCFun Version 0.99 
Your calculation utilizes the basis: 6-31G(d)
   H-He, Li-Ne : W. J. Hehre, R. Ditchfield and J.A. Pople, J. Chem. Phys. 56, 2257 (1972).
                 Note: He and Ne are unpublished basis sets taken from the Gaussian program.
                 Note: Li and B from J. D. Dill and J. A. Pople, J. Chem. Phys. 62, 2921 (1975).
   Na - Ar     : M. M. Francl, W. J. Pietro, W. J. Hehre, J. S. Binkley, M. S. Gordon, 
                 D. J. DeFrees and J. A. Pople, J. Chem. Phys. 77, 3654 (1982).
   K - Zn      : V. A. Rassolov, J. A. Pople, M. A. Ratner, and T. L. Windus, J. Chem. Phys. 109, 1223 (1998).

================================================================================
                                        WARNINGS
                       Please study these warnings very carefully!
================================================================================

Warning: TCutStore was < 0. Adjusted to Thresh (uncritical)

INFO   : the flag for use of LIBINT has been found!

================================================================================
                                       INPUT FILE
================================================================================
NAME = initial24.inp
|  1> ! WB97X-D3 6-31G(d) VerySlowConv
|  2> ! KDIIS NOSOSCF
|  3> %base "Scan_24"
|  4> 
|  5> %scf
|  6> maxiter 999
|  7> end
|  8> 
|  9> * xyz 0 1
| 10> N         -3.762389794132    2.084432434332   -0.000000000000
| 11> N         -0.917550205869    2.045007565668   -0.000000000000
| 12> **                         ****END OF INPUT****
================================================================================

                       ****************************
                       * Single Point Calculation *
                       ****************************

---------------------------------
CARTESIAN COORDINATES (ANGSTROEM)
---------------------------------
  N     -3.762390    2.084432   -0.000000
  N     -0.917550    2.045008   -0.000000

----------------------------
CARTESIAN COORDINATES (A.U.)
----------------------------
  NO LB      ZA    FRAG     MASS         X           Y           Z
   0 N     7.0000    0    14.007   -7.109886    3.939006   -0.000000
   1 N     7.0000    0    14.007   -1.733919    3.864504   -0.000000

--------------------------------
INTERNAL COORDINATES (ANGSTROEM)
--------------------------------
 N      0   0   0     0.000000000000     0.00000000     0.00000000
 N      1   0   0     2.845112757558     0.00000000     0.00000000

---------------------------
INTERNAL COORDINATES (A.U.)
---------------------------
 N      0   0   0     0.000000000000     0.00000000     0.00000000
 N      1   0   0     5.376483931910     0.00000000     0.00000000

---------------------
BASIS SET INFORMATION
---------------------
There are 1 groups of distinct atoms

 Group   1 Type N   : 10s4p1d contracted to 3s2p1d pattern {631/31/1}

Atom   0N    basis set group =>   1
Atom   1N    basis set group =>   1
------------------------------------------------------------------------------
                           ORCA GTO INTEGRAL CALCULATION
------------------------------------------------------------------------------

                         BASIS SET STATISTICS AND STARTUP INFO

 # of primitive gaussian shells          ...   30
 # of primitive gaussian functions       ...   54
 # of contracted shells                  ...   12
 # of contracted basis functions         ...   28
 Highest angular momentum                ...    2
 Maximum contraction depth               ...    6
 Integral package used                   ... LIBINT
 Integral threshhold            Thresh   ...  1.000e-10
 Primitive cut-off              TCut     ...  1.000e-11


------------------------------ INTEGRAL EVALUATION ----------------------------


 * One electron integrals 
 Pre-screening matrix                    ... done
 Shell pair data                         ... done (   0.000 sec)

-------------------------------------------------------------------------------
                                 ORCA SCF
-------------------------------------------------------------------------------

------------
SCF SETTINGS
------------
Hamiltonian:
 Density Functional     Method          .... DFT(GTOs)
 Exchange Functional    Exchange        .... WB97X-D3
 Correlation Functional Correlation     .... WB97X-D3
 Gradients option       PostSCFGGA      .... off
 Hybrid DFT is turned on
   Fraction HF Exchange ScalHFX         ....  0.195728
   Scaling of DF-GGA-X  ScalDFX         ....  0.000000
   Scaling of DF-GGA-C  ScalDFC         ....  1.000000
   Scaling of DF-LDA-C  ScalLDAC        ....  1.000000
   Perturbative correction              ....  0.000000
 Long-range corrected/Screened/Range-Separated Hybrid DFT is turned on
   Amount of maximum screened exact exchange              ....  0.804272
   Range separation parameter mu (erf(mu*r12)/r12)        ....  0.250000


General Settings:
 Integral files         IntName         .... Scan_24
 Hartree-Fock type      HFTyp           .... RHF
 Total Charge           Charge          ....    0
 Multiplicity           Mult            ....    1
 Number of Electrons    NEL             ....   14
 Basis Dimension        Dim             ....   28
 Nuclear Repulsion      ENuc            ....      9.1137629389 Eh

Convergence Acceleration:
 DIIS                   CNVDIIS         .... on
   Start iteration      DIISMaxIt       ....     0
   Startup error        DIISStart       ....  0.200000
   # of expansion vecs  DIISMaxEq       ....     5
   Bias factor          DIISBfac        ....   1.050
   Max. coefficient     DIISMaxC        ....  10.000
 Newton-Raphson         CNVNR           .... off
 SOSCF                  CNVSOSCF        .... off
 Level Shifting         CNVShift        .... off
 Zerner damping         CNVZerner       .... off
 Static damping         CNVDamp         .... off
 Fernandez-Rico         CNVRico         .... off

SCF Procedure:
 Maximum # iterations   MaxIter         ....   999
 SCF integral mode      SCFMode         .... Direct
   Integral package                     .... LIBINT
 Reset frequeny         DirectResetFreq ....    20
 Integral Threshold     Thresh          ....  1.000e-10 Eh
 Primitive CutOff       TCut            ....  1.000e-11 Eh

Convergence Tolerance:
 Convergence Check Mode ConvCheckMode   .... All-Criteria
 Convergence forced     ConvForced      .... 0
 Energy Change          TolE            ....  1.000e-06 Eh
 Max Density Change     TolMaxP         ....  1.000e-05
 RMS Density Change     TolRMSP         ....  1.000e-06
 DIIS Error             TolErr          ....  1.000e-06


Diagonalization of the overlap matrix:
Smallest eigenvalue                        ... 1.923e-01
Time for diagonalization                   ...    0.001 sec
Threshold for overlap eigenvalues          ... 1.000e-08
Number of eigenvalues below threshold      ... 0
Time for construction of square roots      ...    0.005 sec
Total time needed                          ...    0.006 sec

-------------------
DFT GRID GENERATION
-------------------

General Integration Accuracy     IntAcc      ...  4.340
Radial Grid Type                 RadialGrid  ... Gauss-Chebyshev
Angular Grid (max. acc.)         AngularGrid ... Lebedev-110
Angular grid pruning method      GridPruning ... 3 (G Style)
Weight generation scheme         WeightScheme... Becke
Basis function cutoff            BFCut       ...    1.0000e-10
Integration weight cutoff        WCut        ...    1.0000e-14
Grids for H and He will be reduced by one unit

# of grid points (after initial pruning)     ...   3404 (   0.0 sec)
# of grid points (after weights+screening)   ...   3390 (   0.0 sec)
nearest neighbour list constructed           ...    0.0 sec
Grid point re-assignment to atoms done       ...    0.0 sec
Grid point division into batches done        ...    0.0 sec
Reduced shell lists constructed in    0.0 sec

Total number of grid points                  ...     3390
Total number of batches                      ...       54
Average number of points per batch           ...       62
Average number of grid points per atom       ...     1695
Average number of shells per batch           ...     9.69 (80.76%)
Average number of basis functions per batch  ...    23.80 (85.00%)
Average number of large shells per batch     ...     8.07 (83.30%)
Average number of large basis fcns per batch ...    19.49 (81.89%)
Maximum spatial batch extension              ...  15.78, 23.37, 25.65 au
Average spatial batch extension              ...   5.85,  6.58,  6.89 au

Time for grid setup =    0.020 sec

------------------------------
INITIAL GUESS: MODEL POTENTIAL
------------------------------
Loading Hartree-Fock densities                     ... done
Calculating cut-offs                               ... done
Setting up the integral package                    ... done
Initializing the effective Hamiltonian             ... done
Starting the Coulomb interaction                   ... done (   0.0 sec)
Reading the grid                                   ... done
Mapping shells                                     ... done
Starting the XC term evaluation                    ... done (   0.0 sec)
  promolecular density results
     # of electrons  =     14.000197480
     EX              =    -12.716166985
     EC              =     -0.399357330
     EX+EC           =    -13.115524316
Transforming the Hamiltonian                       ... done (   0.0 sec)
Diagonalizing the Hamiltonian                      ... done (   0.0 sec)
Back transforming the eigenvectors                 ... done (   0.0 sec)
Now organizing SCF variables                       ... done
                      ------------------
                      INITIAL GUESS DONE (   0.1 sec)
                      ------------------
--------------
SCF ITERATIONS
--------------
ITER       Energy         Delta-E        Max-DP      RMS-DP      [F,P]   Gradient Norm
               ***  Starting incremental Fock matrix formation  ***
                             ****Resetting KDIIS****
                             ****Turning on KDIIS(Cayley)****
  0   -108.7696683029   0.000000000000 0.00367300  0.00028263  0.0213447   0.017050237
  1   -108.7699468234  -0.000278520465 0.00665667  0.00053447  0.0191892   0.015378551
  2   -108.7704164448  -0.000469621446 0.01157880  0.00092506  0.0154231   0.012449197
  3   -108.7709996647  -0.000583219838 0.01715099  0.00138581  0.0092458   0.007466971
                           ***RMSP convergence achieved***
  4   -108.7713286136  -0.000328948975 0.00001219  0.00000093  0.0000235   0.000017144
Warning: badly conditioned DIIS matrix, 1 vectors out of 5 destroyed
                          ***Energy convergence achieved***
  5   -108.7713286164  -0.000000002777 0.00003898  0.00000399  0.0000244   0.000016456
Warning: badly conditioned DIIS matrix, 1 vectors out of 5 destroyed
  6   -108.7713286005   0.000000015949 0.00021629  0.00001622  0.0000587   0.000044322
Warning: badly conditioned DIIS matrix, 1 vectors out of 5 destroyed

            ***Energy convergence in two consecutive cycles with***
                    ***'reasonable' density convergence***
                       *** signaling convergence ***

                    *** KDIIS BlockDiag ( 0.000 sec) ***

               *****************************************************
               *                     SUCCESS                       *
               *           SCF CONVERGED AFTER   7 CYCLES          *
               *****************************************************

Setting up the final grid:

General Integration Accuracy     IntAcc      ...  4.670
Radial Grid Type                 RadialGrid  ... Gauss-Chebyshev
Angular Grid (max. acc.)         AngularGrid ... Lebedev-302
Angular grid pruning method      GridPruning ... 3 (G Style)
Weight generation scheme         WeightScheme... Becke
Basis function cutoff            BFCut       ...    1.0000e-10
Integration weight cutoff        WCut        ...    1.0000e-14
Grids for H and He will be reduced by one unit

# of grid points (after initial pruning)     ...  12424 (   0.0 sec)
# of grid points (after weights+screening)   ...  12408 (   0.0 sec)
nearest neighbour list constructed           ...    0.0 sec
Grid point re-assignment to atoms done       ...    0.0 sec
Grid point division into batches done        ...    0.0 sec
Reduced shell lists constructed in    0.1 sec

Total number of grid points                  ...    12408
Total number of batches                      ...      194
Average number of points per batch           ...       63
Average number of grid points per atom       ...     6204
Average number of shells per batch           ...     8.76 (72.99%)
Average number of basis functions per batch  ...    21.43 (76.52%)
Average number of large shells per batch     ...     7.02 (80.09%)
Average number of large basis fcns per batch ...    16.84 (78.60%)
Maximum spatial batch extension              ...  17.72, 19.00, 17.55 au
Average spatial batch extension              ...   3.64,  4.10,  4.06 au

Final grid set up in    0.1 sec
Final integration                            ... done (   0.1 sec)
Change in XC energy                          ...    -0.000471524
Integrated number of electrons               ...    14.000006504
Previous integrated no of electrons          ...    13.998797273

----------------
TOTAL SCF ENERGY
----------------

Total Energy       :         -108.77180011 Eh           -2959.83116 eV

Components:
Nuclear Repulsion  :            9.11376294 Eh             247.99810 eV
Electronic Energy  :         -117.88556304 Eh           -3207.82925 eV
One Electron Energy:         -165.41845604 Eh           -4501.26503 eV
Two Electron Energy:           47.53289300 Eh            1293.43578 eV

Virial components:
Potential Energy   :         -216.52548211 Eh           -5891.95791 eV
Kinetic Energy     :          107.75368200 Eh            2932.12675 eV
Virial Ratio       :            2.00944857


DFT components:
N(Alpha)           :        7.000003252200 electrons
N(Beta)            :        7.000003252200 electrons
N(Total)           :       14.000006504399 electrons
E(XC)              :       -9.193927016313 Eh       

---------------
SCF CONVERGENCE
---------------

  Last Energy change         ...    1.7937e-08  Tolerance :   1.0000e-06
  Last MAX-Density change    ...    8.5027e-05  Tolerance :   1.0000e-05
  Last RMS-Density change    ...    6.5106e-06  Tolerance :   1.0000e-06
  Last DIIS Error            ...    1.2702e-05  Tolerance :   1.0000e-06

             **** THE GBW FILE WAS UPDATED (Scan_24.gbw) ****
             **** DENSITY FILE WAS UPDATED (Scan_24.scfp.tmp) ****
             **** ENERGY FILE WAS UPDATED (Scan_24.en.tmp) ****
----------------
ORBITAL ENERGIES
----------------

  NO   OCC          E(Eh)            E(eV) 
   0   2.0000     -14.622681      -397.9034 
   1   2.0000     -14.622652      -397.9026 
   2   2.0000      -0.875904       -23.8346 
   3   2.0000      -0.853909       -23.2360 
   4   2.0000      -0.376053       -10.2329 
   5   2.0000      -0.353323        -9.6144 
   6   2.0000      -0.353323        -9.6144 
   7   0.0000      -0.171585        -4.6691 
   8   0.0000      -0.171584        -4.6690 
   9   0.0000      -0.142551        -3.8790 
  10   0.0000       0.659385        17.9428 
  11   0.0000       0.716623        19.5003 
  12   0.0000       0.716628        19.5004 
  13   0.0000       0.785147        21.3649 
  14   0.0000       0.788698        21.4616 
  15   0.0000       0.788702        21.4617 
  16   0.0000       0.813910        22.1476 
  17   0.0000       1.056262        28.7424 
  18   0.0000       1.771654        48.2092 
  19   0.0000       1.771762        48.2121 
  20   0.0000       1.772038        48.2196 
  21   0.0000       1.772735        48.2386 
  22   0.0000       1.772740        48.2387 
  23   0.0000       1.774674        48.2913 
  24   0.0000       1.775055        48.3017 
  25   0.0000       1.779573        48.4247 
  26   0.0000       1.779576        48.4247 
  27   0.0000       1.816872        49.4396 

                    ********************************
                    * MULLIKEN POPULATION ANALYSIS *
                    ********************************

-----------------------
MULLIKEN ATOMIC CHARGES
-----------------------
   0 N :    0.000009
   1 N :   -0.000009
Sum of atomic charges:   -0.0000000

--------------------------------
MULLIKEN REDUCED ORBITAL CHARGES
--------------------------------
  0 N s       :     3.998469  s :     3.998469
      pz      :     0.999939  p :     3.001133
      px      :     1.001251
      py      :     0.999943
      dz2     :     0.000068  d :     0.000389
      dxz     :     0.000058
      dyz     :     0.000000
      dx2y2   :     0.000205
      dxy     :     0.000058
  1 N s       :     3.998469  s :     3.998469
      pz      :     0.999945  p :     3.001151
      px      :     1.001257
      py      :     0.999949
      dz2     :     0.000068  d :     0.000389
      dxz     :     0.000058
      dyz     :     0.000000
      dx2y2   :     0.000205
      dxy     :     0.000058


                     *******************************
                     * LOEWDIN POPULATION ANALYSIS *
                     *******************************

----------------------
LOEWDIN ATOMIC CHARGES
----------------------
   0 N :    0.000009
   1 N :   -0.000009

-------------------------------
LOEWDIN REDUCED ORBITAL CHARGES
-------------------------------
  0 N s       :     3.996323  s :     3.996323
      pz      :     0.999940  p :     3.003233
      px      :     1.003350
      py      :     0.999944
      dz2     :     0.000080  d :     0.000435
      dxz     :     0.000057
      dyz     :     0.000000
      dx2y2   :     0.000240
      dxy     :     0.000057
  1 N s       :     3.996323  s :     3.996323
      pz      :     0.999946  p :     3.003252
      px      :     1.003356
      py      :     0.999950
      dz2     :     0.000080  d :     0.000435
      dxz     :     0.000057
      dyz     :     0.000000
      dx2y2   :     0.000240
      dxy     :     0.000057


                      *****************************
                      * MAYER POPULATION ANALYSIS *
                      *****************************

  NA   - Mulliken gross atomic population
  ZA   - Total nuclear charge
  QA   - Mulliken gross atomic charge
  VA   - Mayer's total valence
  BVA  - Mayer's bonded valence
  FA   - Mayer's free valence

  ATOM       NA         ZA         QA         VA         BVA        FA
  0 N      7.0000     7.0000     0.0000     3.0005     3.0005     0.0000
  1 N      7.0000     7.0000    -0.0000     3.0005     3.0005    -0.0000

  Mayer bond orders larger than 0.1
B(  0-N ,  1-N ) :   3.0005 

-------
TIMINGS
-------

Total SCF time: 0 days 0 hours 0 min 2 sec 

Total time                  ....       2.332 sec
Sum of individual times     ....       2.233 sec  ( 95.8%)

Fock matrix formation       ....       1.997 sec  ( 85.6%)
  XC integration            ....       0.382 sec  ( 19.1% of F)
    Basis function eval.    ....       0.094 sec  ( 24.6% of XC)
    Density eval.           ....       0.018 sec  (  4.6% of XC)
    XC-Functional eval.     ....       0.111 sec  ( 29.2% of XC)
    XC-Potential eval.      ....       0.011 sec  (  3.0% of XC)
Diagonalization             ....       0.005 sec  (  0.2%)
Density matrix formation    ....       0.000 sec  (  0.0%)
Population analysis         ....       0.010 sec  (  0.4%)
Initial guess               ....       0.102 sec  (  4.4%)
Orbital Transformation      ....       0.000 sec  (  0.0%)
Orbital Orthonormalization  ....       0.000 sec  (  0.0%)
DIIS solution               ....       0.000 sec  (  0.0%)
Grid generation             ....       0.119 sec  (  5.1%)


-------------------------------------------------------------------------------
                          DFT DISPERSION CORRECTION                            
                                                                               
                              DFTD3 V3.1  Rev 1                                
                              USING zero damping                               
-------------------------------------------------------------------------------
The omegaB97X-D3 functional is recognized. Fit by Chai et al.
Active option DFTDOPT                   ...         3   

molecular C6(AA) [au] = 100.818561 


            DFT-D V3
 parameters
 s6 scaling factor         :     1.0000 
 rs6 scaling factor        :     1.2810 
 s8 scaling factor         :     1.0000 
 rs8 scaling factor        :     1.0940 
 Damping factor alpha6     :    14.0000 
 Damping factor alpha8     :    16.0000 
 ad hoc parameters k1-k3   :    16.0000     1.3333    -4.0000 

 Edisp/kcal,au: -0.074070647070  -0.000118039077 
 E6   /kcal   :  -0.010486645 
 E8   /kcal   :  -0.063584002 
 % E8         :  85.842374655 

-------------------------   ----------------
Dispersion correction           -0.000118039
-------------------------   ----------------


-------------------------   --------------------
FINAL SINGLE POINT ENERGY      -108.771918145211
-------------------------   --------------------


                            ***************************************
                            *     ORCA property calculations      *
                            ***************************************

                                    ---------------------
                                    Active property flags
                                    ---------------------
   (+) Dipole Moment


------------------------------------------------------------------------------
                       ORCA ELECTRIC PROPERTIES CALCULATION
------------------------------------------------------------------------------

Dipole Moment Calculation                       ... on
Quadrupole Moment Calculation                   ... off
Polarizability Calculation                      ... off
GBWName                                         ... Scan_24.gbw
Electron density file                           ... Scan_24.scfp.tmp

-------------
DIPOLE MOMENT
-------------
                                X             Y             Z
Electronic contribution:     -0.00005       0.00000       0.00000
Nuclear contribution   :     -0.00000      -0.00000       0.00000
                        -----------------------------------------
Total Dipole Moment    :     -0.00005       0.00000       0.00000
                        -----------------------------------------
Magnitude (a.u.)       :      0.00005
Magnitude (Debye)      :      0.00013


Timings for individual modules:

Sum of individual times         ...        2.652 sec (=   0.044 min)
GTO integral calculation        ...        0.298 sec (=   0.005 min)  11.2 %
SCF iterations                  ...        2.355 sec (=   0.039 min)  88.8 %
                             ****ORCA TERMINATED NORMALLY****
TOTAL RUN TIME: 0 days 0 hours 0 minutes 2 seconds 975 msec
