
                                 *****************
                                 * O   R   C   A *
                                 *****************

           --- An Ab Initio, DFT and Semiempirical electronic structure package ---

                  #######################################################
                  #                        -***-                        #
                  #  Department of molecular theory and spectroscopy    #
                  #              Directorship: Frank Neese              #
                  # Max Planck Institute for Chemical Energy Conversion #
                  #                  D-45470 Muelheim/Ruhr              #
                  #                       Germany                       #
                  #                                                     #
                  #                  All rights reserved                #
                  #                        -***-                        #
                  #######################################################


                         Program Version 4.0.0.2 - RELEASE -


 With contributions from (in alphabetic order):
   Daniel Aravena         : Magnetic Properties
   Michael Atanasov       : Ab Initio Ligand Field Theory
   Ute Becker             : Parallelization
   Martin Brehm           : Molecular dynamics
   Dmytro Bykov           : SCF Hessian
   Vijay G. Chilkuri      : MRCI spin determinant printing
   Dipayan Datta          : RHF DLPNO-CCSD density
   Achintya Kumar Dutta   : EOM-CC, STEOM-CC
   Dmitry Ganyushin       : Spin-Orbit,Spin-Spin,Magnetic field MRCI
   Yang Guo               : DLPNO-NEVPT2, CIM, IAO-localization
   Andreas Hansen         : Spin unrestricted coupled pair/coupled cluster methods
   Lee Huntington         : MR-EOM, pCC
   Robert Izsak           : Overlap fitted RIJCOSX, COSX-SCS-MP3, EOM
   Christian Kollmar      : KDIIS, OOCD, Brueckner-CCSD(T), CCSD density
   Simone Kossmann        : Meta GGA functionals, TD-DFT gradient, OOMP2, MP2 Hessian
   Martin Krupicka        : AUTO-CI
   Dagmar Lenk            : GEPOL surface
   Dimitrios Liakos       : Extrapolation schemes; parallel MDCI
   Dimitrios Manganas     : ROCIS; embedding schemes
   Dimitrios Pantazis     : SARC Basis sets
   Taras Petrenko         : DFT Hessian,TD-DFT gradient, ASA, ECA, R-Raman, ABS, FL, XAS/XES, NRVS
   Peter Pinski           : DLPNO-MP2
   Christoph Reimann      : Effective Core Potentials
   Marius Retegan         : Local ZFS, SOC
   Christoph Riplinger    : Optimizer, TS searches, QM/MM, DLPNO-CCSD(T), (RO)-DLPNO pert. Triples
   Tobias Risthaus        : Range-separated hybrids, TD-DFT gradient, RPA, STAB
   Michael Roemelt        : Restricted open shell CIS
   Masaaki Saitow         : Open-shell DLPNO
   Barbara Sandhoefer     : DKH picture change effects
   Kantharuban Sivalingam : CASSCF convergence, NEVPT2, FIC-MRCI
   Georgi Stoychev        : AutoAux
   Boris Wezisla          : Elementary symmetry handling
   Frank Wennmohs         : Technical directorship


 We gratefully acknowledge several colleagues who have allowed us to
 interface, adapt or use parts of their codes:
   Stefan Grimme, W. Hujo, H. Kruse,             : VdW corrections, initial TS optimization,
                  C. Bannwarth                     DFT functionals, gCP, sTDA/sTD-DF
   Ed Valeev                                     : LibInt (2-el integral package), F12 methods
   Garnet Chan, S. Sharma, J. Yang, R. Olivares  : DMRG
   Ulf Ekstrom                                   : XCFun DFT Library
   Mihaly Kallay                                 : mrcc  (arbitrary order and MRCC methods)
   Jiri Pittner, Ondrej Demel                    : Mk-CCSD
   Frank Weinhold                                : gennbo (NPA and NBO analysis)
   Christopher J. Cramer and Donald G. Truhlar   : smd solvation model


 Your calculation uses the libint2 library for the computation of 2-el integrals
 For citations please refer to: http://libint.valeyev.net

 This ORCA versions uses:
   CBLAS   interface :  Fast vector & matrix operations
   LAPACKE interface :  Fast linear algebra routines
   SCALAPACK package :  Parallel linear algebra routines


Your calculation utilizes the atom-pairwise dispersion correction
with the zero-damping scheme (D30)
Cite in your paper:
S.Grimme, J.Antony, S.Ehrlich and H.Krieg, J.Chem.Phys., 132, (2010), 154104 
   

XCFun DFT library Copyright 2009-2010 Ulf Ekstrom and contributors.
See http://admol.org/xcfun for more information. This is free soft-
ware; see the source code for copying conditions. There is ABSOLUTELY
NO WARRANTY; not even for MERCHANTABILITY or FITNESS FOR A PARTICULAR
PURPOSE. For details see the documentation. Scientific users of this 
library should cite U. Ekstrom, L. Visscher, R. Bast, A. J. Thorvald-
sen and K. Ruud; J.Chem.Theor.Comp. 2010, DOI: 10.1021/ct100117s
XCFun Version 0.99 
Your calculation utilizes the basis: 6-31G(d)
   H-He, Li-Ne : W. J. Hehre, R. Ditchfield and J.A. Pople, J. Chem. Phys. 56, 2257 (1972).
                 Note: He and Ne are unpublished basis sets taken from the Gaussian program.
                 Note: Li and B from J. D. Dill and J. A. Pople, J. Chem. Phys. 62, 2921 (1975).
   Na - Ar     : M. M. Francl, W. J. Pietro, W. J. Hehre, J. S. Binkley, M. S. Gordon, 
                 D. J. DeFrees and J. A. Pople, J. Chem. Phys. 77, 3654 (1982).
   K - Zn      : V. A. Rassolov, J. A. Pople, M. A. Ratner, and T. L. Windus, J. Chem. Phys. 109, 1223 (1998).

================================================================================
                                        WARNINGS
                       Please study these warnings very carefully!
================================================================================

Warning: TCutStore was < 0. Adjusted to Thresh (uncritical)

INFO   : the flag for use of LIBINT has been found!

================================================================================
                                       INPUT FILE
================================================================================
NAME = initial27.inp
|  1> ! WB97X-D3 6-31G(d) VerySlowConv
|  2> ! KDIIS NOSOSCF
|  3> %base "Scan_27"
|  4> 
|  5> %scf
|  6> maxiter 999
|  7> end
|  8> 
|  9> * xyz 0 1
| 10> N         -3.918623069295    2.086597574461   -0.000000000000
| 11> N         -0.761316930706    2.042842425539   -0.000000000000
| 12> **                         ****END OF INPUT****
================================================================================

                       ****************************
                       * Single Point Calculation *
                       ****************************

---------------------------------
CARTESIAN COORDINATES (ANGSTROEM)
---------------------------------
  N     -3.918623    2.086598   -0.000000
  N     -0.761317    2.042842   -0.000000

----------------------------
CARTESIAN COORDINATES (A.U.)
----------------------------
  NO LB      ZA    FRAG     MASS         X           Y           Z
   0 N     7.0000    0    14.007   -7.405124    3.943098   -0.000000
   1 N     7.0000    0    14.007   -1.438681    3.860413   -0.000000

--------------------------------
INTERNAL COORDINATES (ANGSTROEM)
--------------------------------
 N      0   0   0     0.000000000000     0.00000000     0.00000000
 N      1   0   0     3.157609311778     0.00000000     0.00000000

---------------------------
INTERNAL COORDINATES (A.U.)
---------------------------
 N      0   0   0     0.000000000000     0.00000000     0.00000000
 N      1   0   0     5.967016837181     0.00000000     0.00000000

---------------------
BASIS SET INFORMATION
---------------------
There are 1 groups of distinct atoms

 Group   1 Type N   : 10s4p1d contracted to 3s2p1d pattern {631/31/1}

Atom   0N    basis set group =>   1
Atom   1N    basis set group =>   1
------------------------------------------------------------------------------
                           ORCA GTO INTEGRAL CALCULATION
------------------------------------------------------------------------------

                         BASIS SET STATISTICS AND STARTUP INFO

 # of primitive gaussian shells          ...   30
 # of primitive gaussian functions       ...   54
 # of contracted shells                  ...   12
 # of contracted basis functions         ...   28
 Highest angular momentum                ...    2
 Maximum contraction depth               ...    6
 Integral package used                   ... LIBINT
 Integral threshhold            Thresh   ...  1.000e-10
 Primitive cut-off              TCut     ...  1.000e-11


------------------------------ INTEGRAL EVALUATION ----------------------------


 * One electron integrals 
 Pre-screening matrix                    ... done
 Shell pair data                         ... done (   0.000 sec)

-------------------------------------------------------------------------------
                                 ORCA SCF
-------------------------------------------------------------------------------

------------
SCF SETTINGS
------------
Hamiltonian:
 Density Functional     Method          .... DFT(GTOs)
 Exchange Functional    Exchange        .... WB97X-D3
 Correlation Functional Correlation     .... WB97X-D3
 Gradients option       PostSCFGGA      .... off
 Hybrid DFT is turned on
   Fraction HF Exchange ScalHFX         ....  0.195728
   Scaling of DF-GGA-X  ScalDFX         ....  0.000000
   Scaling of DF-GGA-C  ScalDFC         ....  1.000000
   Scaling of DF-LDA-C  ScalLDAC        ....  1.000000
   Perturbative correction              ....  0.000000
 Long-range corrected/Screened/Range-Separated Hybrid DFT is turned on
   Amount of maximum screened exact exchange              ....  0.804272
   Range separation parameter mu (erf(mu*r12)/r12)        ....  0.250000


General Settings:
 Integral files         IntName         .... Scan_27
 Hartree-Fock type      HFTyp           .... RHF
 Total Charge           Charge          ....    0
 Multiplicity           Mult            ....    1
 Number of Electrons    NEL             ....   14
 Basis Dimension        Dim             ....   28
 Nuclear Repulsion      ENuc            ....      8.2118085699 Eh

Convergence Acceleration:
 DIIS                   CNVDIIS         .... on
   Start iteration      DIISMaxIt       ....     0
   Startup error        DIISStart       ....  0.200000
   # of expansion vecs  DIISMaxEq       ....     5
   Bias factor          DIISBfac        ....   1.050
   Max. coefficient     DIISMaxC        ....  10.000
 Newton-Raphson         CNVNR           .... off
 SOSCF                  CNVSOSCF        .... off
 Level Shifting         CNVShift        .... off
 Zerner damping         CNVZerner       .... off
 Static damping         CNVDamp         .... off
 Fernandez-Rico         CNVRico         .... off

SCF Procedure:
 Maximum # iterations   MaxIter         ....   999
 SCF integral mode      SCFMode         .... Direct
   Integral package                     .... LIBINT
 Reset frequeny         DirectResetFreq ....    20
 Integral Threshold     Thresh          ....  1.000e-10 Eh
 Primitive CutOff       TCut            ....  1.000e-11 Eh

Convergence Tolerance:
 Convergence Check Mode ConvCheckMode   .... All-Criteria
 Convergence forced     ConvForced      .... 0
 Energy Change          TolE            ....  1.000e-06 Eh
 Max Density Change     TolMaxP         ....  1.000e-05
 RMS Density Change     TolRMSP         ....  1.000e-06
 DIIS Error             TolErr          ....  1.000e-06


Diagonalization of the overlap matrix:
Smallest eigenvalue                        ... 2.094e-01
Time for diagonalization                   ...    0.001 sec
Threshold for overlap eigenvalues          ... 1.000e-08
Number of eigenvalues below threshold      ... 0
Time for construction of square roots      ...    0.004 sec
Total time needed                          ...    0.005 sec

-------------------
DFT GRID GENERATION
-------------------

General Integration Accuracy     IntAcc      ...  4.340
Radial Grid Type                 RadialGrid  ... Gauss-Chebyshev
Angular Grid (max. acc.)         AngularGrid ... Lebedev-110
Angular grid pruning method      GridPruning ... 3 (G Style)
Weight generation scheme         WeightScheme... Becke
Basis function cutoff            BFCut       ...    1.0000e-10
Integration weight cutoff        WCut        ...    1.0000e-14
Grids for H and He will be reduced by one unit

# of grid points (after initial pruning)     ...   3404 (   0.0 sec)
# of grid points (after weights+screening)   ...   3392 (   0.0 sec)
nearest neighbour list constructed           ...    0.0 sec
Grid point re-assignment to atoms done       ...    0.0 sec
Grid point division into batches done        ...    0.0 sec
Reduced shell lists constructed in    0.0 sec

Total number of grid points                  ...     3392
Total number of batches                      ...       54
Average number of points per batch           ...       62
Average number of grid points per atom       ...     1696
Average number of shells per batch           ...     9.36 (78.03%)
Average number of basis functions per batch  ...    22.78 (81.36%)
Average number of large shells per batch     ...     7.85 (83.88%)
Average number of large basis fcns per batch ...    18.69 (82.04%)
Maximum spatial batch extension              ...  15.94, 25.65, 23.30 au
Average spatial batch extension              ...   6.25,  6.45,  6.65 au

Time for grid setup =    0.020 sec

------------------------------
INITIAL GUESS: MODEL POTENTIAL
------------------------------
Loading Hartree-Fock densities                     ... done
Calculating cut-offs                               ... done
Setting up the integral package                    ... done
Initializing the effective Hamiltonian             ... done
Starting the Coulomb interaction                   ... done (   0.0 sec)
Reading the grid                                   ... done
Mapping shells                                     ... done
Starting the XC term evaluation                    ... done (   0.0 sec)
  promolecular density results
     # of electrons  =     13.999606092
     EX              =    -12.714979279
     EC              =     -0.398493212
     EX+EC           =    -13.113472490
Transforming the Hamiltonian                       ... done (   0.0 sec)
Diagonalizing the Hamiltonian                      ... done (   0.0 sec)
Back transforming the eigenvectors                 ... done (   0.0 sec)
Now organizing SCF variables                       ... done
                      ------------------
                      INITIAL GUESS DONE (   0.1 sec)
                      ------------------
--------------
SCF ITERATIONS
--------------
ITER       Energy         Delta-E        Max-DP      RMS-DP      [F,P]   Gradient Norm
               ***  Starting incremental Fock matrix formation  ***
                             ****Resetting KDIIS****
                             ****Turning on KDIIS(Cayley)****
  0   -108.7219877651   0.000000000000 0.00312571  0.00024765  0.0213562   0.015908114
  1   -108.7222173907  -0.000229625520 0.00614847  0.00051685  0.0192267   0.014411320
  2   -108.7226416025  -0.000424211834 0.01037265  0.00086048  0.0154272   0.011604979
  3   -108.7231443249  -0.000502722356 0.01547833  0.00129117  0.0092485   0.006961691
  4   -108.7234271099  -0.000282785018 0.00135825  0.00010229  0.0001435   0.000112604
                          ***Energy convergence achieved***
  5   -108.7234262635   0.000000846354 0.00008435  0.00001080  0.0000578   0.000051992

            ***Energy convergence in two consecutive cycles with***
                    ***'reasonable' density convergence***
                       *** signaling convergence ***

                    *** KDIIS BlockDiag ( 0.000 sec) ***

               *****************************************************
               *                     SUCCESS                       *
               *           SCF CONVERGED AFTER   6 CYCLES          *
               *****************************************************

Setting up the final grid:

General Integration Accuracy     IntAcc      ...  4.670
Radial Grid Type                 RadialGrid  ... Gauss-Chebyshev
Angular Grid (max. acc.)         AngularGrid ... Lebedev-302
Angular grid pruning method      GridPruning ... 3 (G Style)
Weight generation scheme         WeightScheme... Becke
Basis function cutoff            BFCut       ...    1.0000e-10
Integration weight cutoff        WCut        ...    1.0000e-14
Grids for H and He will be reduced by one unit

# of grid points (after initial pruning)     ...  12424 (   0.0 sec)
# of grid points (after weights+screening)   ...  12410 (   0.0 sec)
nearest neighbour list constructed           ...    0.0 sec
Grid point re-assignment to atoms done       ...    0.0 sec
Grid point division into batches done        ...    0.0 sec
Reduced shell lists constructed in    0.1 sec

Total number of grid points                  ...    12410
Total number of batches                      ...      194
Average number of points per batch           ...       63
Average number of grid points per atom       ...     6205
Average number of shells per batch           ...     8.31 (69.27%)
Average number of basis functions per batch  ...    20.21 (72.18%)
Average number of large shells per batch     ...     6.75 (81.25%)
Average number of large basis fcns per batch ...    16.03 (79.29%)
Maximum spatial batch extension              ...  17.50, 16.88, 16.96 au
Average spatial batch extension              ...   3.72,  4.05,  4.10 au

Final grid set up in    0.1 sec
Final integration                            ... done (   0.1 sec)
Change in XC energy                          ...    -0.000407264
Integrated number of electrons               ...    13.999982674
Previous integrated no of electrons          ...    13.999479605

----------------
TOTAL SCF ENERGY
----------------

Total Energy       :         -108.72383346 Eh           -2958.52592 eV

Components:
Nuclear Repulsion  :            8.21180857 Eh             223.45467 eV
Electronic Energy  :         -116.93564203 Eh           -3181.98059 eV
One Electron Energy:         -163.62759238 Eh           -4452.53315 eV
Two Electron Energy:           46.69195034 Eh            1270.55256 eV

Virial components:
Potential Energy   :         -216.55271082 Eh           -5892.69884 eV
Kinetic Energy     :          107.82887736 Eh            2934.17292 eV
Virial Ratio       :            2.00829978


DFT components:
N(Alpha)           :        6.999991337249 electrons
N(Beta)            :        6.999991337249 electrons
N(Total)           :       13.999982674498 electrons
E(XC)              :       -9.198807958673 Eh       

---------------
SCF CONVERGENCE
---------------

  Last Energy change         ...    6.5069e-08  Tolerance :   1.0000e-06
  Last MAX-Density change    ...    8.5842e-05  Tolerance :   1.0000e-05
  Last RMS-Density change    ...    8.4831e-06  Tolerance :   1.0000e-06
  Last DIIS Error            ...    1.7717e-04  Tolerance :   1.0000e-06

             **** THE GBW FILE WAS UPDATED (Scan_27.gbw) ****
             **** DENSITY FILE WAS UPDATED (Scan_27.scfp.tmp) ****
             **** ENERGY FILE WAS UPDATED (Scan_27.en.tmp) ****
----------------
ORBITAL ENERGIES
----------------

  NO   OCC          E(Eh)            E(eV) 
   0   2.0000     -14.616748      -397.7419 
   1   2.0000     -14.616097      -397.7242 
   2   2.0000      -0.869698       -23.6657 
   3   2.0000      -0.855593       -23.2819 
   4   2.0000      -0.359127        -9.7723 
   5   2.0000      -0.342362        -9.3161 
   6   2.0000      -0.342361        -9.3161 
   7   0.0000      -0.178713        -4.8630 
   8   0.0000      -0.178712        -4.8630 
   9   0.0000      -0.158969        -4.3258 
  10   0.0000       0.651665        17.7327 
  11   0.0000       0.729864        19.8606 
  12   0.0000       0.729868        19.8607 
  13   0.0000       0.775927        21.1140 
  14   0.0000       0.775929        21.1141 
  15   0.0000       0.793835        21.6014 
  16   0.0000       0.818702        22.2780 
  17   0.0000       0.981181        26.6993 
  18   0.0000       1.773614        48.2625 
  19   0.0000       1.773706        48.2650 
  20   0.0000       1.774778        48.2942 
  21   0.0000       1.774787        48.2944 
  22   0.0000       1.774964        48.2992 
  23   0.0000       1.775974        48.3267 
  24   0.0000       1.776066        48.3292 
  25   0.0000       1.777990        48.3816 
  26   0.0000       1.777993        48.3816 
  27   0.0000       1.784795        48.5667 

                    ********************************
                    * MULLIKEN POPULATION ANALYSIS *
                    ********************************

-----------------------
MULLIKEN ATOMIC CHARGES
-----------------------
   0 N :   -0.000410
   1 N :    0.000410
Sum of atomic charges:    0.0000000

--------------------------------
MULLIKEN REDUCED ORBITAL CHARGES
--------------------------------
  0 N s       :     3.999467  s :     3.999467
      pz      :     1.000110  p :     3.000744
      px      :     1.000528
      py      :     1.000106
      dz2     :     0.000036  d :     0.000198
      dxz     :     0.000027
      dyz     :     0.000000
      dx2y2   :     0.000108
      dxy     :     0.000027
  1 N s       :     3.999468  s :     3.999468
      pz      :     0.999835  p :     2.999924
      px      :     1.000258
      py      :     0.999831
      dz2     :     0.000036  d :     0.000198
      dxz     :     0.000027
      dyz     :     0.000000
      dx2y2   :     0.000108
      dxy     :     0.000027


                     *******************************
                     * LOEWDIN POPULATION ANALYSIS *
                     *******************************

----------------------
LOEWDIN ATOMIC CHARGES
----------------------
   0 N :   -0.000410
   1 N :    0.000410

-------------------------------
LOEWDIN REDUCED ORBITAL CHARGES
-------------------------------
  0 N s       :     3.998773  s :     3.998773
      pz      :     1.000111  p :     3.001435
      px      :     1.001217
      py      :     1.000107
      dz2     :     0.000037  d :     0.000202
      dxz     :     0.000026
      dyz     :     0.000000
      dx2y2   :     0.000112
      dxy     :     0.000027
  1 N s       :     3.998773  s :     3.998773
      pz      :     0.999836  p :     3.000615
      px      :     1.000947
      py      :     0.999832
      dz2     :     0.000037  d :     0.000202
      dxz     :     0.000027
      dyz     :     0.000000
      dx2y2   :     0.000112
      dxy     :     0.000027


                      *****************************
                      * MAYER POPULATION ANALYSIS *
                      *****************************

  NA   - Mulliken gross atomic population
  ZA   - Total nuclear charge
  QA   - Mulliken gross atomic charge
  VA   - Mayer's total valence
  BVA  - Mayer's bonded valence
  FA   - Mayer's free valence

  ATOM       NA         ZA         QA         VA         BVA        FA
  0 N      7.0004     7.0000    -0.0004     3.0007     3.0007     0.0000
  1 N      6.9996     7.0000     0.0004     3.0007     3.0007    -0.0000

  Mayer bond orders larger than 0.1
B(  0-N ,  1-N ) :   3.0007 

-------
TIMINGS
-------

Total SCF time: 0 days 0 hours 0 min 2 sec 

Total time                  ....       2.101 sec
Sum of individual times     ....       2.018 sec  ( 96.0%)

Fock matrix formation       ....       1.783 sec  ( 84.8%)
  XC integration            ....       0.328 sec  ( 18.4% of F)
    Basis function eval.    ....       0.081 sec  ( 24.6% of XC)
    Density eval.           ....       0.015 sec  (  4.6% of XC)
    XC-Functional eval.     ....       0.100 sec  ( 30.6% of XC)
    XC-Potential eval.      ....       0.010 sec  (  2.9% of XC)
Diagonalization             ....       0.005 sec  (  0.3%)
Density matrix formation    ....       0.000 sec  (  0.0%)
Population analysis         ....       0.009 sec  (  0.4%)
Initial guess               ....       0.104 sec  (  4.9%)
Orbital Transformation      ....       0.000 sec  (  0.0%)
Orbital Orthonormalization  ....       0.000 sec  (  0.0%)
DIIS solution               ....       0.000 sec  (  0.0%)
Grid generation             ....       0.117 sec  (  5.6%)


-------------------------------------------------------------------------------
                          DFT DISPERSION CORRECTION                            
                                                                               
                              DFTD3 V3.1  Rev 1                                
                              USING zero damping                               
-------------------------------------------------------------------------------
The omegaB97X-D3 functional is recognized. Fit by Chai et al.
Active option DFTDOPT                   ...         3   

molecular C6(AA) [au] = 100.824593 


            DFT-D V3
 parameters
 s6 scaling factor         :     1.0000 
 rs6 scaling factor        :     1.2810 
 s8 scaling factor         :     1.0000 
 rs8 scaling factor        :     1.0940 
 Damping factor alpha6     :    14.0000 
 Damping factor alpha8     :    16.0000 
 ad hoc parameters k1-k3   :    16.0000     1.3333    -4.0000 

 Edisp/kcal,au: -0.117546850130  -0.000187322809 
 E6   /kcal   :  -0.022927535 
 E8   /kcal   :  -0.094619315 
 % E8         :  80.494981521 

-------------------------   ----------------
Dispersion correction           -0.000187323
-------------------------   ----------------


-------------------------   --------------------
FINAL SINGLE POINT ENERGY      -108.724020785021
-------------------------   --------------------


                            ***************************************
                            *     ORCA property calculations      *
                            ***************************************

                                    ---------------------
                                    Active property flags
                                    ---------------------
   (+) Dipole Moment


------------------------------------------------------------------------------
                       ORCA ELECTRIC PROPERTIES CALCULATION
------------------------------------------------------------------------------

Dipole Moment Calculation                       ... on
Quadrupole Moment Calculation                   ... off
Polarizability Calculation                      ... off
GBWName                                         ... Scan_27.gbw
Electron density file                           ... Scan_27.scfp.tmp

-------------
DIPOLE MOMENT
-------------
                                X             Y             Z
Electronic contribution:      0.00244      -0.00003       0.00000
Nuclear contribution   :     -0.00000      -0.00000       0.00000
                        -----------------------------------------
Total Dipole Moment    :      0.00244      -0.00003       0.00000
                        -----------------------------------------
Magnitude (a.u.)       :      0.00244
Magnitude (Debye)      :      0.00620


Timings for individual modules:

Sum of individual times         ...        2.425 sec (=   0.040 min)
GTO integral calculation        ...        0.301 sec (=   0.005 min)  12.4 %
SCF iterations                  ...        2.124 sec (=   0.035 min)  87.6 %
                             ****ORCA TERMINATED NORMALLY****
TOTAL RUN TIME: 0 days 0 hours 0 minutes 2 seconds 745 msec
