
                                 *****************
                                 * O   R   C   A *
                                 *****************

           --- An Ab Initio, DFT and Semiempirical electronic structure package ---

                  #######################################################
                  #                        -***-                        #
                  #  Department of molecular theory and spectroscopy    #
                  #              Directorship: Frank Neese              #
                  # Max Planck Institute for Chemical Energy Conversion #
                  #                  D-45470 Muelheim/Ruhr              #
                  #                       Germany                       #
                  #                                                     #
                  #                  All rights reserved                #
                  #                        -***-                        #
                  #######################################################


                         Program Version 4.0.0.2 - RELEASE -


 With contributions from (in alphabetic order):
   Daniel Aravena         : Magnetic Properties
   Michael Atanasov       : Ab Initio Ligand Field Theory
   Ute Becker             : Parallelization
   Martin Brehm           : Molecular dynamics
   Dmytro Bykov           : SCF Hessian
   Vijay G. Chilkuri      : MRCI spin determinant printing
   Dipayan Datta          : RHF DLPNO-CCSD density
   Achintya Kumar Dutta   : EOM-CC, STEOM-CC
   Dmitry Ganyushin       : Spin-Orbit,Spin-Spin,Magnetic field MRCI
   Yang Guo               : DLPNO-NEVPT2, CIM, IAO-localization
   Andreas Hansen         : Spin unrestricted coupled pair/coupled cluster methods
   Lee Huntington         : MR-EOM, pCC
   Robert Izsak           : Overlap fitted RIJCOSX, COSX-SCS-MP3, EOM
   Christian Kollmar      : KDIIS, OOCD, Brueckner-CCSD(T), CCSD density
   Simone Kossmann        : Meta GGA functionals, TD-DFT gradient, OOMP2, MP2 Hessian
   Martin Krupicka        : AUTO-CI
   Dagmar Lenk            : GEPOL surface
   Dimitrios Liakos       : Extrapolation schemes; parallel MDCI
   Dimitrios Manganas     : ROCIS; embedding schemes
   Dimitrios Pantazis     : SARC Basis sets
   Taras Petrenko         : DFT Hessian,TD-DFT gradient, ASA, ECA, R-Raman, ABS, FL, XAS/XES, NRVS
   Peter Pinski           : DLPNO-MP2
   Christoph Reimann      : Effective Core Potentials
   Marius Retegan         : Local ZFS, SOC
   Christoph Riplinger    : Optimizer, TS searches, QM/MM, DLPNO-CCSD(T), (RO)-DLPNO pert. Triples
   Tobias Risthaus        : Range-separated hybrids, TD-DFT gradient, RPA, STAB
   Michael Roemelt        : Restricted open shell CIS
   Masaaki Saitow         : Open-shell DLPNO
   Barbara Sandhoefer     : DKH picture change effects
   Kantharuban Sivalingam : CASSCF convergence, NEVPT2, FIC-MRCI
   Georgi Stoychev        : AutoAux
   Boris Wezisla          : Elementary symmetry handling
   Frank Wennmohs         : Technical directorship


 We gratefully acknowledge several colleagues who have allowed us to
 interface, adapt or use parts of their codes:
   Stefan Grimme, W. Hujo, H. Kruse,             : VdW corrections, initial TS optimization,
                  C. Bannwarth                     DFT functionals, gCP, sTDA/sTD-DF
   Ed Valeev                                     : LibInt (2-el integral package), F12 methods
   Garnet Chan, S. Sharma, J. Yang, R. Olivares  : DMRG
   Ulf Ekstrom                                   : XCFun DFT Library
   Mihaly Kallay                                 : mrcc  (arbitrary order and MRCC methods)
   Jiri Pittner, Ondrej Demel                    : Mk-CCSD
   Frank Weinhold                                : gennbo (NPA and NBO analysis)
   Christopher J. Cramer and Donald G. Truhlar   : smd solvation model


 Your calculation uses the libint2 library for the computation of 2-el integrals
 For citations please refer to: http://libint.valeyev.net

 This ORCA versions uses:
   CBLAS   interface :  Fast vector & matrix operations
   LAPACKE interface :  Fast linear algebra routines
   SCALAPACK package :  Parallel linear algebra routines


Your calculation utilizes the atom-pairwise dispersion correction
with the zero-damping scheme (D30)
Cite in your paper:
S.Grimme, J.Antony, S.Ehrlich and H.Krieg, J.Chem.Phys., 132, (2010), 154104 
   

XCFun DFT library Copyright 2009-2010 Ulf Ekstrom and contributors.
See http://admol.org/xcfun for more information. This is free soft-
ware; see the source code for copying conditions. There is ABSOLUTELY
NO WARRANTY; not even for MERCHANTABILITY or FITNESS FOR A PARTICULAR
PURPOSE. For details see the documentation. Scientific users of this 
library should cite U. Ekstrom, L. Visscher, R. Bast, A. J. Thorvald-
sen and K. Ruud; J.Chem.Theor.Comp. 2010, DOI: 10.1021/ct100117s
XCFun Version 0.99 
Your calculation utilizes the basis: 6-31G(d)
   H-He, Li-Ne : W. J. Hehre, R. Ditchfield and J.A. Pople, J. Chem. Phys. 56, 2257 (1972).
                 Note: He and Ne are unpublished basis sets taken from the Gaussian program.
                 Note: Li and B from J. D. Dill and J. A. Pople, J. Chem. Phys. 62, 2921 (1975).
   Na - Ar     : M. M. Francl, W. J. Pietro, W. J. Hehre, J. S. Binkley, M. S. Gordon, 
                 D. J. DeFrees and J. A. Pople, J. Chem. Phys. 77, 3654 (1982).
   K - Zn      : V. A. Rassolov, J. A. Pople, M. A. Ratner, and T. L. Windus, J. Chem. Phys. 109, 1223 (1998).

================================================================================
                                        WARNINGS
                       Please study these warnings very carefully!
================================================================================

Warning: TCutStore was < 0. Adjusted to Thresh (uncritical)

INFO   : the flag for use of LIBINT has been found!

================================================================================
                                       INPUT FILE
================================================================================
NAME = initial36.inp
|  1> ! WB97X-D3 6-31G(d) VerySlowConv
|  2> ! KDIIS NOSOSCF
|  3> %base "Scan_36"
|  4> 
|  5> %scf
|  6> maxiter 999
|  7> end
|  8> 
|  9> * xyz 0 1
| 10> N         -4.379504736312    2.092984647837   -0.000000000000
| 11> N         -0.300435263689    2.036455352163   -0.000000000000
| 12> **                         ****END OF INPUT****
================================================================================

                       ****************************
                       * Single Point Calculation *
                       ****************************

---------------------------------
CARTESIAN COORDINATES (ANGSTROEM)
---------------------------------
  N     -4.379505    2.092985   -0.000000
  N     -0.300435    2.036455   -0.000000

----------------------------
CARTESIAN COORDINATES (A.U.)
----------------------------
  NO LB      ZA    FRAG     MASS         X           Y           Z
   0 N     7.0000    0    14.007   -8.276065    3.955168   -0.000000
   1 N     7.0000    0    14.007   -0.567740    3.848343   -0.000000

--------------------------------
INTERNAL COORDINATES (ANGSTROEM)
--------------------------------
 N      0   0   0     0.000000000000     0.00000000     0.00000000
 N      1   0   0     4.079461156054     0.00000000     0.00000000

---------------------------
INTERNAL COORDINATES (A.U.)
---------------------------
 N      0   0   0     0.000000000000     0.00000000     0.00000000
 N      1   0   0     7.709064358912     0.00000000     0.00000000

---------------------
BASIS SET INFORMATION
---------------------
There are 1 groups of distinct atoms

 Group   1 Type N   : 10s4p1d contracted to 3s2p1d pattern {631/31/1}

Atom   0N    basis set group =>   1
Atom   1N    basis set group =>   1
------------------------------------------------------------------------------
                           ORCA GTO INTEGRAL CALCULATION
------------------------------------------------------------------------------

                         BASIS SET STATISTICS AND STARTUP INFO

 # of primitive gaussian shells          ...   30
 # of primitive gaussian functions       ...   54
 # of contracted shells                  ...   12
 # of contracted basis functions         ...   28
 Highest angular momentum                ...    2
 Maximum contraction depth               ...    6
 Integral package used                   ... LIBINT
 Integral threshhold            Thresh   ...  1.000e-10
 Primitive cut-off              TCut     ...  1.000e-11


------------------------------ INTEGRAL EVALUATION ----------------------------


 * One electron integrals 
 Pre-screening matrix                    ... done
 Shell pair data                         ... done (   0.000 sec)

-------------------------------------------------------------------------------
                                 ORCA SCF
-------------------------------------------------------------------------------

------------
SCF SETTINGS
------------
Hamiltonian:
 Density Functional     Method          .... DFT(GTOs)
 Exchange Functional    Exchange        .... WB97X-D3
 Correlation Functional Correlation     .... WB97X-D3
 Gradients option       PostSCFGGA      .... off
 Hybrid DFT is turned on
   Fraction HF Exchange ScalHFX         ....  0.195728
   Scaling of DF-GGA-X  ScalDFX         ....  0.000000
   Scaling of DF-GGA-C  ScalDFC         ....  1.000000
   Scaling of DF-LDA-C  ScalLDAC        ....  1.000000
   Perturbative correction              ....  0.000000
 Long-range corrected/Screened/Range-Separated Hybrid DFT is turned on
   Amount of maximum screened exact exchange              ....  0.804272
   Range separation parameter mu (erf(mu*r12)/r12)        ....  0.250000


General Settings:
 Integral files         IntName         .... Scan_36
 Hartree-Fock type      HFTyp           .... RHF
 Total Charge           Charge          ....    0
 Multiplicity           Mult            ....    1
 Number of Electrons    NEL             ....   14
 Basis Dimension        Dim             ....   28
 Nuclear Repulsion      ENuc            ....      6.3561539661 Eh

Convergence Acceleration:
 DIIS                   CNVDIIS         .... on
   Start iteration      DIISMaxIt       ....     0
   Startup error        DIISStart       ....  0.200000
   # of expansion vecs  DIISMaxEq       ....     5
   Bias factor          DIISBfac        ....   1.050
   Max. coefficient     DIISMaxC        ....  10.000
 Newton-Raphson         CNVNR           .... off
 SOSCF                  CNVSOSCF        .... off
 Level Shifting         CNVShift        .... off
 Zerner damping         CNVZerner       .... off
 Static damping         CNVDamp         .... off
 Fernandez-Rico         CNVRico         .... off

SCF Procedure:
 Maximum # iterations   MaxIter         ....   999
 SCF integral mode      SCFMode         .... Direct
   Integral package                     .... LIBINT
 Reset frequeny         DirectResetFreq ....    20
 Integral Threshold     Thresh          ....  1.000e-10 Eh
 Primitive CutOff       TCut            ....  1.000e-11 Eh

Convergence Tolerance:
 Convergence Check Mode ConvCheckMode   .... All-Criteria
 Convergence forced     ConvForced      .... 0
 Energy Change          TolE            ....  1.000e-06 Eh
 Max Density Change     TolMaxP         ....  1.000e-05
 RMS Density Change     TolRMSP         ....  1.000e-06
 DIIS Error             TolErr          ....  1.000e-06


Diagonalization of the overlap matrix:
Smallest eigenvalue                        ... 2.218e-01
Time for diagonalization                   ...    0.001 sec
Threshold for overlap eigenvalues          ... 1.000e-08
Number of eigenvalues below threshold      ... 0
Time for construction of square roots      ...    0.005 sec
Total time needed                          ...    0.006 sec

-------------------
DFT GRID GENERATION
-------------------

General Integration Accuracy     IntAcc      ...  4.340
Radial Grid Type                 RadialGrid  ... Gauss-Chebyshev
Angular Grid (max. acc.)         AngularGrid ... Lebedev-110
Angular grid pruning method      GridPruning ... 3 (G Style)
Weight generation scheme         WeightScheme... Becke
Basis function cutoff            BFCut       ...    1.0000e-10
Integration weight cutoff        WCut        ...    1.0000e-14
Grids for H and He will be reduced by one unit

# of grid points (after initial pruning)     ...   3404 (   0.0 sec)
# of grid points (after weights+screening)   ...   3394 (   0.0 sec)
nearest neighbour list constructed           ...    0.0 sec
Grid point re-assignment to atoms done       ...    0.0 sec
Grid point division into batches done        ...    0.0 sec
Reduced shell lists constructed in    0.0 sec

Total number of grid points                  ...     3394
Total number of batches                      ...       54
Average number of points per batch           ...       62
Average number of grid points per atom       ...     1697
Average number of shells per batch           ...     8.16 (68.03%)
Average number of basis functions per batch  ...    19.25 (68.77%)
Average number of large shells per batch     ...     7.04 (86.19%)
Average number of large basis fcns per batch ...    17.36 (90.18%)
Maximum spatial batch extension              ...  16.48, 22.48, 25.65 au
Average spatial batch extension              ...   6.13,  6.11,  6.31 au

Time for grid setup =    0.020 sec

------------------------------
INITIAL GUESS: MODEL POTENTIAL
------------------------------
Loading Hartree-Fock densities                     ... done
Calculating cut-offs                               ... done
Setting up the integral package                    ... done
Initializing the effective Hamiltonian             ... done
Starting the Coulomb interaction                   ... done (   0.0 sec)
Reading the grid                                   ... done
Mapping shells                                     ... done
Starting the XC term evaluation                    ... done (   0.0 sec)
  promolecular density results
     # of electrons  =     13.999919159
     EX              =    -12.714418252
     EC              =     -0.397928604
     EX+EC           =    -13.112346856
Transforming the Hamiltonian                       ... done (   0.0 sec)
Diagonalizing the Hamiltonian                      ... done (   0.0 sec)
Back transforming the eigenvectors                 ... done (   0.0 sec)
Now organizing SCF variables                       ... done
                      ------------------
                      INITIAL GUESS DONE (   0.1 sec)
                      ------------------
--------------
SCF ITERATIONS
--------------
ITER       Energy         Delta-E        Max-DP      RMS-DP      [F,P]   Gradient Norm
               ***  Starting incremental Fock matrix formation  ***
                             ****Resetting KDIIS****
                             ****Turning on KDIIS(Cayley)****
  0   -108.6377946029   0.000000000000 0.00195093  0.00020430  0.0212495   0.014205743
  1   -108.6379700324  -0.000175429583 0.00488977  0.00045014  0.0191985   0.012904349
  2   -108.6382880197  -0.000317987218 0.00779919  0.00071761  0.0153154   0.010342538
  3   -108.6386591295  -0.000371109798 0.01169713  0.00122084  0.0090950   0.006257397
Warning: badly conditioned DIIS matrix, 1 vectors out of 5 destroyed
  4   -108.6388517299  -0.000192600446 0.00035937  0.00003196  0.0001505   0.000152622
                          ***Energy convergence achieved***
  5   -108.6388517738  -0.000000043937 0.00006496  0.00000662  0.0000614   0.000052671

            ***Energy convergence in two consecutive cycles with***
                    ***'reasonable' density convergence***
                       *** signaling convergence ***

                    *** KDIIS BlockDiag ( 0.000 sec) ***

               *****************************************************
               *                     SUCCESS                       *
               *           SCF CONVERGED AFTER   6 CYCLES          *
               *****************************************************

Setting up the final grid:

General Integration Accuracy     IntAcc      ...  4.670
Radial Grid Type                 RadialGrid  ... Gauss-Chebyshev
Angular Grid (max. acc.)         AngularGrid ... Lebedev-302
Angular grid pruning method      GridPruning ... 3 (G Style)
Weight generation scheme         WeightScheme... Becke
Basis function cutoff            BFCut       ...    1.0000e-10
Integration weight cutoff        WCut        ...    1.0000e-14
Grids for H and He will be reduced by one unit

# of grid points (after initial pruning)     ...  12424 (   0.0 sec)
# of grid points (after weights+screening)   ...  12414 (   0.0 sec)
nearest neighbour list constructed           ...    0.0 sec
Grid point re-assignment to atoms done       ...    0.0 sec
Grid point division into batches done        ...    0.0 sec
Reduced shell lists constructed in    0.1 sec

Total number of grid points                  ...    12414
Total number of batches                      ...      194
Average number of points per batch           ...       63
Average number of grid points per atom       ...     6207
Average number of shells per batch           ...     7.15 (59.57%)
Average number of basis functions per batch  ...    16.73 (59.74%)
Average number of large shells per batch     ...     6.02 (84.22%)
Average number of large basis fcns per batch ...    14.50 (86.70%)
Maximum spatial batch extension              ...  15.47, 26.85, 26.85 au
Average spatial batch extension              ...   3.72,  4.14,  4.06 au

Final grid set up in    0.1 sec
Final integration                            ... done (   0.1 sec)
Change in XC energy                          ...    -0.000213164
Integrated number of electrons               ...    14.000023525
Previous integrated no of electrons          ...    14.000282968

----------------
TOTAL SCF ENERGY
----------------

Total Energy       :         -108.63906492 Eh           -2956.21925 eV

Components:
Nuclear Repulsion  :            6.35615397 Eh             172.95974 eV
Electronic Energy  :         -114.99521889 Eh           -3129.17899 eV
One Electron Energy:         -159.99439044 Eh           -4353.66870 eV
Two Electron Energy:           44.99917155 Eh            1224.48971 eV

Virial components:
Potential Energy   :         -216.61086324 Eh           -5894.28125 eV
Kinetic Energy     :          107.97179832 Eh            2938.06200 eV
Virial Ratio       :            2.00618001


DFT components:
N(Alpha)           :        7.000011762567 electrons
N(Beta)            :        7.000011762567 electrons
N(Total)           :       14.000023525135 electrons
E(XC)              :       -9.216123450964 Eh       

---------------
SCF CONVERGENCE
---------------

  Last Energy change         ...    1.5198e-08  Tolerance :   1.0000e-06
  Last MAX-Density change    ...    4.7784e-05  Tolerance :   1.0000e-05
  Last RMS-Density change    ...    4.7336e-06  Tolerance :   1.0000e-06
  Last DIIS Error            ...    1.1019e-04  Tolerance :   1.0000e-06

             **** THE GBW FILE WAS UPDATED (Scan_36.gbw) ****
             **** DENSITY FILE WAS UPDATED (Scan_36.scfp.tmp) ****
             **** ENERGY FILE WAS UPDATED (Scan_36.en.tmp) ****
----------------
ORBITAL ENERGIES
----------------

  NO   OCC          E(Eh)            E(eV) 
   0   2.0000     -14.600696      -397.3051 
   1   2.0000     -14.600299      -397.2943 
   2   2.0000      -0.858623       -23.3643 
   3   2.0000      -0.853139       -23.2151 
   4   2.0000      -0.323879        -8.8132 
   5   2.0000      -0.318062        -8.6549 
   6   2.0000      -0.318062        -8.6549 
   7   0.0000      -0.190637        -5.1875 
   8   0.0000      -0.190636        -5.1875 
   9   0.0000      -0.184411        -5.0181 
  10   0.0000       0.725740        19.7484 
  11   0.0000       0.754005        20.5175 
  12   0.0000       0.754007        20.5176 
  13   0.0000       0.760442        20.6927 
  14   0.0000       0.760444        20.6927 
  15   0.0000       0.784707        21.3530 
  16   0.0000       0.832393        22.6506 
  17   0.0000       0.849739        23.1226 
  18   0.0000       1.778870        48.4055 
  19   0.0000       1.779406        48.4201 
  20   0.0000       1.779414        48.4203 
  21   0.0000       1.779528        48.4234 
  22   0.0000       1.779534        48.4236 
  23   0.0000       1.780793        48.4578 
  24   0.0000       1.780831        48.4589 
  25   0.0000       1.780837        48.4590 
  26   0.0000       1.781193        48.4687 
  27   0.0000       1.781197        48.4688 

                    ********************************
                    * MULLIKEN POPULATION ANALYSIS *
                    ********************************

-----------------------
MULLIKEN ATOMIC CHARGES
-----------------------
   0 N :   -0.000239
   1 N :    0.000239
Sum of atomic charges:   -0.0000000

--------------------------------
MULLIKEN REDUCED ORBITAL CHARGES
--------------------------------
  0 N s       :     3.999860  s :     3.999860
      pz      :     1.000072  p :     3.000345
      px      :     1.000206
      py      :     1.000067
      dz2     :     0.000004  d :     0.000033
      dxz     :     0.000008
      dyz     :     0.000000
      dx2y2   :     0.000013
      dxy     :     0.000008
  1 N s       :     3.999860  s :     3.999860
      pz      :     0.999912  p :     2.999868
      px      :     1.000048
      py      :     0.999908
      dz2     :     0.000004  d :     0.000033
      dxz     :     0.000008
      dyz     :     0.000000
      dx2y2   :     0.000013
      dxy     :     0.000008


                     *******************************
                     * LOEWDIN POPULATION ANALYSIS *
                     *******************************

----------------------
LOEWDIN ATOMIC CHARGES
----------------------
   0 N :   -0.000239
   1 N :    0.000239

-------------------------------
LOEWDIN REDUCED ORBITAL CHARGES
-------------------------------
  0 N s       :     3.999842  s :     3.999842
      pz      :     1.000072  p :     3.000364
      px      :     1.000225
      py      :     1.000067
      dz2     :     0.000004  d :     0.000033
      dxz     :     0.000008
      dyz     :     0.000000
      dx2y2   :     0.000013
      dxy     :     0.000008
  1 N s       :     3.999842  s :     3.999842
      pz      :     0.999912  p :     2.999887
      px      :     1.000067
      py      :     0.999908
      dz2     :     0.000004  d :     0.000033
      dxz     :     0.000008
      dyz     :     0.000000
      dx2y2   :     0.000013
      dxy     :     0.000008


                      *****************************
                      * MAYER POPULATION ANALYSIS *
                      *****************************

  NA   - Mulliken gross atomic population
  ZA   - Total nuclear charge
  QA   - Mulliken gross atomic charge
  VA   - Mayer's total valence
  BVA  - Mayer's bonded valence
  FA   - Mayer's free valence

  ATOM       NA         ZA         QA         VA         BVA        FA
  0 N      7.0002     7.0000    -0.0002     3.0001     3.0001    -0.0000
  1 N      6.9998     7.0000     0.0002     3.0001     3.0001     0.0000

  Mayer bond orders larger than 0.1
B(  0-N ,  1-N ) :   3.0001 

-------
TIMINGS
-------

Total SCF time: 0 days 0 hours 0 min 2 sec 

Total time                  ....       2.410 sec
Sum of individual times     ....       2.313 sec  ( 96.0%)

Fock matrix formation       ....       2.050 sec  ( 85.0%)
  XC integration            ....       0.566 sec  ( 27.6% of F)
    Basis function eval.    ....       0.072 sec  ( 12.6% of XC)
    Density eval.           ....       0.015 sec  (  2.6% of XC)
    XC-Functional eval.     ....       0.110 sec  ( 19.5% of XC)
    XC-Potential eval.      ....       0.008 sec  (  1.5% of XC)
Diagonalization             ....       0.027 sec  (  1.1%)
Density matrix formation    ....       0.000 sec  (  0.0%)
Population analysis         ....       0.010 sec  (  0.4%)
Initial guess               ....       0.108 sec  (  4.5%)
Orbital Transformation      ....       0.000 sec  (  0.0%)
Orbital Orthonormalization  ....       0.000 sec  (  0.0%)
DIIS solution               ....       0.000 sec  (  0.0%)
Grid generation             ....       0.118 sec  (  4.9%)


-------------------------------------------------------------------------------
                          DFT DISPERSION CORRECTION                            
                                                                               
                              DFTD3 V3.1  Rev 1                                
                              USING zero damping                               
-------------------------------------------------------------------------------
The omegaB97X-D3 functional is recognized. Fit by Chai et al.
Active option DFTDOPT                   ...         3   

molecular C6(AA) [au] = 100.827416 


            DFT-D V3
 parameters
 s6 scaling factor         :     1.0000 
 rs6 scaling factor        :     1.2810 
 s8 scaling factor         :     1.0000 
 rs8 scaling factor        :     1.0940 
 Damping factor alpha6     :    14.0000 
 Damping factor alpha8     :    16.0000 
 ad hoc parameters k1-k3   :    16.0000     1.3333    -4.0000 

 Edisp/kcal,au: -0.081376171600  -0.000129681170 
 E6   /kcal   :  -0.053991160 
 E8   /kcal   :  -0.027385012 
 % E8         :  33.652371982 

-------------------------   ----------------
Dispersion correction           -0.000129681
-------------------------   ----------------


-------------------------   --------------------
FINAL SINGLE POINT ENERGY      -108.639194603936
-------------------------   --------------------


                            ***************************************
                            *     ORCA property calculations      *
                            ***************************************

                                    ---------------------
                                    Active property flags
                                    ---------------------
   (+) Dipole Moment


------------------------------------------------------------------------------
                       ORCA ELECTRIC PROPERTIES CALCULATION
------------------------------------------------------------------------------

Dipole Moment Calculation                       ... on
Quadrupole Moment Calculation                   ... off
Polarizability Calculation                      ... off
GBWName                                         ... Scan_36.gbw
Electron density file                           ... Scan_36.scfp.tmp

-------------
DIPOLE MOMENT
-------------
                                X             Y             Z
Electronic contribution:      0.00184      -0.00003      -0.00000
Nuclear contribution   :      0.00000      -0.00000       0.00000
                        -----------------------------------------
Total Dipole Moment    :      0.00184      -0.00003      -0.00000
                        -----------------------------------------
Magnitude (a.u.)       :      0.00184
Magnitude (Debye)      :      0.00467


Timings for individual modules:

Sum of individual times         ...        2.776 sec (=   0.046 min)
GTO integral calculation        ...        0.341 sec (=   0.006 min)  12.3 %
SCF iterations                  ...        2.435 sec (=   0.041 min)  87.7 %
                             ****ORCA TERMINATED NORMALLY****
TOTAL RUN TIME: 0 days 0 hours 0 minutes 3 seconds 126 msec
