
                                 *****************
                                 * O   R   C   A *
                                 *****************

           --- An Ab Initio, DFT and Semiempirical electronic structure package ---

                  #######################################################
                  #                        -***-                        #
                  #  Department of molecular theory and spectroscopy    #
                  #              Directorship: Frank Neese              #
                  # Max Planck Institute for Chemical Energy Conversion #
                  #                  D-45470 Muelheim/Ruhr              #
                  #                       Germany                       #
                  #                                                     #
                  #                  All rights reserved                #
                  #                        -***-                        #
                  #######################################################


                         Program Version 4.0.0.2 - RELEASE -


 With contributions from (in alphabetic order):
   Daniel Aravena         : Magnetic Properties
   Michael Atanasov       : Ab Initio Ligand Field Theory
   Ute Becker             : Parallelization
   Martin Brehm           : Molecular dynamics
   Dmytro Bykov           : SCF Hessian
   Vijay G. Chilkuri      : MRCI spin determinant printing
   Dipayan Datta          : RHF DLPNO-CCSD density
   Achintya Kumar Dutta   : EOM-CC, STEOM-CC
   Dmitry Ganyushin       : Spin-Orbit,Spin-Spin,Magnetic field MRCI
   Yang Guo               : DLPNO-NEVPT2, CIM, IAO-localization
   Andreas Hansen         : Spin unrestricted coupled pair/coupled cluster methods
   Lee Huntington         : MR-EOM, pCC
   Robert Izsak           : Overlap fitted RIJCOSX, COSX-SCS-MP3, EOM
   Christian Kollmar      : KDIIS, OOCD, Brueckner-CCSD(T), CCSD density
   Simone Kossmann        : Meta GGA functionals, TD-DFT gradient, OOMP2, MP2 Hessian
   Martin Krupicka        : AUTO-CI
   Dagmar Lenk            : GEPOL surface
   Dimitrios Liakos       : Extrapolation schemes; parallel MDCI
   Dimitrios Manganas     : ROCIS; embedding schemes
   Dimitrios Pantazis     : SARC Basis sets
   Taras Petrenko         : DFT Hessian,TD-DFT gradient, ASA, ECA, R-Raman, ABS, FL, XAS/XES, NRVS
   Peter Pinski           : DLPNO-MP2
   Christoph Reimann      : Effective Core Potentials
   Marius Retegan         : Local ZFS, SOC
   Christoph Riplinger    : Optimizer, TS searches, QM/MM, DLPNO-CCSD(T), (RO)-DLPNO pert. Triples
   Tobias Risthaus        : Range-separated hybrids, TD-DFT gradient, RPA, STAB
   Michael Roemelt        : Restricted open shell CIS
   Masaaki Saitow         : Open-shell DLPNO
   Barbara Sandhoefer     : DKH picture change effects
   Kantharuban Sivalingam : CASSCF convergence, NEVPT2, FIC-MRCI
   Georgi Stoychev        : AutoAux
   Boris Wezisla          : Elementary symmetry handling
   Frank Wennmohs         : Technical directorship


 We gratefully acknowledge several colleagues who have allowed us to
 interface, adapt or use parts of their codes:
   Stefan Grimme, W. Hujo, H. Kruse,             : VdW corrections, initial TS optimization,
                  C. Bannwarth                     DFT functionals, gCP, sTDA/sTD-DF
   Ed Valeev                                     : LibInt (2-el integral package), F12 methods
   Garnet Chan, S. Sharma, J. Yang, R. Olivares  : DMRG
   Ulf Ekstrom                                   : XCFun DFT Library
   Mihaly Kallay                                 : mrcc  (arbitrary order and MRCC methods)
   Jiri Pittner, Ondrej Demel                    : Mk-CCSD
   Frank Weinhold                                : gennbo (NPA and NBO analysis)
   Christopher J. Cramer and Donald G. Truhlar   : smd solvation model


 Your calculation uses the libint2 library for the computation of 2-el integrals
 For citations please refer to: http://libint.valeyev.net

 This ORCA versions uses:
   CBLAS   interface :  Fast vector & matrix operations
   LAPACKE interface :  Fast linear algebra routines
   SCALAPACK package :  Parallel linear algebra routines


Your calculation utilizes the atom-pairwise dispersion correction
with the zero-damping scheme (D30)
Cite in your paper:
S.Grimme, J.Antony, S.Ehrlich and H.Krieg, J.Chem.Phys., 132, (2010), 154104 
   

XCFun DFT library Copyright 2009-2010 Ulf Ekstrom and contributors.
See http://admol.org/xcfun for more information. This is free soft-
ware; see the source code for copying conditions. There is ABSOLUTELY
NO WARRANTY; not even for MERCHANTABILITY or FITNESS FOR A PARTICULAR
PURPOSE. For details see the documentation. Scientific users of this 
library should cite U. Ekstrom, L. Visscher, R. Bast, A. J. Thorvald-
sen and K. Ruud; J.Chem.Theor.Comp. 2010, DOI: 10.1021/ct100117s
XCFun Version 0.99 
Your calculation utilizes the basis: 6-31G(d)
   H-He, Li-Ne : W. J. Hehre, R. Ditchfield and J.A. Pople, J. Chem. Phys. 56, 2257 (1972).
                 Note: He and Ne are unpublished basis sets taken from the Gaussian program.
                 Note: Li and B from J. D. Dill and J. A. Pople, J. Chem. Phys. 62, 2921 (1975).
   Na - Ar     : M. M. Francl, W. J. Pietro, W. J. Hehre, J. S. Binkley, M. S. Gordon, 
                 D. J. DeFrees and J. A. Pople, J. Chem. Phys. 77, 3654 (1982).
   K - Zn      : V. A. Rassolov, J. A. Pople, M. A. Ratner, and T. L. Windus, J. Chem. Phys. 109, 1223 (1998).

================================================================================
                                        WARNINGS
                       Please study these warnings very carefully!
================================================================================

Warning: TCutStore was < 0. Adjusted to Thresh (uncritical)

INFO   : the flag for use of LIBINT has been found!

================================================================================
                                       INPUT FILE
================================================================================
NAME = initial37.inp
|  1> ! WB97X-D3 6-31G(d) VerySlowConv
|  2> ! KDIIS NOSOSCF
|  3> %base "Scan_37"
|  4> 
|  5> %scf
|  6> maxiter 999
|  7> end
|  8> 
|  9> * xyz 0 1
| 10> N         -4.430639598531    2.093693294200   -0.000000000000
| 11> N         -0.249300401470    2.035746705800   -0.000000000000
| 12> **                         ****END OF INPUT****
================================================================================

                       ****************************
                       * Single Point Calculation *
                       ****************************

---------------------------------
CARTESIAN COORDINATES (ANGSTROEM)
---------------------------------
  N     -4.430640    2.093693   -0.000000
  N     -0.249300    2.035747   -0.000000

----------------------------
CARTESIAN COORDINATES (A.U.)
----------------------------
  NO LB      ZA    FRAG     MASS         X           Y           Z
   0 N     7.0000    0    14.007   -8.372695    3.956507   -0.000000
   1 N     7.0000    0    14.007   -0.471109    3.847004   -0.000000

--------------------------------
INTERNAL COORDINATES (ANGSTROEM)
--------------------------------
 N      0   0   0     0.000000000000     0.00000000     0.00000000
 N      1   0   0     4.181740700711     0.00000000     0.00000000

---------------------------
INTERNAL COORDINATES (A.U.)
---------------------------
 N      0   0   0     0.000000000000     0.00000000     0.00000000
 N      1   0   0     7.902344687416     0.00000000     0.00000000

---------------------
BASIS SET INFORMATION
---------------------
There are 1 groups of distinct atoms

 Group   1 Type N   : 10s4p1d contracted to 3s2p1d pattern {631/31/1}

Atom   0N    basis set group =>   1
Atom   1N    basis set group =>   1
------------------------------------------------------------------------------
                           ORCA GTO INTEGRAL CALCULATION
------------------------------------------------------------------------------

                         BASIS SET STATISTICS AND STARTUP INFO

 # of primitive gaussian shells          ...   30
 # of primitive gaussian functions       ...   54
 # of contracted shells                  ...   12
 # of contracted basis functions         ...   28
 Highest angular momentum                ...    2
 Maximum contraction depth               ...    6
 Integral package used                   ... LIBINT
 Integral threshhold            Thresh   ...  1.000e-10
 Primitive cut-off              TCut     ...  1.000e-11


------------------------------ INTEGRAL EVALUATION ----------------------------


 * One electron integrals 
 Pre-screening matrix                    ... done
 Shell pair data                         ... done (   0.000 sec)

-------------------------------------------------------------------------------
                                 ORCA SCF
-------------------------------------------------------------------------------

------------
SCF SETTINGS
------------
Hamiltonian:
 Density Functional     Method          .... DFT(GTOs)
 Exchange Functional    Exchange        .... WB97X-D3
 Correlation Functional Correlation     .... WB97X-D3
 Gradients option       PostSCFGGA      .... off
 Hybrid DFT is turned on
   Fraction HF Exchange ScalHFX         ....  0.195728
   Scaling of DF-GGA-X  ScalDFX         ....  0.000000
   Scaling of DF-GGA-C  ScalDFC         ....  1.000000
   Scaling of DF-LDA-C  ScalLDAC        ....  1.000000
   Perturbative correction              ....  0.000000
 Long-range corrected/Screened/Range-Separated Hybrid DFT is turned on
   Amount of maximum screened exact exchange              ....  0.804272
   Range separation parameter mu (erf(mu*r12)/r12)        ....  0.250000


General Settings:
 Integral files         IntName         .... Scan_37
 Hartree-Fock type      HFTyp           .... RHF
 Total Charge           Charge          ....    0
 Multiplicity           Mult            ....    1
 Number of Electrons    NEL             ....   14
 Basis Dimension        Dim             ....   28
 Nuclear Repulsion      ENuc            ....      6.2006913060 Eh

Convergence Acceleration:
 DIIS                   CNVDIIS         .... on
   Start iteration      DIISMaxIt       ....     0
   Startup error        DIISStart       ....  0.200000
   # of expansion vecs  DIISMaxEq       ....     5
   Bias factor          DIISBfac        ....   1.050
   Max. coefficient     DIISMaxC        ....  10.000
 Newton-Raphson         CNVNR           .... off
 SOSCF                  CNVSOSCF        .... off
 Level Shifting         CNVShift        .... off
 Zerner damping         CNVZerner       .... off
 Static damping         CNVDamp         .... off
 Fernandez-Rico         CNVRico         .... off

SCF Procedure:
 Maximum # iterations   MaxIter         ....   999
 SCF integral mode      SCFMode         .... Direct
   Integral package                     .... LIBINT
 Reset frequeny         DirectResetFreq ....    20
 Integral Threshold     Thresh          ....  1.000e-10 Eh
 Primitive CutOff       TCut            ....  1.000e-11 Eh

Convergence Tolerance:
 Convergence Check Mode ConvCheckMode   .... All-Criteria
 Convergence forced     ConvForced      .... 0
 Energy Change          TolE            ....  1.000e-06 Eh
 Max Density Change     TolMaxP         ....  1.000e-05
 RMS Density Change     TolRMSP         ....  1.000e-06
 DIIS Error             TolErr          ....  1.000e-06


Diagonalization of the overlap matrix:
Smallest eigenvalue                        ... 2.221e-01
Time for diagonalization                   ...    0.001 sec
Threshold for overlap eigenvalues          ... 1.000e-08
Number of eigenvalues below threshold      ... 0
Time for construction of square roots      ...    0.004 sec
Total time needed                          ...    0.005 sec

-------------------
DFT GRID GENERATION
-------------------

General Integration Accuracy     IntAcc      ...  4.340
Radial Grid Type                 RadialGrid  ... Gauss-Chebyshev
Angular Grid (max. acc.)         AngularGrid ... Lebedev-110
Angular grid pruning method      GridPruning ... 3 (G Style)
Weight generation scheme         WeightScheme... Becke
Basis function cutoff            BFCut       ...    1.0000e-10
Integration weight cutoff        WCut        ...    1.0000e-14
Grids for H and He will be reduced by one unit

# of grid points (after initial pruning)     ...   3404 (   0.0 sec)
# of grid points (after weights+screening)   ...   3396 (   0.0 sec)
nearest neighbour list constructed           ...    0.0 sec
Grid point re-assignment to atoms done       ...    0.0 sec
Grid point division into batches done        ...    0.0 sec
Reduced shell lists constructed in    0.0 sec

Total number of grid points                  ...     3396
Total number of batches                      ...       54
Average number of points per batch           ...       62
Average number of grid points per atom       ...     1698
Average number of shells per batch           ...     8.09 (67.42%)
Average number of basis functions per batch  ...    19.04 (67.99%)
Average number of large shells per batch     ...     6.71 (82.92%)
Average number of large basis fcns per batch ...    16.38 (86.06%)
Maximum spatial batch extension              ...  16.94, 22.48, 25.65 au
Average spatial batch extension              ...   6.13,  6.24,  6.26 au

Time for grid setup =    0.107 sec

------------------------------
INITIAL GUESS: MODEL POTENTIAL
------------------------------
Loading Hartree-Fock densities                     ... done
Calculating cut-offs                               ... done
Setting up the integral package                    ... done
Initializing the effective Hamiltonian             ... done
Starting the Coulomb interaction                   ... done (   0.0 sec)
Reading the grid                                   ... done
Mapping shells                                     ... done
Starting the XC term evaluation                    ... done (   0.0 sec)
  promolecular density results
     # of electrons  =     14.000007636
     EX              =    -12.714453860
     EC              =     -0.397923680
     EX+EC           =    -13.112377540
Transforming the Hamiltonian                       ... done (   0.0 sec)
Diagonalizing the Hamiltonian                      ... done (   0.0 sec)
Back transforming the eigenvectors                 ... done (   0.0 sec)
Now organizing SCF variables                       ... done
                      ------------------
                      INITIAL GUESS DONE (   0.4 sec)
                      ------------------
--------------
SCF ITERATIONS
--------------
ITER       Energy         Delta-E        Max-DP      RMS-DP      [F,P]   Gradient Norm
               ***  Starting incremental Fock matrix formation  ***
                             ****Resetting KDIIS****
                             ****Turning on KDIIS(Cayley)****
  0   -108.6317905196   0.000000000000 0.00187951  0.00020479  0.0212128   0.014151101
  1   -108.6319670549  -0.000176535268 0.00475219  0.00044820  0.0191704   0.012852028
  2   -108.6322842738  -0.000317218909 0.00763244  0.00069706  0.0152968   0.010315231
  3   -108.6326453550  -0.000361081182 0.01145315  0.00127535  0.0090542   0.006280843
  4   -108.6328301630  -0.000184807973 0.00019725  0.00001848  0.0000619   0.000067720
                          ***Energy convergence achieved***
  5   -108.6328298707   0.000000292276 0.00015021  0.00001480  0.0003801   0.000272611

            ***Energy convergence in two consecutive cycles with***
                    ***'reasonable' density convergence***
                       *** signaling convergence ***

                    *** KDIIS BlockDiag ( 0.000 sec) ***

               *****************************************************
               *                     SUCCESS                       *
               *           SCF CONVERGED AFTER   6 CYCLES          *
               *****************************************************

Setting up the final grid:

General Integration Accuracy     IntAcc      ...  4.670
Radial Grid Type                 RadialGrid  ... Gauss-Chebyshev
Angular Grid (max. acc.)         AngularGrid ... Lebedev-302
Angular grid pruning method      GridPruning ... 3 (G Style)
Weight generation scheme         WeightScheme... Becke
Basis function cutoff            BFCut       ...    1.0000e-10
Integration weight cutoff        WCut        ...    1.0000e-14
Grids for H and He will be reduced by one unit

# of grid points (after initial pruning)     ...  12424 (   0.0 sec)
# of grid points (after weights+screening)   ...  12414 (   0.0 sec)
nearest neighbour list constructed           ...    0.0 sec
Grid point re-assignment to atoms done       ...    0.0 sec
Grid point division into batches done        ...    0.1 sec
Reduced shell lists constructed in    0.2 sec

Total number of grid points                  ...    12414
Total number of batches                      ...      194
Average number of points per batch           ...       63
Average number of grid points per atom       ...     6207
Average number of shells per batch           ...     7.10 (59.19%)
Average number of basis functions per batch  ...    16.49 (58.88%)
Average number of large shells per batch     ...     5.91 (83.18%)
Average number of large basis fcns per batch ...    14.24 (86.35%)
Maximum spatial batch extension              ...  14.69, 26.85, 26.85 au
Average spatial batch extension              ...   3.84,  4.27,  4.32 au

Final grid set up in    0.2 sec
Final integration                            ... done (   0.3 sec)
Change in XC energy                          ...    -0.000192918
Integrated number of electrons               ...    14.000035439
Previous integrated no of electrons          ...    14.000131675

----------------
TOTAL SCF ENERGY
----------------

Total Energy       :         -108.63302311 Eh           -2956.05484 eV

Components:
Nuclear Repulsion  :            6.20069131 Eh             168.72939 eV
Electronic Energy  :         -114.83371442 Eh           -3124.78423 eV
One Electron Energy:         -159.68990164 Eh           -4345.38314 eV
Two Electron Energy:           44.85618722 Eh            1220.59891 eV

Virial components:
Potential Energy   :         -216.61339010 Eh           -5894.35001 eV
Kinetic Energy     :          107.98036699 Eh            2938.29517 eV
Virial Ratio       :            2.00604421


DFT components:
N(Alpha)           :        7.000017719699 electrons
N(Beta)            :        7.000017719699 electrons
N(Total)           :       14.000035439398 electrons
E(XC)              :       -9.217331541719 Eh       

---------------
SCF CONVERGENCE
---------------

  Last Energy change         ...   -3.2602e-07  Tolerance :   1.0000e-06
  Last MAX-Density change    ...    2.1280e-05  Tolerance :   1.0000e-05
  Last RMS-Density change    ...    2.1057e-06  Tolerance :   1.0000e-06
  Last DIIS Error            ...    9.8233e-06  Tolerance :   1.0000e-06

             **** THE GBW FILE WAS UPDATED (Scan_37.gbw) ****
             **** DENSITY FILE WAS UPDATED (Scan_37.scfp.tmp) ****
             **** ENERGY FILE WAS UPDATED (Scan_37.en.tmp) ****
----------------
ORBITAL ENERGIES
----------------

  NO   OCC          E(Eh)            E(eV) 
   0   2.0000     -14.599441      -397.2710 
   1   2.0000     -14.599407      -397.2701 
   2   2.0000      -0.857929       -23.3454 
   3   2.0000      -0.852872       -23.2078 
   4   2.0000      -0.321262        -8.7420 
   5   2.0000      -0.316104        -8.6016 
   6   2.0000      -0.316104        -8.6016 
   7   0.0000      -0.191698        -5.2164 
   8   0.0000      -0.191698        -5.2164 
   9   0.0000      -0.186218        -5.0672 
  10   0.0000       0.732139        19.9225 
  11   0.0000       0.755116        20.5478 
  12   0.0000       0.755118        20.5478 
  13   0.0000       0.760040        20.6817 
  14   0.0000       0.760042        20.6818 
  15   0.0000       0.780681        21.2434 
  16   0.0000       0.833559        22.6823 
  17   0.0000       0.846543        23.0356 
  18   0.0000       1.779314        48.4176 
  19   0.0000       1.779819        48.4313 
  20   0.0000       1.779827        48.4316 
  21   0.0000       1.779972        48.4355 
  22   0.0000       1.779977        48.4356 
  23   0.0000       1.781135        48.4671 
  24   0.0000       1.781175        48.4682 
  25   0.0000       1.781181        48.4684 
  26   0.0000       1.781505        48.4772 
  27   0.0000       1.781510        48.4773 

                    ********************************
                    * MULLIKEN POPULATION ANALYSIS *
                    ********************************

-----------------------
MULLIKEN ATOMIC CHARGES
-----------------------
   0 N :    0.000008
   1 N :   -0.000008
Sum of atomic charges:    0.0000000

--------------------------------
MULLIKEN REDUCED ORBITAL CHARGES
--------------------------------
  0 N s       :     3.999870  s :     3.999870
      pz      :     0.999990  p :     3.000092
      px      :     1.000117
      py      :     0.999986
      dz2     :     0.000004  d :     0.000029
      dxz     :     0.000007
      dyz     :     0.000000
      dx2y2   :     0.000011
      dxy     :     0.000007
  1 N s       :     3.999870  s :     3.999870
      pz      :     0.999995  p :     3.000109
      px      :     1.000122
      py      :     0.999991
      dz2     :     0.000004  d :     0.000029
      dxz     :     0.000007
      dyz     :     0.000000
      dx2y2   :     0.000011
      dxy     :     0.000007


                     *******************************
                     * LOEWDIN POPULATION ANALYSIS *
                     *******************************

----------------------
LOEWDIN ATOMIC CHARGES
----------------------
   0 N :    0.000008
   1 N :   -0.000008

-------------------------------
LOEWDIN REDUCED ORBITAL CHARGES
-------------------------------
  0 N s       :     3.999858  s :     3.999858
      pz      :     0.999990  p :     3.000105
      px      :     1.000129
      py      :     0.999986
      dz2     :     0.000004  d :     0.000029
      dxz     :     0.000007
      dyz     :     0.000000
      dx2y2   :     0.000011
      dxy     :     0.000007
  1 N s       :     3.999858  s :     3.999858
      pz      :     0.999995  p :     3.000122
      px      :     1.000135
      py      :     0.999991
      dz2     :     0.000004  d :     0.000029
      dxz     :     0.000007
      dyz     :     0.000000
      dx2y2   :     0.000011
      dxy     :     0.000007


                      *****************************
                      * MAYER POPULATION ANALYSIS *
                      *****************************

  NA   - Mulliken gross atomic population
  ZA   - Total nuclear charge
  QA   - Mulliken gross atomic charge
  VA   - Mayer's total valence
  BVA  - Mayer's bonded valence
  FA   - Mayer's free valence

  ATOM       NA         ZA         QA         VA         BVA        FA
  0 N      7.0000     7.0000     0.0000     3.0000     3.0000     0.0000
  1 N      7.0000     7.0000    -0.0000     3.0000     3.0000    -0.0000

  Mayer bond orders larger than 0.1
B(  0-N ,  1-N ) :   3.0000 

-------
TIMINGS
-------

Total SCF time: 0 days 0 hours 0 min 7 sec 

Total time                  ....       7.044 sec
Sum of individual times     ....       6.652 sec  ( 94.4%)

Fock matrix formation       ....       5.767 sec  ( 81.9%)
  XC integration            ....       1.466 sec  ( 25.4% of F)
    Basis function eval.    ....       0.222 sec  ( 15.2% of XC)
    Density eval.           ....       0.070 sec  (  4.7% of XC)
    XC-Functional eval.     ....       0.284 sec  ( 19.4% of XC)
    XC-Potential eval.      ....       0.010 sec  (  0.7% of XC)
Diagonalization             ....       0.102 sec  (  1.4%)
Density matrix formation    ....       0.000 sec  (  0.0%)
Population analysis         ....       0.164 sec  (  2.3%)
Initial guess               ....       0.341 sec  (  4.8%)
Orbital Transformation      ....       0.000 sec  (  0.0%)
Orbital Orthonormalization  ....       0.000 sec  (  0.0%)
DIIS solution               ....       0.000 sec  (  0.0%)
Grid generation             ....       0.277 sec  (  3.9%)


-------------------------------------------------------------------------------
                          DFT DISPERSION CORRECTION                            
                                                                               
                              DFTD3 V3.1  Rev 1                                
                              USING zero damping                               
-------------------------------------------------------------------------------
The omegaB97X-D3 functional is recognized. Fit by Chai et al.
Active option DFTDOPT                   ...         3   

molecular C6(AA) [au] = 100.827477 


            DFT-D V3
 parameters
 s6 scaling factor         :     1.0000 
 rs6 scaling factor        :     1.2810 
 s8 scaling factor         :     1.0000 
 rs8 scaling factor        :     1.0940 
 Damping factor alpha6     :    14.0000 
 Damping factor alpha8     :    16.0000 
 ad hoc parameters k1-k3   :    16.0000     1.3333    -4.0000 

 Edisp/kcal,au: -0.073371979249  -0.000116925679 
 E6   /kcal   :  -0.050752741 
 E8   /kcal   :  -0.022619238 
 % E8         :  30.828169825 

-------------------------   ----------------
Dispersion correction           -0.000116926
-------------------------   ----------------


-------------------------   --------------------
FINAL SINGLE POINT ENERGY      -108.633140040326
-------------------------   --------------------


                            ***************************************
                            *     ORCA property calculations      *
                            ***************************************

                                    ---------------------
                                    Active property flags
                                    ---------------------
   (+) Dipole Moment


------------------------------------------------------------------------------
                       ORCA ELECTRIC PROPERTIES CALCULATION
------------------------------------------------------------------------------

Dipole Moment Calculation                       ... on
Quadrupole Moment Calculation                   ... off
Polarizability Calculation                      ... off
GBWName                                         ... Scan_37.gbw
Electron density file                           ... Scan_37.scfp.tmp

-------------
DIPOLE MOMENT
-------------
                                X             Y             Z
Electronic contribution:     -0.00007       0.00000       0.00000
Nuclear contribution   :      0.00000      -0.00000       0.00000
                        -----------------------------------------
Total Dipole Moment    :     -0.00007       0.00000       0.00000
                        -----------------------------------------
Magnitude (a.u.)       :      0.00007
Magnitude (Debye)      :      0.00017


Timings for individual modules:

Sum of individual times         ...        8.281 sec (=   0.138 min)
GTO integral calculation        ...        1.100 sec (=   0.018 min)  13.3 %
SCF iterations                  ...        7.181 sec (=   0.120 min)  86.7 %
                             ****ORCA TERMINATED NORMALLY****
TOTAL RUN TIME: 0 days 0 hours 0 minutes 9 seconds 541 msec
