
                                 *****************
                                 * O   R   C   A *
                                 *****************

           --- An Ab Initio, DFT and Semiempirical electronic structure package ---

                  #######################################################
                  #                        -***-                        #
                  #  Department of molecular theory and spectroscopy    #
                  #              Directorship: Frank Neese              #
                  # Max Planck Institute for Chemical Energy Conversion #
                  #                  D-45470 Muelheim/Ruhr              #
                  #                       Germany                       #
                  #                                                     #
                  #                  All rights reserved                #
                  #                        -***-                        #
                  #######################################################


                         Program Version 4.0.0.2 - RELEASE -


 With contributions from (in alphabetic order):
   Daniel Aravena         : Magnetic Properties
   Michael Atanasov       : Ab Initio Ligand Field Theory
   Ute Becker             : Parallelization
   Martin Brehm           : Molecular dynamics
   Dmytro Bykov           : SCF Hessian
   Vijay G. Chilkuri      : MRCI spin determinant printing
   Dipayan Datta          : RHF DLPNO-CCSD density
   Achintya Kumar Dutta   : EOM-CC, STEOM-CC
   Dmitry Ganyushin       : Spin-Orbit,Spin-Spin,Magnetic field MRCI
   Yang Guo               : DLPNO-NEVPT2, CIM, IAO-localization
   Andreas Hansen         : Spin unrestricted coupled pair/coupled cluster methods
   Lee Huntington         : MR-EOM, pCC
   Robert Izsak           : Overlap fitted RIJCOSX, COSX-SCS-MP3, EOM
   Christian Kollmar      : KDIIS, OOCD, Brueckner-CCSD(T), CCSD density
   Simone Kossmann        : Meta GGA functionals, TD-DFT gradient, OOMP2, MP2 Hessian
   Martin Krupicka        : AUTO-CI
   Dagmar Lenk            : GEPOL surface
   Dimitrios Liakos       : Extrapolation schemes; parallel MDCI
   Dimitrios Manganas     : ROCIS; embedding schemes
   Dimitrios Pantazis     : SARC Basis sets
   Taras Petrenko         : DFT Hessian,TD-DFT gradient, ASA, ECA, R-Raman, ABS, FL, XAS/XES, NRVS
   Peter Pinski           : DLPNO-MP2
   Christoph Reimann      : Effective Core Potentials
   Marius Retegan         : Local ZFS, SOC
   Christoph Riplinger    : Optimizer, TS searches, QM/MM, DLPNO-CCSD(T), (RO)-DLPNO pert. Triples
   Tobias Risthaus        : Range-separated hybrids, TD-DFT gradient, RPA, STAB
   Michael Roemelt        : Restricted open shell CIS
   Masaaki Saitow         : Open-shell DLPNO
   Barbara Sandhoefer     : DKH picture change effects
   Kantharuban Sivalingam : CASSCF convergence, NEVPT2, FIC-MRCI
   Georgi Stoychev        : AutoAux
   Boris Wezisla          : Elementary symmetry handling
   Frank Wennmohs         : Technical directorship


 We gratefully acknowledge several colleagues who have allowed us to
 interface, adapt or use parts of their codes:
   Stefan Grimme, W. Hujo, H. Kruse,             : VdW corrections, initial TS optimization,
                  C. Bannwarth                     DFT functionals, gCP, sTDA/sTD-DF
   Ed Valeev                                     : LibInt (2-el integral package), F12 methods
   Garnet Chan, S. Sharma, J. Yang, R. Olivares  : DMRG
   Ulf Ekstrom                                   : XCFun DFT Library
   Mihaly Kallay                                 : mrcc  (arbitrary order and MRCC methods)
   Jiri Pittner, Ondrej Demel                    : Mk-CCSD
   Frank Weinhold                                : gennbo (NPA and NBO analysis)
   Christopher J. Cramer and Donald G. Truhlar   : smd solvation model


 Your calculation uses the libint2 library for the computation of 2-el integrals
 For citations please refer to: http://libint.valeyev.net

 This ORCA versions uses:
   CBLAS   interface :  Fast vector & matrix operations
   LAPACKE interface :  Fast linear algebra routines
   SCALAPACK package :  Parallel linear algebra routines


Your calculation utilizes the atom-pairwise dispersion correction
with the zero-damping scheme (D30)
Cite in your paper:
S.Grimme, J.Antony, S.Ehrlich and H.Krieg, J.Chem.Phys., 132, (2010), 154104 
   

XCFun DFT library Copyright 2009-2010 Ulf Ekstrom and contributors.
See http://admol.org/xcfun for more information. This is free soft-
ware; see the source code for copying conditions. There is ABSOLUTELY
NO WARRANTY; not even for MERCHANTABILITY or FITNESS FOR A PARTICULAR
PURPOSE. For details see the documentation. Scientific users of this 
library should cite U. Ekstrom, L. Visscher, R. Bast, A. J. Thorvald-
sen and K. Ruud; J.Chem.Theor.Comp. 2010, DOI: 10.1021/ct100117s
XCFun Version 0.99 
Your calculation utilizes the basis: 6-31G(d)
   H-He, Li-Ne : W. J. Hehre, R. Ditchfield and J.A. Pople, J. Chem. Phys. 56, 2257 (1972).
                 Note: He and Ne are unpublished basis sets taken from the Gaussian program.
                 Note: Li and B from J. D. Dill and J. A. Pople, J. Chem. Phys. 62, 2921 (1975).
   Na - Ar     : M. M. Francl, W. J. Pietro, W. J. Hehre, J. S. Binkley, M. S. Gordon, 
                 D. J. DeFrees and J. A. Pople, J. Chem. Phys. 77, 3654 (1982).
   K - Zn      : V. A. Rassolov, J. A. Pople, M. A. Ratner, and T. L. Windus, J. Chem. Phys. 109, 1223 (1998).

================================================================================
                                        WARNINGS
                       Please study these warnings very carefully!
================================================================================

Warning: TCutStore was < 0. Adjusted to Thresh (uncritical)

INFO   : the flag for use of LIBINT has been found!

================================================================================
                                       INPUT FILE
================================================================================
NAME = initial1.inp
|  1> ! WB97X-D3 6-31G(d) VerySlowConv
|  2> ! KDIIS NOSOSCF
|  3> %base "Scan_1"
|  4> 
|  5> %scf
|  6> maxiter 999
|  7> end
|  8> 
|  9> * xyz 0 1
| 10> C         -3.462609518900    0.401354661254   -0.000000000000
| 11> N         -2.447026882960    0.431364700853    0.000000000000
| 12> H         -4.530143598140    0.369810637892   -0.000000000000
| 13> **                         ****END OF INPUT****
================================================================================

                       ****************************
                       * Single Point Calculation *
                       ****************************

---------------------------------
CARTESIAN COORDINATES (ANGSTROEM)
---------------------------------
  C     -3.462610    0.401355   -0.000000
  N     -2.447027    0.431365    0.000000
  H     -4.530144    0.369811   -0.000000

----------------------------
CARTESIAN COORDINATES (A.U.)
----------------------------
  NO LB      ZA    FRAG     MASS         X           Y           Z
   0 C     6.0000    0    12.011   -6.543384    0.758450   -0.000000
   1 N     7.0000    0    14.007   -4.624211    0.815161    0.000000
   2 H     1.0000    0     1.008   -8.560731    0.698841   -0.000000

--------------------------------
INTERNAL COORDINATES (ANGSTROEM)
--------------------------------
 C      0   0   0     0.000000000000     0.00000000     0.00000000
 N      1   0   0     1.016025931214     0.00000000     0.00000000
 H      1   2   0     1.068000016736   179.99993782     0.00000000

---------------------------
INTERNAL COORDINATES (A.U.)
---------------------------
 C      0   0   0     0.000000000000     0.00000000     0.00000000
 N      1   0   0     1.920010754957     0.00000000     0.00000000
 H      1   2   0     2.018227542655   179.99993782     0.00000000

---------------------
BASIS SET INFORMATION
---------------------
There are 3 groups of distinct atoms

 Group   1 Type C   : 10s4p1d contracted to 3s2p1d pattern {631/31/1}
 Group   2 Type N   : 10s4p1d contracted to 3s2p1d pattern {631/31/1}
 Group   3 Type H   : 4s contracted to 2s pattern {31}

Atom   0C    basis set group =>   1
Atom   1N    basis set group =>   2
Atom   2H    basis set group =>   3
------------------------------------------------------------------------------
                           ORCA GTO INTEGRAL CALCULATION
------------------------------------------------------------------------------

                         BASIS SET STATISTICS AND STARTUP INFO

 # of primitive gaussian shells          ...   34
 # of primitive gaussian functions       ...   58
 # of contracted shells                  ...   14
 # of contracted basis functions         ...   30
 Highest angular momentum                ...    2
 Maximum contraction depth               ...    6
 Integral package used                   ... LIBINT
 Integral threshhold            Thresh   ...  1.000e-10
 Primitive cut-off              TCut     ...  1.000e-11


------------------------------ INTEGRAL EVALUATION ----------------------------


 * One electron integrals 
 Pre-screening matrix                    ... done
 Shell pair data                         ... done (   0.000 sec)

-------------------------------------------------------------------------------
                                 ORCA SCF
-------------------------------------------------------------------------------

------------
SCF SETTINGS
------------
Hamiltonian:
 Density Functional     Method          .... DFT(GTOs)
 Exchange Functional    Exchange        .... WB97X-D3
 Correlation Functional Correlation     .... WB97X-D3
 Gradients option       PostSCFGGA      .... off
 Hybrid DFT is turned on
   Fraction HF Exchange ScalHFX         ....  0.195728
   Scaling of DF-GGA-X  ScalDFX         ....  0.000000
   Scaling of DF-GGA-C  ScalDFC         ....  1.000000
   Scaling of DF-LDA-C  ScalLDAC        ....  1.000000
   Perturbative correction              ....  0.000000
 Long-range corrected/Screened/Range-Separated Hybrid DFT is turned on
   Amount of maximum screened exact exchange              ....  0.804272
   Range separation parameter mu (erf(mu*r12)/r12)        ....  0.250000


General Settings:
 Integral files         IntName         .... Scan_1
 Hartree-Fock type      HFTyp           .... RHF
 Total Charge           Charge          ....    0
 Multiplicity           Mult            ....    1
 Number of Electrons    NEL             ....   14
 Basis Dimension        Dim             ....   30
 Nuclear Repulsion      ENuc            ....     26.6252275846 Eh

Convergence Acceleration:
 DIIS                   CNVDIIS         .... on
   Start iteration      DIISMaxIt       ....     0
   Startup error        DIISStart       ....  0.200000
   # of expansion vecs  DIISMaxEq       ....     5
   Bias factor          DIISBfac        ....   1.050
   Max. coefficient     DIISMaxC        ....  10.000
 Newton-Raphson         CNVNR           .... off
 SOSCF                  CNVSOSCF        .... off
 Level Shifting         CNVShift        .... off
 Zerner damping         CNVZerner       .... off
 Static damping         CNVDamp         .... off
 Fernandez-Rico         CNVRico         .... off

SCF Procedure:
 Maximum # iterations   MaxIter         ....   999
 SCF integral mode      SCFMode         .... Direct
   Integral package                     .... LIBINT
 Reset frequeny         DirectResetFreq ....    20
 Integral Threshold     Thresh          ....  1.000e-10 Eh
 Primitive CutOff       TCut            ....  1.000e-11 Eh

Convergence Tolerance:
 Convergence Check Mode ConvCheckMode   .... All-Criteria
 Convergence forced     ConvForced      .... 0
 Energy Change          TolE            ....  1.000e-06 Eh
 Max Density Change     TolMaxP         ....  1.000e-05
 RMS Density Change     TolRMSP         ....  1.000e-06
 DIIS Error             TolErr          ....  1.000e-06


Diagonalization of the overlap matrix:
Smallest eigenvalue                        ... 3.021e-03
Time for diagonalization                   ...    0.001 sec
Threshold for overlap eigenvalues          ... 1.000e-08
Number of eigenvalues below threshold      ... 0
Time for construction of square roots      ...    0.005 sec
Total time needed                          ...    0.006 sec

-------------------
DFT GRID GENERATION
-------------------

General Integration Accuracy     IntAcc      ...  4.340
Radial Grid Type                 RadialGrid  ... Gauss-Chebyshev
Angular Grid (max. acc.)         AngularGrid ... Lebedev-110
Angular grid pruning method      GridPruning ... 3 (G Style)
Weight generation scheme         WeightScheme... Becke
Basis function cutoff            BFCut       ...    1.0000e-10
Integration weight cutoff        WCut        ...    1.0000e-14
Grids for H and He will be reduced by one unit

# of grid points (after initial pruning)     ...   4152 (   0.0 sec)
# of grid points (after weights+screening)   ...   4099 (   0.0 sec)
nearest neighbour list constructed           ...    0.0 sec
Grid point re-assignment to atoms done       ...    0.0 sec
Grid point division into batches done        ...    0.0 sec
Reduced shell lists constructed in    0.0 sec

Total number of grid points                  ...     4099
Total number of batches                      ...       65
Average number of points per batch           ...       63
Average number of grid points per atom       ...     1366
Average number of shells per batch           ...    12.17 (86.90%)
Average number of basis functions per batch  ...    26.47 (88.23%)
Average number of large shells per batch     ...    11.64 (95.64%)
Average number of large basis fcns per batch ...    25.85 (97.65%)
Maximum spatial batch extension              ...  18.14, 25.60, 31.36 au
Average spatial batch extension              ...   4.25,  6.71,  6.17 au

Time for grid setup =    0.027 sec

------------------------------
INITIAL GUESS: MODEL POTENTIAL
------------------------------
Loading Hartree-Fock densities                     ... done
Calculating cut-offs                               ... done
Setting up the integral package                    ... done
Initializing the effective Hamiltonian             ... done
Starting the Coulomb interaction                   ... done (   0.0 sec)
Reading the grid                                   ... done
Mapping shells                                     ... done
Starting the XC term evaluation                    ... done (   0.0 sec)
  promolecular density results
     # of electrons  =     13.999945338
     EX              =    -11.915926874
     EC              =     -0.438377199
     EX+EC           =    -12.354304073
Transforming the Hamiltonian                       ... done (   0.0 sec)
Diagonalizing the Hamiltonian                      ... done (   0.0 sec)
Back transforming the eigenvectors                 ... done (   0.0 sec)
Now organizing SCF variables                       ... done
                      ------------------
                      INITIAL GUESS DONE (   0.1 sec)
                      ------------------
--------------
SCF ITERATIONS
--------------
ITER       Energy         Delta-E        Max-DP      RMS-DP      [F,P]   Gradient Norm
               ***  Starting incremental Fock matrix formation  ***
                             ****Resetting KDIIS****
                             ****Turning on KDIIS(Cayley)****
  0    -93.2175838657   0.000000000000 0.03686372  0.00323340  0.1119847   0.126292690
  1    -93.2558818444  -0.038297978682 0.02446848  0.00266444  0.0867035   0.100240873
  2    -93.2801314359  -0.024249591469 0.04246054  0.00404831  0.0740483   0.081819646
  3    -93.3078414719  -0.027710035974 0.07310728  0.00663202  0.0487258   0.052003497
  4    -93.3265216835  -0.018680211601 0.01143351  0.00095619  0.0039958   0.003556578
  5    -93.3266235798  -0.000101896318 0.00384025  0.00033593  0.0008588   0.000622986
  6    -93.3266257108  -0.000002131033 0.00243472  0.00018795  0.0006070   0.000638603
  7    -93.3266289954  -0.000003284559 0.00041539  0.00002598  0.0000726   0.000074202
                          ***Energy convergence achieved***
  8    -93.3266290381  -0.000000042784 0.00003370  0.00000193  0.0000013   0.000001653
                           ***RMSP convergence achieved***
                           ***MAXP convergence achieved***
                    *** KDIIS BlockDiag ( 0.000 sec) ***

               *****************************************************
               *                     SUCCESS                       *
               *           SCF CONVERGED AFTER   9 CYCLES          *
               *****************************************************

Setting up the final grid:

General Integration Accuracy     IntAcc      ...  4.670
Radial Grid Type                 RadialGrid  ... Gauss-Chebyshev
Angular Grid (max. acc.)         AngularGrid ... Lebedev-302
Angular grid pruning method      GridPruning ... 3 (G Style)
Weight generation scheme         WeightScheme... Becke
Basis function cutoff            BFCut       ...    1.0000e-10
Integration weight cutoff        WCut        ...    1.0000e-14
Grids for H and He will be reduced by one unit

# of grid points (after initial pruning)     ...  15818 (   0.0 sec)
# of grid points (after weights+screening)   ...  15653 (   0.0 sec)
nearest neighbour list constructed           ...    0.0 sec
Grid point re-assignment to atoms done       ...    0.0 sec
Grid point division into batches done        ...    0.1 sec
Reduced shell lists constructed in    0.1 sec

Total number of grid points                  ...    15653
Total number of batches                      ...      246
Average number of points per batch           ...       63
Average number of grid points per atom       ...     5218
Average number of shells per batch           ...    11.24 (80.28%)
Average number of basis functions per batch  ...    24.62 (82.08%)
Average number of large shells per batch     ...    10.41 (92.65%)
Average number of large basis fcns per batch ...    23.00 (93.42%)
Maximum spatial batch extension              ...  20.07, 18.05, 25.05 au
Average spatial batch extension              ...   3.16,  4.06,  4.17 au

Final grid set up in    0.1 sec
Final integration                            ... done (   0.1 sec)
Change in XC energy                          ...     0.000088899
Integrated number of electrons               ...    13.999993327
Previous integrated no of electrons          ...    13.998825703

----------------
TOTAL SCF ENERGY
----------------

Total Energy       :          -93.32654014 Eh           -2539.54427 eV

Components:
Nuclear Repulsion  :           26.62522758 Eh             724.50928 eV
Electronic Energy  :         -119.95176772 Eh           -3264.05354 eV
One Electron Energy:         -178.04433547 Eh           -4844.83267 eV
Two Electron Energy:           58.09256775 Eh            1580.77913 eV

Virial components:
Potential Energy   :         -187.03238472 Eh           -5089.40993 eV
Kinetic Energy     :           93.70584458 Eh            2549.86566 eV
Virial Ratio       :            1.99595218


DFT components:
N(Alpha)           :        6.999996663560 electrons
N(Beta)            :        6.999996663560 electrons
N(Total)           :       13.999993327121 electrons
E(XC)              :       -8.851299843398 Eh       

---------------
SCF CONVERGENCE
---------------

  Last Energy change         ...    2.8777e-11  Tolerance :   1.0000e-06
  Last MAX-Density change    ...    6.1199e-07  Tolerance :   1.0000e-05
  Last RMS-Density change    ...    5.8782e-08  Tolerance :   1.0000e-06
  Last DIIS Error            ...    1.4503e-07  Tolerance :   1.0000e-06

             **** THE GBW FILE WAS UPDATED (Scan_1.gbw) ****
             **** DENSITY FILE WAS UPDATED (Scan_1.scfp.tmp) ****
             **** ENERGY FILE WAS UPDATED (Scan_1.en.tmp) ****
----------------
ORBITAL ENERGIES
----------------

  NO   OCC          E(Eh)            E(eV) 
   0   2.0000     -14.420785      -392.4095 
   1   2.0000     -10.302877      -280.3555 
   2   2.0000      -1.079439       -29.3730 
   3   2.0000      -0.697864       -18.9898 
   4   2.0000      -0.491597       -13.3770 
   5   2.0000      -0.491593       -13.3769 
   6   2.0000      -0.464637       -12.6434 
   7   0.0000       0.170447         4.6381 
   8   0.0000       0.170457         4.6384 
   9   0.0000       0.192567         5.2400 
  10   0.0000       0.364202         9.9104 
  11   0.0000       0.611235        16.6326 
  12   0.0000       0.611244        16.6328 
  13   0.0000       0.732700        19.9378 
  14   0.0000       0.837716        22.7954 
  15   0.0000       0.903689        24.5906 
  16   0.0000       0.903695        24.5908 
  17   0.0000       0.968614        26.3573 
  18   0.0000       1.451205        39.4893 
  19   0.0000       1.563212        42.5372 
  20   0.0000       1.563433        42.5432 
  21   0.0000       1.649237        44.8780 
  22   0.0000       1.759357        47.8745 
  23   0.0000       1.759377        47.8751 
  24   0.0000       2.140281        58.2400 
  25   0.0000       2.140357        58.2421 
  26   0.0000       2.812805        76.5403 
  27   0.0000       2.812831        76.5410 
  28   0.0000       2.924664        79.5842 
  29   0.0000       3.618935        98.4762 

                    ********************************
                    * MULLIKEN POPULATION ANALYSIS *
                    ********************************

-----------------------
MULLIKEN ATOMIC CHARGES
-----------------------
   0 C :   -0.053036
   1 N :   -0.213962
   2 H :    0.266998
Sum of atomic charges:   -0.0000000

--------------------------------
MULLIKEN REDUCED ORBITAL CHARGES
--------------------------------
  0 C s       :     3.097588  s :     3.097588
      pz      :     0.937908  p :     2.913452
      px      :     1.037517
      py      :     0.938028
      dz2     :     0.003772  d :     0.041996
      dxz     :     0.013447
      dyz     :     0.000012
      dx2y2   :     0.011321
      dxy     :     0.013445
  1 N s       :     3.637913  s :     3.637913
      pz      :     1.029160  p :     3.524356
      px      :     1.465696
      py      :     1.029500
      dz2     :     0.003187  d :     0.051693
      dxz     :     0.019456
      dyz     :     0.000017
      dx2y2   :     0.009595
      dxy     :     0.019438
  2 H s       :     0.733002  s :     0.733002


                     *******************************
                     * LOEWDIN POPULATION ANALYSIS *
                     *******************************

----------------------
LOEWDIN ATOMIC CHARGES
----------------------
   0 C :   -0.146028
   1 N :   -0.029327
   2 H :    0.175355

-------------------------------
LOEWDIN REDUCED ORBITAL CHARGES
-------------------------------
  0 C s       :     2.977495  s :     2.977495
      pz      :     0.923320  p :     3.067356
      px      :     1.220423
      py      :     0.923613
      dz2     :     0.011057  d :     0.101177
      dxz     :     0.028454
      dyz     :     0.000025
      dx2y2   :     0.033152
      dxy     :     0.028489
  1 N s       :     3.335803  s :     3.335803
      pz      :     1.018301  p :     3.594967
      px      :     1.557924
      py      :     1.018742
      dz2     :     0.009689  d :     0.098557
      dxz     :     0.029874
      dyz     :     0.000026
      dx2y2   :     0.029071
      dxy     :     0.029897
  2 H s       :     0.824645  s :     0.824645


                      *****************************
                      * MAYER POPULATION ANALYSIS *
                      *****************************

  NA   - Mulliken gross atomic population
  ZA   - Total nuclear charge
  QA   - Mulliken gross atomic charge
  VA   - Mayer's total valence
  BVA  - Mayer's bonded valence
  FA   - Mayer's free valence

  ATOM       NA         ZA         QA         VA         BVA        FA
  0 C      6.0530     6.0000    -0.0530     4.0597     4.0597    -0.0000
  1 N      7.2140     7.0000    -0.2140     3.1927     3.1927    -0.0000
  2 H      0.7330     1.0000     0.2670     0.9008     0.9008    -0.0000

  Mayer bond orders larger than 0.1
B(  0-C ,  1-N ) :   3.1758 B(  0-C ,  2-H ) :   0.8838 

-------
TIMINGS
-------

Total SCF time: 0 days 0 hours 0 min 3 sec 

Total time                  ....       3.565 sec
Sum of individual times     ....       3.430 sec  ( 96.2%)

Fock matrix formation       ....       3.103 sec  ( 87.0%)
  XC integration            ....       0.632 sec  ( 20.4% of F)
    Basis function eval.    ....       0.190 sec  ( 30.0% of XC)
    Density eval.           ....       0.030 sec  (  4.8% of XC)
    XC-Functional eval.     ....       0.169 sec  ( 26.7% of XC)
    XC-Potential eval.      ....       0.027 sec  (  4.2% of XC)
Diagonalization             ....       0.027 sec  (  0.8%)
Density matrix formation    ....       0.000 sec  (  0.0%)
Population analysis         ....       0.013 sec  (  0.4%)
Initial guess               ....       0.123 sec  (  3.4%)
Orbital Transformation      ....       0.000 sec  (  0.0%)
Orbital Orthonormalization  ....       0.000 sec  (  0.0%)
DIIS solution               ....       0.000 sec  (  0.0%)
Grid generation             ....       0.163 sec  (  4.6%)


-------------------------------------------------------------------------------
                          DFT DISPERSION CORRECTION                            
                                                                               
                              DFTD3 V3.1  Rev 1                                
                              USING zero damping                               
-------------------------------------------------------------------------------
The omegaB97X-D3 functional is recognized. Fit by Chai et al.
Active option DFTDOPT                   ...         3   

molecular C6(AA) [au] = 141.156731 


            DFT-D V3
 parameters
 s6 scaling factor         :     1.0000 
 rs6 scaling factor        :     1.2810 
 s8 scaling factor         :     1.0000 
 rs8 scaling factor        :     1.0940 
 Damping factor alpha6     :    14.0000 
 Damping factor alpha8     :    16.0000 
 ad hoc parameters k1-k3   :    16.0000     1.3333    -4.0000 

 Edisp/kcal,au: -0.008756151256  -0.000013953814 
 E6   /kcal   :  -0.001217820 
 E8   /kcal   :  -0.007538332 
 % E8         :  86.091839165 

-------------------------   ----------------
Dispersion correction           -0.000013954
-------------------------   ----------------


-------------------------   --------------------
FINAL SINGLE POINT ENERGY       -93.326554092676
-------------------------   --------------------


                            ***************************************
                            *     ORCA property calculations      *
                            ***************************************

                                    ---------------------
                                    Active property flags
                                    ---------------------
   (+) Dipole Moment


------------------------------------------------------------------------------
                       ORCA ELECTRIC PROPERTIES CALCULATION
------------------------------------------------------------------------------

Dipole Moment Calculation                       ... on
Quadrupole Moment Calculation                   ... off
Polarizability Calculation                      ... off
GBWName                                         ... Scan_1.gbw
Electron density file                           ... Scan_1.scfp.tmp

-------------
DIPOLE MOMENT
-------------
                                X             Y             Z
Electronic contribution:      0.29929       0.00878      -0.00000
Nuclear contribution   :     -1.45508      -0.04300       0.00000
                        -----------------------------------------
Total Dipole Moment    :     -1.15580      -0.03421      -0.00000
                        -----------------------------------------
Magnitude (a.u.)       :      1.15630
Magnitude (Debye)      :      2.93909


Timings for individual modules:

Sum of individual times         ...        3.915 sec (=   0.065 min)
GTO integral calculation        ...        0.325 sec (=   0.005 min)   8.3 %
SCF iterations                  ...        3.590 sec (=   0.060 min)  91.7 %
                             ****ORCA TERMINATED NORMALLY****
TOTAL RUN TIME: 0 days 0 hours 0 minutes 4 seconds 265 msec
