
                                 *****************
                                 * O   R   C   A *
                                 *****************

           --- An Ab Initio, DFT and Semiempirical electronic structure package ---

                  #######################################################
                  #                        -***-                        #
                  #  Department of molecular theory and spectroscopy    #
                  #              Directorship: Frank Neese              #
                  # Max Planck Institute for Chemical Energy Conversion #
                  #                  D-45470 Muelheim/Ruhr              #
                  #                       Germany                       #
                  #                                                     #
                  #                  All rights reserved                #
                  #                        -***-                        #
                  #######################################################


                         Program Version 4.0.0.2 - RELEASE -


 With contributions from (in alphabetic order):
   Daniel Aravena         : Magnetic Properties
   Michael Atanasov       : Ab Initio Ligand Field Theory
   Ute Becker             : Parallelization
   Martin Brehm           : Molecular dynamics
   Dmytro Bykov           : SCF Hessian
   Vijay G. Chilkuri      : MRCI spin determinant printing
   Dipayan Datta          : RHF DLPNO-CCSD density
   Achintya Kumar Dutta   : EOM-CC, STEOM-CC
   Dmitry Ganyushin       : Spin-Orbit,Spin-Spin,Magnetic field MRCI
   Yang Guo               : DLPNO-NEVPT2, CIM, IAO-localization
   Andreas Hansen         : Spin unrestricted coupled pair/coupled cluster methods
   Lee Huntington         : MR-EOM, pCC
   Robert Izsak           : Overlap fitted RIJCOSX, COSX-SCS-MP3, EOM
   Christian Kollmar      : KDIIS, OOCD, Brueckner-CCSD(T), CCSD density
   Simone Kossmann        : Meta GGA functionals, TD-DFT gradient, OOMP2, MP2 Hessian
   Martin Krupicka        : AUTO-CI
   Dagmar Lenk            : GEPOL surface
   Dimitrios Liakos       : Extrapolation schemes; parallel MDCI
   Dimitrios Manganas     : ROCIS; embedding schemes
   Dimitrios Pantazis     : SARC Basis sets
   Taras Petrenko         : DFT Hessian,TD-DFT gradient, ASA, ECA, R-Raman, ABS, FL, XAS/XES, NRVS
   Peter Pinski           : DLPNO-MP2
   Christoph Reimann      : Effective Core Potentials
   Marius Retegan         : Local ZFS, SOC
   Christoph Riplinger    : Optimizer, TS searches, QM/MM, DLPNO-CCSD(T), (RO)-DLPNO pert. Triples
   Tobias Risthaus        : Range-separated hybrids, TD-DFT gradient, RPA, STAB
   Michael Roemelt        : Restricted open shell CIS
   Masaaki Saitow         : Open-shell DLPNO
   Barbara Sandhoefer     : DKH picture change effects
   Kantharuban Sivalingam : CASSCF convergence, NEVPT2, FIC-MRCI
   Georgi Stoychev        : AutoAux
   Boris Wezisla          : Elementary symmetry handling
   Frank Wennmohs         : Technical directorship


 We gratefully acknowledge several colleagues who have allowed us to
 interface, adapt or use parts of their codes:
   Stefan Grimme, W. Hujo, H. Kruse,             : VdW corrections, initial TS optimization,
                  C. Bannwarth                     DFT functionals, gCP, sTDA/sTD-DF
   Ed Valeev                                     : LibInt (2-el integral package), F12 methods
   Garnet Chan, S. Sharma, J. Yang, R. Olivares  : DMRG
   Ulf Ekstrom                                   : XCFun DFT Library
   Mihaly Kallay                                 : mrcc  (arbitrary order and MRCC methods)
   Jiri Pittner, Ondrej Demel                    : Mk-CCSD
   Frank Weinhold                                : gennbo (NPA and NBO analysis)
   Christopher J. Cramer and Donald G. Truhlar   : smd solvation model


 Your calculation uses the libint2 library for the computation of 2-el integrals
 For citations please refer to: http://libint.valeyev.net

 This ORCA versions uses:
   CBLAS   interface :  Fast vector & matrix operations
   LAPACKE interface :  Fast linear algebra routines
   SCALAPACK package :  Parallel linear algebra routines


Your calculation utilizes the atom-pairwise dispersion correction
with the zero-damping scheme (D30)
Cite in your paper:
S.Grimme, J.Antony, S.Ehrlich and H.Krieg, J.Chem.Phys., 132, (2010), 154104 
   

XCFun DFT library Copyright 2009-2010 Ulf Ekstrom and contributors.
See http://admol.org/xcfun for more information. This is free soft-
ware; see the source code for copying conditions. There is ABSOLUTELY
NO WARRANTY; not even for MERCHANTABILITY or FITNESS FOR A PARTICULAR
PURPOSE. For details see the documentation. Scientific users of this 
library should cite U. Ekstrom, L. Visscher, R. Bast, A. J. Thorvald-
sen and K. Ruud; J.Chem.Theor.Comp. 2010, DOI: 10.1021/ct100117s
XCFun Version 0.99 
Your calculation utilizes the basis: 6-31G(d)
   H-He, Li-Ne : W. J. Hehre, R. Ditchfield and J.A. Pople, J. Chem. Phys. 56, 2257 (1972).
                 Note: He and Ne are unpublished basis sets taken from the Gaussian program.
                 Note: Li and B from J. D. Dill and J. A. Pople, J. Chem. Phys. 62, 2921 (1975).
   Na - Ar     : M. M. Francl, W. J. Pietro, W. J. Hehre, J. S. Binkley, M. S. Gordon, 
                 D. J. DeFrees and J. A. Pople, J. Chem. Phys. 77, 3654 (1982).
   K - Zn      : V. A. Rassolov, J. A. Pople, M. A. Ratner, and T. L. Windus, J. Chem. Phys. 109, 1223 (1998).

================================================================================
                                        WARNINGS
                       Please study these warnings very carefully!
================================================================================

Warning: TCutStore was < 0. Adjusted to Thresh (uncritical)

INFO   : the flag for use of LIBINT has been found!

================================================================================
                                       INPUT FILE
================================================================================
NAME = initial10.inp
|  1> ! WB97X-D3 6-31G(d) VerySlowConv
|  2> ! KDIIS NOSOSCF
|  3> %base "Scan_10"
|  4> 
|  5> %scf
|  6> maxiter 999
|  7> end
|  8> 
|  9> * xyz 0 1
| 10> C         -3.538993949912    0.399097945536    0.000000000000
| 11> N         -2.307571074843    0.435485269806    0.000000000000
| 12> H         -4.593214975245    0.367946784658    0.000000000000
| 13> **                         ****END OF INPUT****
================================================================================

                       ****************************
                       * Single Point Calculation *
                       ****************************

---------------------------------
CARTESIAN COORDINATES (ANGSTROEM)
---------------------------------
  C     -3.538994    0.399098    0.000000
  N     -2.307571    0.435485    0.000000
  H     -4.593215    0.367947    0.000000

----------------------------
CARTESIAN COORDINATES (A.U.)
----------------------------
  NO LB      ZA    FRAG     MASS         X           Y           Z
   0 C     6.0000    0    12.011   -6.687729    0.754186    0.000000
   1 N     7.0000    0    14.007   -4.360677    0.822948    0.000000
   2 H     1.0000    0     1.008   -8.679918    0.695319    0.000000

--------------------------------
INTERNAL COORDINATES (ANGSTROEM)
--------------------------------
 C      0   0   0     0.000000000000     0.00000000     0.00000000
 N      1   0   0     1.231960362435     0.00000000     0.00000000
 H      1   2   0     1.054681167500   179.99999879     0.00000000

---------------------------
INTERNAL COORDINATES (A.U.)
---------------------------
 C      0   0   0     0.000000000000     0.00000000     0.00000000
 N      1   0   0     2.328067692848     0.00000000     0.00000000
 H      1   2   0     1.993058565178   179.99999879     0.00000000

---------------------
BASIS SET INFORMATION
---------------------
There are 3 groups of distinct atoms

 Group   1 Type C   : 10s4p1d contracted to 3s2p1d pattern {631/31/1}
 Group   2 Type N   : 10s4p1d contracted to 3s2p1d pattern {631/31/1}
 Group   3 Type H   : 4s contracted to 2s pattern {31}

Atom   0C    basis set group =>   1
Atom   1N    basis set group =>   2
Atom   2H    basis set group =>   3
------------------------------------------------------------------------------
                           ORCA GTO INTEGRAL CALCULATION
------------------------------------------------------------------------------

                         BASIS SET STATISTICS AND STARTUP INFO

 # of primitive gaussian shells          ...   34
 # of primitive gaussian functions       ...   58
 # of contracted shells                  ...   14
 # of contracted basis functions         ...   30
 Highest angular momentum                ...    2
 Maximum contraction depth               ...    6
 Integral package used                   ... LIBINT
 Integral threshhold            Thresh   ...  1.000e-10
 Primitive cut-off              TCut     ...  1.000e-11


------------------------------ INTEGRAL EVALUATION ----------------------------


 * One electron integrals 
 Pre-screening matrix                    ... done
 Shell pair data                         ... done (   0.000 sec)

-------------------------------------------------------------------------------
                                 ORCA SCF
-------------------------------------------------------------------------------

------------
SCF SETTINGS
------------
Hamiltonian:
 Density Functional     Method          .... DFT(GTOs)
 Exchange Functional    Exchange        .... WB97X-D3
 Correlation Functional Correlation     .... WB97X-D3
 Gradients option       PostSCFGGA      .... off
 Hybrid DFT is turned on
   Fraction HF Exchange ScalHFX         ....  0.195728
   Scaling of DF-GGA-X  ScalDFX         ....  0.000000
   Scaling of DF-GGA-C  ScalDFC         ....  1.000000
   Scaling of DF-LDA-C  ScalLDAC        ....  1.000000
   Perturbative correction              ....  0.000000
 Long-range corrected/Screened/Range-Separated Hybrid DFT is turned on
   Amount of maximum screened exact exchange              ....  0.804272
   Range separation parameter mu (erf(mu*r12)/r12)        ....  0.250000


General Settings:
 Integral files         IntName         .... Scan_10
 Hartree-Fock type      HFTyp           .... RHF
 Total Charge           Charge          ....    0
 Multiplicity           Mult            ....    1
 Number of Electrons    NEL             ....   14
 Basis Dimension        Dim             ....   30
 Nuclear Repulsion      ENuc            ....     22.6711089842 Eh

Convergence Acceleration:
 DIIS                   CNVDIIS         .... on
   Start iteration      DIISMaxIt       ....     0
   Startup error        DIISStart       ....  0.200000
   # of expansion vecs  DIISMaxEq       ....     5
   Bias factor          DIISBfac        ....   1.050
   Max. coefficient     DIISMaxC        ....  10.000
 Newton-Raphson         CNVNR           .... off
 SOSCF                  CNVSOSCF        .... off
 Level Shifting         CNVShift        .... off
 Zerner damping         CNVZerner       .... off
 Static damping         CNVDamp         .... off
 Fernandez-Rico         CNVRico         .... off

SCF Procedure:
 Maximum # iterations   MaxIter         ....   999
 SCF integral mode      SCFMode         .... Direct
   Integral package                     .... LIBINT
 Reset frequeny         DirectResetFreq ....    20
 Integral Threshold     Thresh          ....  1.000e-10 Eh
 Primitive CutOff       TCut            ....  1.000e-11 Eh

Convergence Tolerance:
 Convergence Check Mode ConvCheckMode   .... All-Criteria
 Convergence forced     ConvForced      .... 0
 Energy Change          TolE            ....  1.000e-06 Eh
 Max Density Change     TolMaxP         ....  1.000e-05
 RMS Density Change     TolRMSP         ....  1.000e-06
 DIIS Error             TolErr          ....  1.000e-06


Diagonalization of the overlap matrix:
Smallest eigenvalue                        ... 5.357e-03
Time for diagonalization                   ...    0.001 sec
Threshold for overlap eigenvalues          ... 1.000e-08
Number of eigenvalues below threshold      ... 0
Time for construction of square roots      ...    0.005 sec
Total time needed                          ...    0.006 sec

-------------------
DFT GRID GENERATION
-------------------

General Integration Accuracy     IntAcc      ...  4.340
Radial Grid Type                 RadialGrid  ... Gauss-Chebyshev
Angular Grid (max. acc.)         AngularGrid ... Lebedev-110
Angular grid pruning method      GridPruning ... 3 (G Style)
Weight generation scheme         WeightScheme... Becke
Basis function cutoff            BFCut       ...    1.0000e-10
Integration weight cutoff        WCut        ...    1.0000e-14
Grids for H and He will be reduced by one unit

# of grid points (after initial pruning)     ...   4152 (   0.0 sec)
# of grid points (after weights+screening)   ...   4102 (   0.0 sec)
nearest neighbour list constructed           ...    0.0 sec
Grid point re-assignment to atoms done       ...    0.0 sec
Grid point division into batches done        ...    0.0 sec
Reduced shell lists constructed in    0.0 sec

Total number of grid points                  ...     4102
Total number of batches                      ...       66
Average number of points per batch           ...       62
Average number of grid points per atom       ...     1367
Average number of shells per batch           ...    12.24 (87.42%)
Average number of basis functions per batch  ...    26.66 (88.86%)
Average number of large shells per batch     ...    11.42 (93.29%)
Average number of large basis fcns per batch ...    25.54 (95.80%)
Maximum spatial batch extension              ...  18.26, 25.60, 31.36 au
Average spatial batch extension              ...   4.29,  6.68,  6.57 au

Time for grid setup =    0.025 sec

------------------------------
INITIAL GUESS: MODEL POTENTIAL
------------------------------
Loading Hartree-Fock densities                     ... done
Calculating cut-offs                               ... done
Setting up the integral package                    ... done
Initializing the effective Hamiltonian             ... done
Starting the Coulomb interaction                   ... done (   0.0 sec)
Reading the grid                                   ... done
Mapping shells                                     ... done
Starting the XC term evaluation                    ... done (   0.0 sec)
  promolecular density results
     # of electrons  =     13.999653360
     EX              =    -11.810116425
     EC              =     -0.429449244
     EX+EC           =    -12.239565669
Transforming the Hamiltonian                       ... done (   0.0 sec)
Diagonalizing the Hamiltonian                      ... done (   0.0 sec)
Back transforming the eigenvectors                 ... done (   0.0 sec)
Now organizing SCF variables                       ... done
                      ------------------
                      INITIAL GUESS DONE (   0.1 sec)
                      ------------------
--------------
SCF ITERATIONS
--------------
ITER       Energy         Delta-E        Max-DP      RMS-DP      [F,P]   Gradient Norm
               ***  Starting incremental Fock matrix formation  ***
                             ****Resetting KDIIS****
                             ****Turning on KDIIS(Cayley)****
  0    -93.3079610576   0.000000000000 0.03221166  0.00238819  0.1146871   0.098416798
  1    -93.3356935393  -0.027732481682 0.02978860  0.00285548  0.0851018   0.073522171
  2    -93.3540659939  -0.018372454571 0.03262116  0.00304880  0.0576230   0.055299435
  3    -93.3682165708  -0.014150576892 0.04469267  0.00397999  0.0317349   0.032776777
  4    -93.3747921795  -0.006575608741 0.00415607  0.00036144  0.0075059   0.004888820
  5    -93.3749455290  -0.000153349486 0.01951332  0.00186738  0.0066328   0.004164871
  6    -93.3753426026  -0.000397073553 0.00248672  0.00021644  0.0008900   0.000721360
  7    -93.3753478551  -0.000005252515 0.00029069  0.00002077  0.0001428   0.000127070
                          ***Energy convergence achieved***
  8    -93.3753479622  -0.000000107161 0.00007146  0.00000408  0.0000065   0.000006239
Warning: badly conditioned DIIS matrix, 1 vectors out of 5 destroyed
                           ***RMSP convergence achieved***
                           ***MAXP convergence achieved***
                    *** KDIIS BlockDiag ( 0.000 sec) ***

               *****************************************************
               *                     SUCCESS                       *
               *           SCF CONVERGED AFTER   9 CYCLES          *
               *****************************************************

Setting up the final grid:

General Integration Accuracy     IntAcc      ...  4.670
Radial Grid Type                 RadialGrid  ... Gauss-Chebyshev
Angular Grid (max. acc.)         AngularGrid ... Lebedev-302
Angular grid pruning method      GridPruning ... 3 (G Style)
Weight generation scheme         WeightScheme... Becke
Basis function cutoff            BFCut       ...    1.0000e-10
Integration weight cutoff        WCut        ...    1.0000e-14
Grids for H and He will be reduced by one unit

# of grid points (after initial pruning)     ...  15818 (   0.0 sec)
# of grid points (after weights+screening)   ...  15666 (   0.0 sec)
nearest neighbour list constructed           ...    0.0 sec
Grid point re-assignment to atoms done       ...    0.0 sec
Grid point division into batches done        ...    0.1 sec
Reduced shell lists constructed in    0.1 sec

Total number of grid points                  ...    15666
Total number of batches                      ...      246
Average number of points per batch           ...       63
Average number of grid points per atom       ...     5222
Average number of shells per batch           ...    11.18 (79.87%)
Average number of basis functions per batch  ...    24.52 (81.73%)
Average number of large shells per batch     ...    10.13 (90.55%)
Average number of large basis fcns per batch ...    22.45 (91.56%)
Maximum spatial batch extension              ...  20.48, 22.79, 25.05 au
Average spatial batch extension              ...   3.22,  4.19,  4.19 au

Final grid set up in    0.1 sec
Final integration                            ... done (   0.1 sec)
Change in XC energy                          ...    -0.000153029
Integrated number of electrons               ...    14.000004572
Previous integrated no of electrons          ...    13.998307603

----------------
TOTAL SCF ENERGY
----------------

Total Energy       :          -93.37550099 Eh           -2540.87656 eV

Components:
Nuclear Repulsion  :           22.67110898 Eh             616.91224 eV
Electronic Energy  :         -116.04660998 Eh           -3157.78880 eV
One Electron Energy:         -170.37835865 Eh           -4636.23084 eV
Two Electron Energy:           54.33174867 Eh            1478.44204 eV

Virial components:
Potential Energy   :         -185.79737192 Eh           -5055.80352 eV
Kinetic Energy     :           92.42187093 Eh            2514.92696 eV
Virial Ratio       :            2.01031823


DFT components:
N(Alpha)           :        7.000002286109 electrons
N(Beta)            :        7.000002286109 electrons
N(Total)           :       14.000004572217 electrons
E(XC)              :       -8.656493311197 Eh       

---------------
SCF CONVERGENCE
---------------

  Last Energy change         ...   -3.7525e-10  Tolerance :   1.0000e-06
  Last MAX-Density change    ...    9.8906e-07  Tolerance :   1.0000e-05
  Last RMS-Density change    ...    1.2174e-07  Tolerance :   1.0000e-06
  Last DIIS Error            ...    1.0486e-06  Tolerance :   1.0000e-06

             **** THE GBW FILE WAS UPDATED (Scan_10.gbw) ****
             **** DENSITY FILE WAS UPDATED (Scan_10.scfp.tmp) ****
             **** ENERGY FILE WAS UPDATED (Scan_10.en.tmp) ****
----------------
ORBITAL ENERGIES
----------------

  NO   OCC          E(Eh)            E(eV) 
   0   2.0000     -14.482926      -394.1004 
   1   2.0000     -10.359996      -281.9098 
   2   2.0000      -1.007419       -27.4133 
   3   2.0000      -0.724059       -19.7027 
   4   2.0000      -0.485929       -13.2228 
   5   2.0000      -0.439708       -11.9651 
   6   2.0000      -0.439704       -11.9649 
   7   0.0000       0.085004         2.3131 
   8   0.0000       0.085016         2.3134 
   9   0.0000       0.177368         4.8264 
  10   0.0000       0.372445        10.1348 
  11   0.0000       0.629093        17.1185 
  12   0.0000       0.629097        17.1186 
  13   0.0000       0.748695        20.3730 
  14   0.0000       0.760777        20.7018 
  15   0.0000       0.868297        23.6276 
  16   0.0000       0.868299        23.6276 
  17   0.0000       0.904130        24.6026 
  18   0.0000       1.139342        31.0031 
  19   0.0000       1.540302        41.9138 
  20   0.0000       1.575541        42.8727 
  21   0.0000       1.575548        42.8728 
  22   0.0000       1.621515        44.1237 
  23   0.0000       1.621647        44.1273 
  24   0.0000       2.006825        54.6085 
  25   0.0000       2.006890        54.6102 
  26   0.0000       2.570761        69.9540 
  27   0.0000       2.570773        69.9543 
  28   0.0000       2.622014        71.3486 
  29   0.0000       2.981199        81.1226 

                    ********************************
                    * MULLIKEN POPULATION ANALYSIS *
                    ********************************

-----------------------
MULLIKEN ATOMIC CHARGES
-----------------------
   0 C :    0.001155
   1 N :   -0.281537
   2 H :    0.280382
Sum of atomic charges:   -0.0000000

--------------------------------
MULLIKEN REDUCED ORBITAL CHARGES
--------------------------------
  0 C s       :     3.188849  s :     3.188849
      pz      :     0.928745  p :     2.780440
      px      :     0.922947
      py      :     0.928748
      dz2     :     0.003524  d :     0.029555
      dxz     :     0.007725
      dyz     :     0.000007
      dx2y2   :     0.010565
      dxy     :     0.007734
  1 N s       :     3.838889  s :     3.838889
      pz      :     1.050779  p :     3.405639
      px      :     1.303890
      py      :     1.050970
      dz2     :     0.002880  d :     0.037009
      dxz     :     0.012733
      dyz     :     0.000011
      dx2y2   :     0.008655
      dxy     :     0.012729
  2 H s       :     0.719618  s :     0.719618


                     *******************************
                     * LOEWDIN POPULATION ANALYSIS *
                     *******************************

----------------------
LOEWDIN ATOMIC CHARGES
----------------------
   0 C :   -0.096957
   1 N :   -0.084221
   2 H :    0.181177

-------------------------------
LOEWDIN REDUCED ORBITAL CHARGES
-------------------------------
  0 C s       :     3.051462  s :     3.051462
      pz      :     0.922195  p :     2.984040
      px      :     1.139444
      py      :     0.922400
      dz2     :     0.008020  d :     0.061455
      dxz     :     0.014676
      dyz     :     0.000013
      dx2y2   :     0.024030
      dxy     :     0.014715
  1 N s       :     3.499921  s :     3.499921
      pz      :     1.045627  p :     3.521808
      px      :     1.430237
      py      :     1.045944
      dz2     :     0.006879  d :     0.062492
      dxz     :     0.017473
      dyz     :     0.000015
      dx2y2   :     0.020627
      dxy     :     0.017498
  2 H s       :     0.818823  s :     0.818823


                      *****************************
                      * MAYER POPULATION ANALYSIS *
                      *****************************

  NA   - Mulliken gross atomic population
  ZA   - Total nuclear charge
  QA   - Mulliken gross atomic charge
  VA   - Mayer's total valence
  BVA  - Mayer's bonded valence
  FA   - Mayer's free valence

  ATOM       NA         ZA         QA         VA         BVA        FA
  0 C      5.9988     6.0000     0.0012     3.8124     3.8124    -0.0000
  1 N      7.2815     7.0000    -0.2815     2.9572     2.9572    -0.0000
  2 H      0.7196     1.0000     0.2804     0.8900     0.8900    -0.0000

  Mayer bond orders larger than 0.1
B(  0-C ,  1-N ) :   2.9398 B(  0-C ,  2-H ) :   0.8726 

-------
TIMINGS
-------

Total SCF time: 0 days 0 hours 0 min 3 sec 

Total time                  ....       3.340 sec
Sum of individual times     ....       3.214 sec  ( 96.2%)

Fock matrix formation       ....       2.932 sec  ( 87.8%)
  XC integration            ....       0.617 sec  ( 21.1% of F)
    Basis function eval.    ....       0.182 sec  ( 29.5% of XC)
    Density eval.           ....       0.029 sec  (  4.7% of XC)
    XC-Functional eval.     ....       0.162 sec  ( 26.2% of XC)
    XC-Potential eval.      ....       0.024 sec  (  3.9% of XC)
Diagonalization             ....       0.005 sec  (  0.1%)
Density matrix formation    ....       0.000 sec  (  0.0%)
Population analysis         ....       0.012 sec  (  0.4%)
Initial guess               ....       0.115 sec  (  3.4%)
Orbital Transformation      ....       0.000 sec  (  0.0%)
Orbital Orthonormalization  ....       0.000 sec  (  0.0%)
DIIS solution               ....       0.000 sec  (  0.0%)
Grid generation             ....       0.150 sec  (  4.5%)


-------------------------------------------------------------------------------
                          DFT DISPERSION CORRECTION                            
                                                                               
                              DFTD3 V3.1  Rev 1                                
                              USING zero damping                               
-------------------------------------------------------------------------------
The omegaB97X-D3 functional is recognized. Fit by Chai et al.
Active option DFTDOPT                   ...         3   

molecular C6(AA) [au] = 141.161817 


            DFT-D V3
 parameters
 s6 scaling factor         :     1.0000 
 rs6 scaling factor        :     1.2810 
 s8 scaling factor         :     1.0000 
 rs8 scaling factor        :     1.0940 
 Damping factor alpha6     :    14.0000 
 Damping factor alpha8     :    16.0000 
 ad hoc parameters k1-k3   :    16.0000     1.3333    -4.0000 

 Edisp/kcal,au: -0.018120357886  -0.000028876625 
 E6   /kcal   :  -0.002552469 
 E8   /kcal   :  -0.015567889 
 % E8         :  85.913803683 

-------------------------   ----------------
Dispersion correction           -0.000028877
-------------------------   ----------------


-------------------------   --------------------
FINAL SINGLE POINT ENERGY       -93.375529868114
-------------------------   --------------------


                            ***************************************
                            *     ORCA property calculations      *
                            ***************************************

                                    ---------------------
                                    Active property flags
                                    ---------------------
   (+) Dipole Moment


------------------------------------------------------------------------------
                       ORCA ELECTRIC PROPERTIES CALCULATION
------------------------------------------------------------------------------

Dipole Moment Calculation                       ... on
Quadrupole Moment Calculation                   ... off
Polarizability Calculation                      ... off
GBWName                                         ... Scan_10.gbw
Electron density file                           ... Scan_10.scfp.tmp

-------------
DIPOLE MOMENT
-------------
                                X             Y             Z
Electronic contribution:      0.37836       0.01114       0.00000
Nuclear contribution   :     -1.54744      -0.04573       0.00000
                        -----------------------------------------
Total Dipole Moment    :     -1.16907      -0.03458       0.00000
                        -----------------------------------------
Magnitude (a.u.)       :      1.16958
Magnitude (Debye)      :      2.97285


Timings for individual modules:

Sum of individual times         ...        3.672 sec (=   0.061 min)
GTO integral calculation        ...        0.306 sec (=   0.005 min)   8.3 %
SCF iterations                  ...        3.366 sec (=   0.056 min)  91.7 %
                             ****ORCA TERMINATED NORMALLY****
TOTAL RUN TIME: 0 days 0 hours 0 minutes 4 seconds 18 msec
