
                                 *****************
                                 * O   R   C   A *
                                 *****************

           --- An Ab Initio, DFT and Semiempirical electronic structure package ---

                  #######################################################
                  #                        -***-                        #
                  #  Department of molecular theory and spectroscopy    #
                  #              Directorship: Frank Neese              #
                  # Max Planck Institute for Chemical Energy Conversion #
                  #                  D-45470 Muelheim/Ruhr              #
                  #                       Germany                       #
                  #                                                     #
                  #                  All rights reserved                #
                  #                        -***-                        #
                  #######################################################


                         Program Version 4.0.0.2 - RELEASE -


 With contributions from (in alphabetic order):
   Daniel Aravena         : Magnetic Properties
   Michael Atanasov       : Ab Initio Ligand Field Theory
   Ute Becker             : Parallelization
   Martin Brehm           : Molecular dynamics
   Dmytro Bykov           : SCF Hessian
   Vijay G. Chilkuri      : MRCI spin determinant printing
   Dipayan Datta          : RHF DLPNO-CCSD density
   Achintya Kumar Dutta   : EOM-CC, STEOM-CC
   Dmitry Ganyushin       : Spin-Orbit,Spin-Spin,Magnetic field MRCI
   Yang Guo               : DLPNO-NEVPT2, CIM, IAO-localization
   Andreas Hansen         : Spin unrestricted coupled pair/coupled cluster methods
   Lee Huntington         : MR-EOM, pCC
   Robert Izsak           : Overlap fitted RIJCOSX, COSX-SCS-MP3, EOM
   Christian Kollmar      : KDIIS, OOCD, Brueckner-CCSD(T), CCSD density
   Simone Kossmann        : Meta GGA functionals, TD-DFT gradient, OOMP2, MP2 Hessian
   Martin Krupicka        : AUTO-CI
   Dagmar Lenk            : GEPOL surface
   Dimitrios Liakos       : Extrapolation schemes; parallel MDCI
   Dimitrios Manganas     : ROCIS; embedding schemes
   Dimitrios Pantazis     : SARC Basis sets
   Taras Petrenko         : DFT Hessian,TD-DFT gradient, ASA, ECA, R-Raman, ABS, FL, XAS/XES, NRVS
   Peter Pinski           : DLPNO-MP2
   Christoph Reimann      : Effective Core Potentials
   Marius Retegan         : Local ZFS, SOC
   Christoph Riplinger    : Optimizer, TS searches, QM/MM, DLPNO-CCSD(T), (RO)-DLPNO pert. Triples
   Tobias Risthaus        : Range-separated hybrids, TD-DFT gradient, RPA, STAB
   Michael Roemelt        : Restricted open shell CIS
   Masaaki Saitow         : Open-shell DLPNO
   Barbara Sandhoefer     : DKH picture change effects
   Kantharuban Sivalingam : CASSCF convergence, NEVPT2, FIC-MRCI
   Georgi Stoychev        : AutoAux
   Boris Wezisla          : Elementary symmetry handling
   Frank Wennmohs         : Technical directorship


 We gratefully acknowledge several colleagues who have allowed us to
 interface, adapt or use parts of their codes:
   Stefan Grimme, W. Hujo, H. Kruse,             : VdW corrections, initial TS optimization,
                  C. Bannwarth                     DFT functionals, gCP, sTDA/sTD-DF
   Ed Valeev                                     : LibInt (2-el integral package), F12 methods
   Garnet Chan, S. Sharma, J. Yang, R. Olivares  : DMRG
   Ulf Ekstrom                                   : XCFun DFT Library
   Mihaly Kallay                                 : mrcc  (arbitrary order and MRCC methods)
   Jiri Pittner, Ondrej Demel                    : Mk-CCSD
   Frank Weinhold                                : gennbo (NPA and NBO analysis)
   Christopher J. Cramer and Donald G. Truhlar   : smd solvation model


 Your calculation uses the libint2 library for the computation of 2-el integrals
 For citations please refer to: http://libint.valeyev.net

 This ORCA versions uses:
   CBLAS   interface :  Fast vector & matrix operations
   LAPACKE interface :  Fast linear algebra routines
   SCALAPACK package :  Parallel linear algebra routines


Your calculation utilizes the atom-pairwise dispersion correction
with the zero-damping scheme (D30)
Cite in your paper:
S.Grimme, J.Antony, S.Ehrlich and H.Krieg, J.Chem.Phys., 132, (2010), 154104 
   

XCFun DFT library Copyright 2009-2010 Ulf Ekstrom and contributors.
See http://admol.org/xcfun for more information. This is free soft-
ware; see the source code for copying conditions. There is ABSOLUTELY
NO WARRANTY; not even for MERCHANTABILITY or FITNESS FOR A PARTICULAR
PURPOSE. For details see the documentation. Scientific users of this 
library should cite U. Ekstrom, L. Visscher, R. Bast, A. J. Thorvald-
sen and K. Ruud; J.Chem.Theor.Comp. 2010, DOI: 10.1021/ct100117s
XCFun Version 0.99 
Your calculation utilizes the basis: 6-31G(d)
   H-He, Li-Ne : W. J. Hehre, R. Ditchfield and J.A. Pople, J. Chem. Phys. 56, 2257 (1972).
                 Note: He and Ne are unpublished basis sets taken from the Gaussian program.
                 Note: Li and B from J. D. Dill and J. A. Pople, J. Chem. Phys. 62, 2921 (1975).
   Na - Ar     : M. M. Francl, W. J. Pietro, W. J. Hehre, J. S. Binkley, M. S. Gordon, 
                 D. J. DeFrees and J. A. Pople, J. Chem. Phys. 77, 3654 (1982).
   K - Zn      : V. A. Rassolov, J. A. Pople, M. A. Ratner, and T. L. Windus, J. Chem. Phys. 109, 1223 (1998).

================================================================================
                                        WARNINGS
                       Please study these warnings very carefully!
================================================================================

Warning: TCutStore was < 0. Adjusted to Thresh (uncritical)

INFO   : the flag for use of LIBINT has been found!

================================================================================
                                       INPUT FILE
================================================================================
NAME = initial11.inp
|  1> ! WB97X-D3 6-31G(d) VerySlowConv
|  2> ! KDIIS NOSOSCF
|  3> %base "Scan_11"
|  4> 
|  5> %scf
|  6> maxiter 999
|  7> end
|  8> 
|  9> * xyz 0 1
| 10> C         -3.555392731924    0.398613380886    0.000000000000
| 11> N         -2.275845410204    0.436422730975    0.000000000000
| 12> H         -4.608541857872    0.367493888139    0.000000000000
| 13> **                         ****END OF INPUT****
================================================================================

                       ****************************
                       * Single Point Calculation *
                       ****************************

---------------------------------
CARTESIAN COORDINATES (ANGSTROEM)
---------------------------------
  C     -3.555393    0.398613    0.000000
  N     -2.275845    0.436423    0.000000
  H     -4.608542    0.367494    0.000000

----------------------------
CARTESIAN COORDINATES (A.U.)
----------------------------
  NO LB      ZA    FRAG     MASS         X           Y           Z
   0 C     6.0000    0    12.011   -6.718719    0.753270    0.000000
   1 N     7.0000    0    14.007   -4.300725    0.824719    0.000000
   2 H     1.0000    0     1.008   -8.708882    0.694463    0.000000

--------------------------------
INTERNAL COORDINATES (ANGSTROEM)
--------------------------------
 C      0   0   0     0.000000000000     0.00000000     0.00000000
 N      1   0   0     1.280105814171     0.00000000     0.00000000
 H      1   2   0     1.053608800416   179.99999879     0.00000000

---------------------------
INTERNAL COORDINATES (A.U.)
---------------------------
 C      0   0   0     0.000000000000     0.00000000     0.00000000
 N      1   0   0     2.419049411224     0.00000000     0.00000000
 H      1   2   0     1.991032085075   179.99999879     0.00000000

---------------------
BASIS SET INFORMATION
---------------------
There are 3 groups of distinct atoms

 Group   1 Type C   : 10s4p1d contracted to 3s2p1d pattern {631/31/1}
 Group   2 Type N   : 10s4p1d contracted to 3s2p1d pattern {631/31/1}
 Group   3 Type H   : 4s contracted to 2s pattern {31}

Atom   0C    basis set group =>   1
Atom   1N    basis set group =>   2
Atom   2H    basis set group =>   3
------------------------------------------------------------------------------
                           ORCA GTO INTEGRAL CALCULATION
------------------------------------------------------------------------------

                         BASIS SET STATISTICS AND STARTUP INFO

 # of primitive gaussian shells          ...   34
 # of primitive gaussian functions       ...   58
 # of contracted shells                  ...   14
 # of contracted basis functions         ...   30
 Highest angular momentum                ...    2
 Maximum contraction depth               ...    6
 Integral package used                   ... LIBINT
 Integral threshhold            Thresh   ...  1.000e-10
 Primitive cut-off              TCut     ...  1.000e-11


------------------------------ INTEGRAL EVALUATION ----------------------------


 * One electron integrals 
 Pre-screening matrix                    ... done
 Shell pair data                         ... done (   0.000 sec)

-------------------------------------------------------------------------------
                                 ORCA SCF
-------------------------------------------------------------------------------

------------
SCF SETTINGS
------------
Hamiltonian:
 Density Functional     Method          .... DFT(GTOs)
 Exchange Functional    Exchange        .... WB97X-D3
 Correlation Functional Correlation     .... WB97X-D3
 Gradients option       PostSCFGGA      .... off
 Hybrid DFT is turned on
   Fraction HF Exchange ScalHFX         ....  0.195728
   Scaling of DF-GGA-X  ScalDFX         ....  0.000000
   Scaling of DF-GGA-C  ScalDFC         ....  1.000000
   Scaling of DF-LDA-C  ScalLDAC        ....  1.000000
   Perturbative correction              ....  0.000000
 Long-range corrected/Screened/Range-Separated Hybrid DFT is turned on
   Amount of maximum screened exact exchange              ....  0.804272
   Range separation parameter mu (erf(mu*r12)/r12)        ....  0.250000


General Settings:
 Integral files         IntName         .... Scan_11
 Hartree-Fock type      HFTyp           .... RHF
 Total Charge           Charge          ....    0
 Multiplicity           Mult            ....    1
 Number of Electrons    NEL             ....   14
 Basis Dimension        Dim             ....   30
 Nuclear Repulsion      ENuc            ....     21.9629765778 Eh

Convergence Acceleration:
 DIIS                   CNVDIIS         .... on
   Start iteration      DIISMaxIt       ....     0
   Startup error        DIISStart       ....  0.200000
   # of expansion vecs  DIISMaxEq       ....     5
   Bias factor          DIISBfac        ....   1.050
   Max. coefficient     DIISMaxC        ....  10.000
 Newton-Raphson         CNVNR           .... off
 SOSCF                  CNVSOSCF        .... off
 Level Shifting         CNVShift        .... off
 Zerner damping         CNVZerner       .... off
 Static damping         CNVDamp         .... off
 Fernandez-Rico         CNVRico         .... off

SCF Procedure:
 Maximum # iterations   MaxIter         ....   999
 SCF integral mode      SCFMode         .... Direct
   Integral package                     .... LIBINT
 Reset frequeny         DirectResetFreq ....    20
 Integral Threshold     Thresh          ....  1.000e-10 Eh
 Primitive CutOff       TCut            ....  1.000e-11 Eh

Convergence Tolerance:
 Convergence Check Mode ConvCheckMode   .... All-Criteria
 Convergence forced     ConvForced      .... 0
 Energy Change          TolE            ....  1.000e-06 Eh
 Max Density Change     TolMaxP         ....  1.000e-05
 RMS Density Change     TolRMSP         ....  1.000e-06
 DIIS Error             TolErr          ....  1.000e-06


Diagonalization of the overlap matrix:
Smallest eigenvalue                        ... 6.158e-03
Time for diagonalization                   ...    0.001 sec
Threshold for overlap eigenvalues          ... 1.000e-08
Number of eigenvalues below threshold      ... 0
Time for construction of square roots      ...    0.005 sec
Total time needed                          ...    0.005 sec

-------------------
DFT GRID GENERATION
-------------------

General Integration Accuracy     IntAcc      ...  4.340
Radial Grid Type                 RadialGrid  ... Gauss-Chebyshev
Angular Grid (max. acc.)         AngularGrid ... Lebedev-110
Angular grid pruning method      GridPruning ... 3 (G Style)
Weight generation scheme         WeightScheme... Becke
Basis function cutoff            BFCut       ...    1.0000e-10
Integration weight cutoff        WCut        ...    1.0000e-14
Grids for H and He will be reduced by one unit

# of grid points (after initial pruning)     ...   4152 (   0.0 sec)
# of grid points (after weights+screening)   ...   4102 (   0.0 sec)
nearest neighbour list constructed           ...    0.0 sec
Grid point re-assignment to atoms done       ...    0.0 sec
Grid point division into batches done        ...    0.0 sec
Reduced shell lists constructed in    0.0 sec

Total number of grid points                  ...     4102
Total number of batches                      ...       66
Average number of points per batch           ...       62
Average number of grid points per atom       ...     1367
Average number of shells per batch           ...    12.27 (87.63%)
Average number of basis functions per batch  ...    26.69 (88.96%)
Average number of large shells per batch     ...    11.31 (92.21%)
Average number of large basis fcns per batch ...    25.25 (94.63%)
Maximum spatial batch extension              ...  18.36, 25.60, 31.36 au
Average spatial batch extension              ...   4.35,  6.65,  6.51 au

Time for grid setup =    0.025 sec

------------------------------
INITIAL GUESS: MODEL POTENTIAL
------------------------------
Loading Hartree-Fock densities                     ... done
Calculating cut-offs                               ... done
Setting up the integral package                    ... done
Initializing the effective Hamiltonian             ... done
Starting the Coulomb interaction                   ... done (   0.0 sec)
Reading the grid                                   ... done
Mapping shells                                     ... done
Starting the XC term evaluation                    ... done (   0.0 sec)
  promolecular density results
     # of electrons  =     13.999552430
     EX              =    -11.791164324
     EC              =     -0.427391980
     EX+EC           =    -12.218556304
Transforming the Hamiltonian                       ... done (   0.0 sec)
Diagonalizing the Hamiltonian                      ... done (   0.0 sec)
Back transforming the eigenvectors                 ... done (   0.0 sec)
Now organizing SCF variables                       ... done
                      ------------------
                      INITIAL GUESS DONE (   0.1 sec)
                      ------------------
--------------
SCF ITERATIONS
--------------
ITER       Energy         Delta-E        Max-DP      RMS-DP      [F,P]   Gradient Norm
               ***  Starting incremental Fock matrix formation  ***
                             ****Resetting KDIIS****
                             ****Turning on KDIIS(Cayley)****
  0    -93.2930067425   0.000000000000 0.03125821  0.00236525  0.1171553   0.096576854
  1    -93.3203371712  -0.027330428764 0.04267318  0.00373885  0.0871930   0.071426673
  2    -93.3439267620  -0.023589590708 0.02776033  0.00269183  0.0439933   0.044687605
  3    -93.3535038340  -0.009577072022 0.03719348  0.00339118  0.0227786   0.025968257
  4    -93.3572382715  -0.003734437538 0.00749925  0.00068414  0.0100000   0.005869044
  5    -93.3575590557  -0.000320784224 0.01658616  0.00183595  0.0083901   0.004670817
  6    -93.3580329210  -0.000473865233 0.00325305  0.00030424  0.0014509   0.001144729
  7    -93.3580453519  -0.000012430879 0.00049842  0.00002707  0.0001160   0.000109563
                          ***Energy convergence achieved***
  8    -93.3580454297  -0.000000077866 0.00009865  0.00000601  0.0000082   0.000009142
                           ***RMSP convergence achieved***
                           ***MAXP convergence achieved***
                    *** KDIIS BlockDiag ( 0.000 sec) ***

               *****************************************************
               *                     SUCCESS                       *
               *           SCF CONVERGED AFTER   9 CYCLES          *
               *****************************************************

Setting up the final grid:

General Integration Accuracy     IntAcc      ...  4.670
Radial Grid Type                 RadialGrid  ... Gauss-Chebyshev
Angular Grid (max. acc.)         AngularGrid ... Lebedev-302
Angular grid pruning method      GridPruning ... 3 (G Style)
Weight generation scheme         WeightScheme... Becke
Basis function cutoff            BFCut       ...    1.0000e-10
Integration weight cutoff        WCut        ...    1.0000e-14
Grids for H and He will be reduced by one unit

# of grid points (after initial pruning)     ...  15818 (   0.0 sec)
# of grid points (after weights+screening)   ...  15672 (   0.0 sec)
nearest neighbour list constructed           ...    0.0 sec
Grid point re-assignment to atoms done       ...    0.0 sec
Grid point division into batches done        ...    0.1 sec
Reduced shell lists constructed in    0.1 sec

Total number of grid points                  ...    15672
Total number of batches                      ...      247
Average number of points per batch           ...       63
Average number of grid points per atom       ...     5224
Average number of shells per batch           ...    11.17 (79.75%)
Average number of basis functions per batch  ...    24.50 (81.68%)
Average number of large shells per batch     ...    10.05 (90.03%)
Average number of large basis fcns per batch ...    22.30 (91.02%)
Maximum spatial batch extension              ...  20.57, 22.57, 25.05 au
Average spatial batch extension              ...   3.24,  4.16,  4.22 au

Final grid set up in    0.1 sec
Final integration                            ... done (   0.1 sec)
Change in XC energy                          ...    -0.000183544
Integrated number of electrons               ...    14.000003031
Previous integrated no of electrons          ...    13.998197875

----------------
TOTAL SCF ENERGY
----------------

Total Energy       :          -93.35822897 Eh           -2540.40656 eV

Components:
Nuclear Repulsion  :           21.96297658 Eh             597.64298 eV
Electronic Energy  :         -115.32120555 Eh           -3138.04954 eV
One Electron Energy:         -168.95624797 Eh           -4597.53324 eV
Two Electron Energy:           53.63504242 Eh            1459.48370 eV

Virial components:
Potential Energy   :         -185.61844260 Eh           -5050.93461 eV
Kinetic Energy     :           92.26021362 Eh            2510.52805 eV
Virial Ratio       :            2.01190129


DFT components:
N(Alpha)           :        7.000001515509 electrons
N(Beta)            :        7.000001515509 electrons
N(Total)           :       14.000003031018 electrons
E(XC)              :       -8.623919833346 Eh       

---------------
SCF CONVERGENCE
---------------

  Last Energy change         ...   -9.9030e-10  Tolerance :   1.0000e-06
  Last MAX-Density change    ...    1.8912e-06  Tolerance :   1.0000e-05
  Last RMS-Density change    ...    2.2739e-07  Tolerance :   1.0000e-06
  Last DIIS Error            ...    1.8791e-06  Tolerance :   1.0000e-06

             **** THE GBW FILE WAS UPDATED (Scan_11.gbw) ****
             **** DENSITY FILE WAS UPDATED (Scan_11.scfp.tmp) ****
             **** ENERGY FILE WAS UPDATED (Scan_11.en.tmp) ****
----------------
ORBITAL ENERGIES
----------------

  NO   OCC          E(Eh)            E(eV) 
   0   2.0000     -14.494611      -394.4184 
   1   2.0000     -10.371414      -282.2205 
   2   2.0000      -0.991108       -26.9694 
   3   2.0000      -0.728843       -19.8328 
   4   2.0000      -0.488912       -13.3040 
   5   2.0000      -0.430465       -11.7135 
   6   2.0000      -0.430461       -11.7134 
   7   0.0000       0.068923         1.8755 
   8   0.0000       0.068935         1.8758 
   9   0.0000       0.171804         4.6750 
  10   0.0000       0.369315        10.0496 
  11   0.0000       0.631695        17.1893 
  12   0.0000       0.631696        17.1893 
  13   0.0000       0.731665        19.9096 
  14   0.0000       0.755523        20.5588 
  15   0.0000       0.863041        23.4845 
  16   0.0000       0.863042        23.4846 
  17   0.0000       0.894977        24.3536 
  18   0.0000       1.103156        30.0184 
  19   0.0000       1.515211        41.2310 
  20   0.0000       1.549679        42.1689 
  21   0.0000       1.549690        42.1692 
  22   0.0000       1.635562        44.5059 
  23   0.0000       1.635697        44.5096 
  24   0.0000       1.982687        53.9516 
  25   0.0000       1.982758        53.9536 
  26   0.0000       2.518768        68.5392 
  27   0.0000       2.518787        68.5397 
  28   0.0000       2.538885        69.0866 
  29   0.0000       2.934589        79.8542 

                    ********************************
                    * MULLIKEN POPULATION ANALYSIS *
                    ********************************

-----------------------
MULLIKEN ATOMIC CHARGES
-----------------------
   0 C :   -0.001518
   1 N :   -0.280465
   2 H :    0.281983
Sum of atomic charges:   -0.0000000

--------------------------------
MULLIKEN REDUCED ORBITAL CHARGES
--------------------------------
  0 C s       :     3.214779  s :     3.214779
      pz      :     0.924554  p :     2.759633
      px      :     0.910529
      py      :     0.924550
      dz2     :     0.003443  d :     0.027106
      dxz     :     0.006663
      dyz     :     0.000006
      dx2y2   :     0.010319
      dxy     :     0.006674
  1 N s       :     3.866153  s :     3.866153
      pz      :     1.057390  p :     3.380464
      px      :     1.265534
      py      :     1.057541
      dz2     :     0.002768  d :     0.033847
      dxz     :     0.011377
      dyz     :     0.000010
      dx2y2   :     0.008317
      dxy     :     0.011376
  2 H s       :     0.718017  s :     0.718017


                     *******************************
                     * LOEWDIN POPULATION ANALYSIS *
                     *******************************

----------------------
LOEWDIN ATOMIC CHARGES
----------------------
   0 C :   -0.087362
   1 N :   -0.095125
   2 H :    0.182487

-------------------------------
LOEWDIN REDUCED ORBITAL CHARGES
-------------------------------
  0 C s       :     3.069769  s :     3.069769
      pz      :     0.919285  p :     2.962909
      px      :     1.124147
      py      :     0.919478
      dz2     :     0.007450  d :     0.054683
      dxz     :     0.012434
      dyz     :     0.000011
      dx2y2   :     0.022317
      dxy     :     0.012472
  1 N s       :     3.536218  s :     3.536218
      pz      :     1.052966  p :     3.502212
      px      :     1.396000
      py      :     1.053246
      dz2     :     0.006521  d :     0.056695
      dxz     :     0.015291
      dyz     :     0.000013
      dx2y2   :     0.019550
      dxy     :     0.015319
  2 H s       :     0.817513  s :     0.817513


                      *****************************
                      * MAYER POPULATION ANALYSIS *
                      *****************************

  NA   - Mulliken gross atomic population
  ZA   - Total nuclear charge
  QA   - Mulliken gross atomic charge
  VA   - Mayer's total valence
  BVA  - Mayer's bonded valence
  FA   - Mayer's free valence

  ATOM       NA         ZA         QA         VA         BVA        FA
  0 C      6.0015     6.0000    -0.0015     3.7857     3.7857    -0.0000
  1 N      7.2805     7.0000    -0.2805     2.9362     2.9362     0.0000
  2 H      0.7180     1.0000     0.2820     0.8891     0.8891    -0.0000

  Mayer bond orders larger than 0.1
B(  0-C ,  1-N ) :   2.9164 B(  0-C ,  2-H ) :   0.8693 

-------
TIMINGS
-------

Total SCF time: 0 days 0 hours 0 min 3 sec 

Total time                  ....       3.371 sec
Sum of individual times     ....       3.242 sec  ( 96.2%)

Fock matrix formation       ....       2.954 sec  ( 87.6%)
  XC integration            ....       0.630 sec  ( 21.3% of F)
    Basis function eval.    ....       0.181 sec  ( 28.8% of XC)
    Density eval.           ....       0.030 sec  (  4.7% of XC)
    XC-Functional eval.     ....       0.160 sec  ( 25.4% of XC)
    XC-Potential eval.      ....       0.025 sec  (  4.0% of XC)
Diagonalization             ....       0.005 sec  (  0.2%)
Density matrix formation    ....       0.000 sec  (  0.0%)
Population analysis         ....       0.013 sec  (  0.4%)
Initial guess               ....       0.115 sec  (  3.4%)
Orbital Transformation      ....       0.000 sec  (  0.0%)
Orbital Orthonormalization  ....       0.000 sec  (  0.0%)
DIIS solution               ....       0.000 sec  (  0.0%)
Grid generation             ....       0.154 sec  (  4.6%)


-------------------------------------------------------------------------------
                          DFT DISPERSION CORRECTION                            
                                                                               
                              DFTD3 V3.1  Rev 1                                
                              USING zero damping                               
-------------------------------------------------------------------------------
The omegaB97X-D3 functional is recognized. Fit by Chai et al.
Active option DFTDOPT                   ...         3   

molecular C6(AA) [au] = 141.163679 


            DFT-D V3
 parameters
 s6 scaling factor         :     1.0000 
 rs6 scaling factor        :     1.2810 
 s8 scaling factor         :     1.0000 
 rs8 scaling factor        :     1.0940 
 Damping factor alpha6     :    14.0000 
 Damping factor alpha8     :    16.0000 
 ad hoc parameters k1-k3   :    16.0000     1.3333    -4.0000 

 Edisp/kcal,au: -0.021178312366  -0.000033749785 
 E6   /kcal   :  -0.003002176 
 E8   /kcal   :  -0.018176136 
 % E8         :  85.824290202 

-------------------------   ----------------
Dispersion correction           -0.000033750
-------------------------   ----------------


-------------------------   --------------------
FINAL SINGLE POINT ENERGY       -93.358262724408
-------------------------   --------------------


                            ***************************************
                            *     ORCA property calculations      *
                            ***************************************

                                    ---------------------
                                    Active property flags
                                    ---------------------
   (+) Dipole Moment


------------------------------------------------------------------------------
                       ORCA ELECTRIC PROPERTIES CALCULATION
------------------------------------------------------------------------------

Dipole Moment Calculation                       ... on
Quadrupole Moment Calculation                   ... off
Polarizability Calculation                      ... off
GBWName                                         ... Scan_11.gbw
Electron density file                           ... Scan_11.scfp.tmp

-------------
DIPOLE MOMENT
-------------
                                X             Y             Z
Electronic contribution:      0.40112       0.01183       0.00000
Nuclear contribution   :     -1.56974      -0.04638       0.00000
                        -----------------------------------------
Total Dipole Moment    :     -1.16862      -0.03456       0.00000
                        -----------------------------------------
Magnitude (a.u.)       :      1.16913
Magnitude (Debye)      :      2.97170


Timings for individual modules:

Sum of individual times         ...        3.699 sec (=   0.062 min)
GTO integral calculation        ...        0.303 sec (=   0.005 min)   8.2 %
SCF iterations                  ...        3.396 sec (=   0.057 min)  91.8 %
                             ****ORCA TERMINATED NORMALLY****
TOTAL RUN TIME: 0 days 0 hours 0 minutes 4 seconds 45 msec
