
                                 *****************
                                 * O   R   C   A *
                                 *****************

           --- An Ab Initio, DFT and Semiempirical electronic structure package ---

                  #######################################################
                  #                        -***-                        #
                  #  Department of molecular theory and spectroscopy    #
                  #              Directorship: Frank Neese              #
                  # Max Planck Institute for Chemical Energy Conversion #
                  #                  D-45470 Muelheim/Ruhr              #
                  #                       Germany                       #
                  #                                                     #
                  #                  All rights reserved                #
                  #                        -***-                        #
                  #######################################################


                         Program Version 4.0.0.2 - RELEASE -


 With contributions from (in alphabetic order):
   Daniel Aravena         : Magnetic Properties
   Michael Atanasov       : Ab Initio Ligand Field Theory
   Ute Becker             : Parallelization
   Martin Brehm           : Molecular dynamics
   Dmytro Bykov           : SCF Hessian
   Vijay G. Chilkuri      : MRCI spin determinant printing
   Dipayan Datta          : RHF DLPNO-CCSD density
   Achintya Kumar Dutta   : EOM-CC, STEOM-CC
   Dmitry Ganyushin       : Spin-Orbit,Spin-Spin,Magnetic field MRCI
   Yang Guo               : DLPNO-NEVPT2, CIM, IAO-localization
   Andreas Hansen         : Spin unrestricted coupled pair/coupled cluster methods
   Lee Huntington         : MR-EOM, pCC
   Robert Izsak           : Overlap fitted RIJCOSX, COSX-SCS-MP3, EOM
   Christian Kollmar      : KDIIS, OOCD, Brueckner-CCSD(T), CCSD density
   Simone Kossmann        : Meta GGA functionals, TD-DFT gradient, OOMP2, MP2 Hessian
   Martin Krupicka        : AUTO-CI
   Dagmar Lenk            : GEPOL surface
   Dimitrios Liakos       : Extrapolation schemes; parallel MDCI
   Dimitrios Manganas     : ROCIS; embedding schemes
   Dimitrios Pantazis     : SARC Basis sets
   Taras Petrenko         : DFT Hessian,TD-DFT gradient, ASA, ECA, R-Raman, ABS, FL, XAS/XES, NRVS
   Peter Pinski           : DLPNO-MP2
   Christoph Reimann      : Effective Core Potentials
   Marius Retegan         : Local ZFS, SOC
   Christoph Riplinger    : Optimizer, TS searches, QM/MM, DLPNO-CCSD(T), (RO)-DLPNO pert. Triples
   Tobias Risthaus        : Range-separated hybrids, TD-DFT gradient, RPA, STAB
   Michael Roemelt        : Restricted open shell CIS
   Masaaki Saitow         : Open-shell DLPNO
   Barbara Sandhoefer     : DKH picture change effects
   Kantharuban Sivalingam : CASSCF convergence, NEVPT2, FIC-MRCI
   Georgi Stoychev        : AutoAux
   Boris Wezisla          : Elementary symmetry handling
   Frank Wennmohs         : Technical directorship


 We gratefully acknowledge several colleagues who have allowed us to
 interface, adapt or use parts of their codes:
   Stefan Grimme, W. Hujo, H. Kruse,             : VdW corrections, initial TS optimization,
                  C. Bannwarth                     DFT functionals, gCP, sTDA/sTD-DF
   Ed Valeev                                     : LibInt (2-el integral package), F12 methods
   Garnet Chan, S. Sharma, J. Yang, R. Olivares  : DMRG
   Ulf Ekstrom                                   : XCFun DFT Library
   Mihaly Kallay                                 : mrcc  (arbitrary order and MRCC methods)
   Jiri Pittner, Ondrej Demel                    : Mk-CCSD
   Frank Weinhold                                : gennbo (NPA and NBO analysis)
   Christopher J. Cramer and Donald G. Truhlar   : smd solvation model


 Your calculation uses the libint2 library for the computation of 2-el integrals
 For citations please refer to: http://libint.valeyev.net

 This ORCA versions uses:
   CBLAS   interface :  Fast vector & matrix operations
   LAPACKE interface :  Fast linear algebra routines
   SCALAPACK package :  Parallel linear algebra routines


Your calculation utilizes the atom-pairwise dispersion correction
with the zero-damping scheme (D30)
Cite in your paper:
S.Grimme, J.Antony, S.Ehrlich and H.Krieg, J.Chem.Phys., 132, (2010), 154104 
   

XCFun DFT library Copyright 2009-2010 Ulf Ekstrom and contributors.
See http://admol.org/xcfun for more information. This is free soft-
ware; see the source code for copying conditions. There is ABSOLUTELY
NO WARRANTY; not even for MERCHANTABILITY or FITNESS FOR A PARTICULAR
PURPOSE. For details see the documentation. Scientific users of this 
library should cite U. Ekstrom, L. Visscher, R. Bast, A. J. Thorvald-
sen and K. Ruud; J.Chem.Theor.Comp. 2010, DOI: 10.1021/ct100117s
XCFun Version 0.99 
Your calculation utilizes the basis: 6-31G(d)
   H-He, Li-Ne : W. J. Hehre, R. Ditchfield and J.A. Pople, J. Chem. Phys. 56, 2257 (1972).
                 Note: He and Ne are unpublished basis sets taken from the Gaussian program.
                 Note: Li and B from J. D. Dill and J. A. Pople, J. Chem. Phys. 62, 2921 (1975).
   Na - Ar     : M. M. Francl, W. J. Pietro, W. J. Hehre, J. S. Binkley, M. S. Gordon, 
                 D. J. DeFrees and J. A. Pople, J. Chem. Phys. 77, 3654 (1982).
   K - Zn      : V. A. Rassolov, J. A. Pople, M. A. Ratner, and T. L. Windus, J. Chem. Phys. 109, 1223 (1998).

================================================================================
                                        WARNINGS
                       Please study these warnings very carefully!
================================================================================

Warning: TCutStore was < 0. Adjusted to Thresh (uncritical)

INFO   : the flag for use of LIBINT has been found!

================================================================================
                                       INPUT FILE
================================================================================
NAME = initial13.inp
|  1> ! WB97X-D3 6-31G(d) VerySlowConv
|  2> ! KDIIS NOSOSCF
|  3> %base "Scan_13"
|  4> 
|  5> %scf
|  6> maxiter 999
|  7> end
|  8> 
|  9> * xyz 0 1
| 10> C         -3.603470476354    0.397192734029   -0.000000000000
| 11> N         -2.180739137898    0.439233026367    0.000000000000
| 12> H         -4.655570385747    0.366104239604    0.000000000000
| 13> **                         ****END OF INPUT****
================================================================================

                       ****************************
                       * Single Point Calculation *
                       ****************************

---------------------------------
CARTESIAN COORDINATES (ANGSTROEM)
---------------------------------
  C     -3.603470    0.397193   -0.000000
  N     -2.180739    0.439233    0.000000
  H     -4.655570    0.366104    0.000000

----------------------------
CARTESIAN COORDINATES (A.U.)
----------------------------
  NO LB      ZA    FRAG     MASS         X           Y           Z
   0 C     6.0000    0    12.011   -6.809572    0.750585   -0.000000
   1 N     7.0000    0    14.007   -4.121000    0.830030    0.000000
   2 H     1.0000    0     1.008   -8.797753    0.691837    0.000000

--------------------------------
INTERNAL COORDINATES (ANGSTROEM)
--------------------------------
 C      0   0   0     0.000000000000     0.00000000     0.00000000
 N      1   0   0     1.423352327291     0.00000000     0.00000000
 H      1   2   0     1.052559126050   180.00000000     0.00000000

---------------------------
INTERNAL COORDINATES (A.U.)
---------------------------
 C      0   0   0     0.000000000000     0.00000000     0.00000000
 N      1   0   0     2.689746090659     0.00000000     0.00000000
 H      1   2   0     1.989048487993   180.00000000     0.00000000

---------------------
BASIS SET INFORMATION
---------------------
There are 3 groups of distinct atoms

 Group   1 Type C   : 10s4p1d contracted to 3s2p1d pattern {631/31/1}
 Group   2 Type N   : 10s4p1d contracted to 3s2p1d pattern {631/31/1}
 Group   3 Type H   : 4s contracted to 2s pattern {31}

Atom   0C    basis set group =>   1
Atom   1N    basis set group =>   2
Atom   2H    basis set group =>   3
------------------------------------------------------------------------------
                           ORCA GTO INTEGRAL CALCULATION
------------------------------------------------------------------------------

                         BASIS SET STATISTICS AND STARTUP INFO

 # of primitive gaussian shells          ...   34
 # of primitive gaussian functions       ...   58
 # of contracted shells                  ...   14
 # of contracted basis functions         ...   30
 Highest angular momentum                ...    2
 Maximum contraction depth               ...    6
 Integral package used                   ... LIBINT
 Integral threshhold            Thresh   ...  1.000e-10
 Primitive cut-off              TCut     ...  1.000e-11


------------------------------ INTEGRAL EVALUATION ----------------------------


 * One electron integrals 
 Pre-screening matrix                    ... done
 Shell pair data                         ... done (   0.000 sec)

-------------------------------------------------------------------------------
                                 ORCA SCF
-------------------------------------------------------------------------------

------------
SCF SETTINGS
------------
Hamiltonian:
 Density Functional     Method          .... DFT(GTOs)
 Exchange Functional    Exchange        .... WB97X-D3
 Correlation Functional Correlation     .... WB97X-D3
 Gradients option       PostSCFGGA      .... off
 Hybrid DFT is turned on
   Fraction HF Exchange ScalHFX         ....  0.195728
   Scaling of DF-GGA-X  ScalDFX         ....  0.000000
   Scaling of DF-GGA-C  ScalDFC         ....  1.000000
   Scaling of DF-LDA-C  ScalLDAC        ....  1.000000
   Perturbative correction              ....  0.000000
 Long-range corrected/Screened/Range-Separated Hybrid DFT is turned on
   Amount of maximum screened exact exchange              ....  0.804272
   Range separation parameter mu (erf(mu*r12)/r12)        ....  0.250000


General Settings:
 Integral files         IntName         .... Scan_13
 Hartree-Fock type      HFTyp           .... RHF
 Total Charge           Charge          ....    0
 Multiplicity           Mult            ....    1
 Number of Electrons    NEL             ....   14
 Basis Dimension        Dim             ....   30
 Nuclear Repulsion      ENuc            ....     20.1274863496 Eh

Convergence Acceleration:
 DIIS                   CNVDIIS         .... on
   Start iteration      DIISMaxIt       ....     0
   Startup error        DIISStart       ....  0.200000
   # of expansion vecs  DIISMaxEq       ....     5
   Bias factor          DIISBfac        ....   1.050
   Max. coefficient     DIISMaxC        ....  10.000
 Newton-Raphson         CNVNR           .... off
 SOSCF                  CNVSOSCF        .... off
 Level Shifting         CNVShift        .... off
 Zerner damping         CNVZerner       .... off
 Static damping         CNVDamp         .... off
 Fernandez-Rico         CNVRico         .... off

SCF Procedure:
 Maximum # iterations   MaxIter         ....   999
 SCF integral mode      SCFMode         .... Direct
   Integral package                     .... LIBINT
 Reset frequeny         DirectResetFreq ....    20
 Integral Threshold     Thresh          ....  1.000e-10 Eh
 Primitive CutOff       TCut            ....  1.000e-11 Eh

Convergence Tolerance:
 Convergence Check Mode ConvCheckMode   .... All-Criteria
 Convergence forced     ConvForced      .... 0
 Energy Change          TolE            ....  1.000e-06 Eh
 Max Density Change     TolMaxP         ....  1.000e-05
 RMS Density Change     TolRMSP         ....  1.000e-06
 DIIS Error             TolErr          ....  1.000e-06


Diagonalization of the overlap matrix:
Smallest eigenvalue                        ... 9.317e-03
Time for diagonalization                   ...    0.001 sec
Threshold for overlap eigenvalues          ... 1.000e-08
Number of eigenvalues below threshold      ... 0
Time for construction of square roots      ...    0.005 sec
Total time needed                          ...    0.005 sec

-------------------
DFT GRID GENERATION
-------------------

General Integration Accuracy     IntAcc      ...  4.340
Radial Grid Type                 RadialGrid  ... Gauss-Chebyshev
Angular Grid (max. acc.)         AngularGrid ... Lebedev-110
Angular grid pruning method      GridPruning ... 3 (G Style)
Weight generation scheme         WeightScheme... Becke
Basis function cutoff            BFCut       ...    1.0000e-10
Integration weight cutoff        WCut        ...    1.0000e-14
Grids for H and He will be reduced by one unit

# of grid points (after initial pruning)     ...   4152 (   0.0 sec)
# of grid points (after weights+screening)   ...   4103 (   0.0 sec)
nearest neighbour list constructed           ...    0.0 sec
Grid point re-assignment to atoms done       ...    0.0 sec
Grid point division into batches done        ...    0.0 sec
Reduced shell lists constructed in    0.0 sec

Total number of grid points                  ...     4103
Total number of batches                      ...       66
Average number of points per batch           ...       62
Average number of grid points per atom       ...     1368
Average number of shells per batch           ...    12.27 (87.63%)
Average number of basis functions per batch  ...    26.84 (89.45%)
Average number of large shells per batch     ...    11.01 (89.78%)
Average number of large basis fcns per batch ...    24.63 (91.77%)
Maximum spatial batch extension              ...  18.63, 25.60, 31.36 au
Average spatial batch extension              ...   4.34,  6.53,  6.42 au

Time for grid setup =    0.026 sec

------------------------------
INITIAL GUESS: MODEL POTENTIAL
------------------------------
Loading Hartree-Fock densities                     ... done
Calculating cut-offs                               ... done
Setting up the integral package                    ... done
Initializing the effective Hamiltonian             ... done
Starting the Coulomb interaction                   ... done (   0.0 sec)
Reading the grid                                   ... done
Mapping shells                                     ... done
Starting the XC term evaluation                    ... done (   0.0 sec)
  promolecular density results
     # of electrons  =     13.999268306
     EX              =    -11.743759448
     EC              =     -0.421352037
     EX+EC           =    -12.165111485
Transforming the Hamiltonian                       ... done (   0.0 sec)
Diagonalizing the Hamiltonian                      ... done (   0.0 sec)
Back transforming the eigenvectors                 ... done (   0.0 sec)
Now organizing SCF variables                       ... done
                      ------------------
                      INITIAL GUESS DONE (   0.1 sec)
                      ------------------
--------------
SCF ITERATIONS
--------------
ITER       Energy         Delta-E        Max-DP      RMS-DP      [F,P]   Gradient Norm
               ***  Starting incremental Fock matrix formation  ***
                             ****Resetting KDIIS****
                             ****Turning on KDIIS(Cayley)****
  0    -93.2157418798   0.000000000000 0.02943873  0.00245612  0.1284833   0.098720175
  1    -93.2453806696  -0.029638789804 0.05117708  0.00395348  0.0966397   0.071765546
  2    -93.2754393203  -0.030058650669 0.01965103  0.00193388  0.0402195   0.033091323
  3    -93.2811241252  -0.005684804915 0.02677939  0.00270006  0.0245006   0.019913309
  4    -93.2840905293  -0.002966404067 0.00281188  0.00029032  0.0018665   0.001491611
  5    -93.2841036920  -0.000013162724 0.00403151  0.00038826  0.0024202   0.001333349
  6    -93.2841444075  -0.000040715491 0.00174721  0.00017852  0.0007577   0.000435299
  7    -93.2841493974  -0.000004989934 0.00022906  0.00001482  0.0000336   0.000029575
                          ***Energy convergence achieved***
  8    -93.2841494063  -0.000000008878 0.00001827  0.00000132  0.0000055   0.000005865
                           ***RMSP convergence achieved***
                           ***MAXP convergence achieved***
                    *** KDIIS BlockDiag ( 0.000 sec) ***

               *****************************************************
               *                     SUCCESS                       *
               *           SCF CONVERGED AFTER   9 CYCLES          *
               *****************************************************

Setting up the final grid:

General Integration Accuracy     IntAcc      ...  4.670
Radial Grid Type                 RadialGrid  ... Gauss-Chebyshev
Angular Grid (max. acc.)         AngularGrid ... Lebedev-302
Angular grid pruning method      GridPruning ... 3 (G Style)
Weight generation scheme         WeightScheme... Becke
Basis function cutoff            BFCut       ...    1.0000e-10
Integration weight cutoff        WCut        ...    1.0000e-14
Grids for H and He will be reduced by one unit

# of grid points (after initial pruning)     ...  15818 (   0.0 sec)
# of grid points (after weights+screening)   ...  15680 (   0.0 sec)
nearest neighbour list constructed           ...    0.0 sec
Grid point re-assignment to atoms done       ...    0.0 sec
Grid point division into batches done        ...    0.1 sec
Reduced shell lists constructed in    0.1 sec

Total number of grid points                  ...    15680
Total number of batches                      ...      246
Average number of points per batch           ...       63
Average number of grid points per atom       ...     5227
Average number of shells per batch           ...    11.10 (79.29%)
Average number of basis functions per batch  ...    24.46 (81.54%)
Average number of large shells per batch     ...     9.96 (89.75%)
Average number of large basis fcns per batch ...    22.15 (90.55%)
Maximum spatial batch extension              ...  19.68, 20.64, 25.05 au
Average spatial batch extension              ...   3.26,  4.19,  4.23 au

Final grid set up in    0.1 sec
Final integration                            ... done (   0.1 sec)
Change in XC energy                          ...    -0.000322534
Integrated number of electrons               ...    14.000003468
Previous integrated no of electrons          ...    13.997938070

----------------
TOTAL SCF ENERGY
----------------

Total Energy       :          -93.28447194 Eh           -2538.39953 eV

Components:
Nuclear Repulsion  :           20.12748635 Eh             547.69675 eV
Electronic Energy  :         -113.41195829 Eh           -3086.09628 eV
One Electron Energy:         -165.22176212 Eh           -4495.91271 eV
Two Electron Energy:           51.80980383 Eh            1409.81644 eV

Virial components:
Potential Energy   :         -185.22679137 Eh           -5040.27724 eV
Kinetic Energy     :           91.94231943 Eh            2501.87770 eV
Virial Ratio       :            2.01459777


DFT components:
N(Alpha)           :        7.000001733976 electrons
N(Beta)            :        7.000001733976 electrons
N(Total)           :       14.000003467952 electrons
E(XC)              :       -8.544782569952 Eh       

---------------
SCF CONVERGENCE
---------------

  Last Energy change         ...   -4.0404e-10  Tolerance :   1.0000e-06
  Last MAX-Density change    ...    3.8965e-06  Tolerance :   1.0000e-05
  Last RMS-Density change    ...    3.2628e-07  Tolerance :   1.0000e-06
  Last DIIS Error            ...    9.7119e-07  Tolerance :   1.0000e-06

             **** THE GBW FILE WAS UPDATED (Scan_13.gbw) ****
             **** DENSITY FILE WAS UPDATED (Scan_13.scfp.tmp) ****
             **** ENERGY FILE WAS UPDATED (Scan_13.en.tmp) ****
----------------
ORBITAL ENERGIES
----------------

  NO   OCC          E(Eh)            E(eV) 
   0   2.0000     -14.523194      -395.1962 
   1   2.0000     -10.400537      -283.0130 
   2   2.0000      -0.946778       -25.7631 
   3   2.0000      -0.741643       -20.1811 
   4   2.0000      -0.493952       -13.4411 
   5   2.0000      -0.406431       -11.0596 
   6   2.0000      -0.406431       -11.0596 
   7   0.0000       0.027538         0.7494 
   8   0.0000       0.027551         0.7497 
   9   0.0000       0.148295         4.0353 
  10   0.0000       0.340388         9.2624 
  11   0.0000       0.636265        17.3137 
  12   0.0000       0.636274        17.3139 
  13   0.0000       0.678324        18.4581 
  14   0.0000       0.759653        20.6712 
  15   0.0000       0.849782        23.1237 
  16   0.0000       0.849787        23.1239 
  17   0.0000       0.886831        24.1319 
  18   0.0000       1.035793        28.1854 
  19   0.0000       1.443903        39.2906 
  20   0.0000       1.507775        41.0287 
  21   0.0000       1.507778        41.0287 
  22   0.0000       1.674832        45.5745 
  23   0.0000       1.675154        45.5833 
  24   0.0000       1.922976        52.3268 
  25   0.0000       1.922995        52.3273 
  26   0.0000       2.290108        62.3170 
  27   0.0000       2.367064        64.4111 
  28   0.0000       2.367103        64.4122 
  29   0.0000       2.870333        78.1057 

                    ********************************
                    * MULLIKEN POPULATION ANALYSIS *
                    ********************************

-----------------------
MULLIKEN ATOMIC CHARGES
-----------------------
   0 C :   -0.027888
   1 N :   -0.257840
   2 H :    0.285729
Sum of atomic charges:   -0.0000000

--------------------------------
MULLIKEN REDUCED ORBITAL CHARGES
--------------------------------
  0 C s       :     3.295457  s :     3.295457
      pz      :     0.905798  p :     2.711880
      px      :     0.900238
      py      :     0.905844
      dz2     :     0.003147  d :     0.020551
      dxz     :     0.003981
      dyz     :     0.000004
      dx2y2   :     0.009421
      dxy     :     0.003999
  1 N s       :     3.918755  s :     3.918755
      pz      :     1.082415  p :     3.313551
      px      :     1.148735
      py      :     1.082401
      dz2     :     0.002483  d :     0.025535
      dxz     :     0.007795
      dyz     :     0.000007
      dx2y2   :     0.007450
      dxy     :     0.007801
  2 H s       :     0.714271  s :     0.714271


                     *******************************
                     * LOEWDIN POPULATION ANALYSIS *
                     *******************************

----------------------
LOEWDIN ATOMIC CHARGES
----------------------
   0 C :   -0.063967
   1 N :   -0.121795
   2 H :    0.185762

-------------------------------
LOEWDIN REDUCED ORBITAL CHARGES
-------------------------------
  0 C s       :     3.130467  s :     3.130467
      pz      :     0.903528  p :     2.895418
      px      :     1.088148
      py      :     0.903743
      dz2     :     0.005891  d :     0.038082
      dxz     :     0.007255
      dyz     :     0.000006
      dx2y2   :     0.017637
      dxy     :     0.007293
  1 N s       :     3.640203  s :     3.640203
      pz      :     1.079260  p :     3.439337
      px      :     1.280704
      py      :     1.079373
      dz2     :     0.005588  d :     0.042255
      dxz     :     0.009942
      dyz     :     0.000009
      dx2y2   :     0.016741
      dxy     :     0.009975
  2 H s       :     0.814238  s :     0.814238


                      *****************************
                      * MAYER POPULATION ANALYSIS *
                      *****************************

  NA   - Mulliken gross atomic population
  ZA   - Total nuclear charge
  QA   - Mulliken gross atomic charge
  VA   - Mayer's total valence
  BVA  - Mayer's bonded valence
  FA   - Mayer's free valence

  ATOM       NA         ZA         QA         VA         BVA        FA
  0 C      6.0279     6.0000    -0.0279     3.7457     3.7457     0.0000
  1 N      7.2578     7.0000    -0.2578     2.9167     2.9167    -0.0000
  2 H      0.7143     1.0000     0.2857     0.8877     0.8877     0.0000

  Mayer bond orders larger than 0.1
B(  0-C ,  1-N ) :   2.8873 B(  0-C ,  2-H ) :   0.8584 

-------
TIMINGS
-------

Total SCF time: 0 days 0 hours 0 min 3 sec 

Total time                  ....       3.335 sec
Sum of individual times     ....       3.202 sec  ( 96.0%)

Fock matrix formation       ....       2.920 sec  ( 87.6%)
  XC integration            ....       0.615 sec  ( 21.1% of F)
    Basis function eval.    ....       0.179 sec  ( 29.1% of XC)
    Density eval.           ....       0.030 sec  (  4.8% of XC)
    XC-Functional eval.     ....       0.161 sec  ( 26.2% of XC)
    XC-Potential eval.      ....       0.025 sec  (  4.0% of XC)
Diagonalization             ....       0.005 sec  (  0.2%)
Density matrix formation    ....       0.000 sec  (  0.0%)
Population analysis         ....       0.011 sec  (  0.3%)
Initial guess               ....       0.113 sec  (  3.4%)
Orbital Transformation      ....       0.000 sec  (  0.0%)
Orbital Orthonormalization  ....       0.000 sec  (  0.0%)
DIIS solution               ....       0.000 sec  (  0.0%)
Grid generation             ....       0.153 sec  (  4.6%)


-------------------------------------------------------------------------------
                          DFT DISPERSION CORRECTION                            
                                                                               
                              DFTD3 V3.1  Rev 1                                
                              USING zero damping                               
-------------------------------------------------------------------------------
The omegaB97X-D3 functional is recognized. Fit by Chai et al.
Active option DFTDOPT                   ...         3   

molecular C6(AA) [au] = 141.182811 


            DFT-D V3
 parameters
 s6 scaling factor         :     1.0000 
 rs6 scaling factor        :     1.2810 
 s8 scaling factor         :     1.0000 
 rs8 scaling factor        :     1.0940 
 Damping factor alpha6     :    14.0000 
 Damping factor alpha8     :    16.0000 
 ad hoc parameters k1-k3   :    16.0000     1.3333    -4.0000 

 Edisp/kcal,au: -0.032686849920  -0.000052089805 
 E6   /kcal   :  -0.004799274 
 E8   /kcal   :  -0.027887576 
 % E8         :  85.317416873 

-------------------------   ----------------
Dispersion correction           -0.000052090
-------------------------   ----------------


-------------------------   --------------------
FINAL SINGLE POINT ENERGY       -93.284524030504
-------------------------   --------------------


                            ***************************************
                            *     ORCA property calculations      *
                            ***************************************

                                    ---------------------
                                    Active property flags
                                    ---------------------
   (+) Dipole Moment


------------------------------------------------------------------------------
                       ORCA ELECTRIC PROPERTIES CALCULATION
------------------------------------------------------------------------------

Dipole Moment Calculation                       ... on
Quadrupole Moment Calculation                   ... off
Polarizability Calculation                      ... off
GBWName                                         ... Scan_13.gbw
Electron density file                           ... Scan_13.scfp.tmp

-------------
DIPOLE MOMENT
-------------
                                X             Y             Z
Electronic contribution:      0.47408       0.01402       0.00000
Nuclear contribution   :     -1.63803      -0.04840       0.00000
                        -----------------------------------------
Total Dipole Moment    :     -1.16396      -0.03438       0.00000
                        -----------------------------------------
Magnitude (a.u.)       :      1.16447
Magnitude (Debye)      :      2.95984


Timings for individual modules:

Sum of individual times         ...        3.659 sec (=   0.061 min)
GTO integral calculation        ...        0.301 sec (=   0.005 min)   8.2 %
SCF iterations                  ...        3.358 sec (=   0.056 min)  91.8 %
                             ****ORCA TERMINATED NORMALLY****
TOTAL RUN TIME: 0 days 0 hours 0 minutes 4 seconds 4 msec
