
                                 *****************
                                 * O   R   C   A *
                                 *****************

           --- An Ab Initio, DFT and Semiempirical electronic structure package ---

                  #######################################################
                  #                        -***-                        #
                  #  Department of molecular theory and spectroscopy    #
                  #              Directorship: Frank Neese              #
                  # Max Planck Institute for Chemical Energy Conversion #
                  #                  D-45470 Muelheim/Ruhr              #
                  #                       Germany                       #
                  #                                                     #
                  #                  All rights reserved                #
                  #                        -***-                        #
                  #######################################################


                         Program Version 4.0.0.2 - RELEASE -


 With contributions from (in alphabetic order):
   Daniel Aravena         : Magnetic Properties
   Michael Atanasov       : Ab Initio Ligand Field Theory
   Ute Becker             : Parallelization
   Martin Brehm           : Molecular dynamics
   Dmytro Bykov           : SCF Hessian
   Vijay G. Chilkuri      : MRCI spin determinant printing
   Dipayan Datta          : RHF DLPNO-CCSD density
   Achintya Kumar Dutta   : EOM-CC, STEOM-CC
   Dmitry Ganyushin       : Spin-Orbit,Spin-Spin,Magnetic field MRCI
   Yang Guo               : DLPNO-NEVPT2, CIM, IAO-localization
   Andreas Hansen         : Spin unrestricted coupled pair/coupled cluster methods
   Lee Huntington         : MR-EOM, pCC
   Robert Izsak           : Overlap fitted RIJCOSX, COSX-SCS-MP3, EOM
   Christian Kollmar      : KDIIS, OOCD, Brueckner-CCSD(T), CCSD density
   Simone Kossmann        : Meta GGA functionals, TD-DFT gradient, OOMP2, MP2 Hessian
   Martin Krupicka        : AUTO-CI
   Dagmar Lenk            : GEPOL surface
   Dimitrios Liakos       : Extrapolation schemes; parallel MDCI
   Dimitrios Manganas     : ROCIS; embedding schemes
   Dimitrios Pantazis     : SARC Basis sets
   Taras Petrenko         : DFT Hessian,TD-DFT gradient, ASA, ECA, R-Raman, ABS, FL, XAS/XES, NRVS
   Peter Pinski           : DLPNO-MP2
   Christoph Reimann      : Effective Core Potentials
   Marius Retegan         : Local ZFS, SOC
   Christoph Riplinger    : Optimizer, TS searches, QM/MM, DLPNO-CCSD(T), (RO)-DLPNO pert. Triples
   Tobias Risthaus        : Range-separated hybrids, TD-DFT gradient, RPA, STAB
   Michael Roemelt        : Restricted open shell CIS
   Masaaki Saitow         : Open-shell DLPNO
   Barbara Sandhoefer     : DKH picture change effects
   Kantharuban Sivalingam : CASSCF convergence, NEVPT2, FIC-MRCI
   Georgi Stoychev        : AutoAux
   Boris Wezisla          : Elementary symmetry handling
   Frank Wennmohs         : Technical directorship


 We gratefully acknowledge several colleagues who have allowed us to
 interface, adapt or use parts of their codes:
   Stefan Grimme, W. Hujo, H. Kruse,             : VdW corrections, initial TS optimization,
                  C. Bannwarth                     DFT functionals, gCP, sTDA/sTD-DF
   Ed Valeev                                     : LibInt (2-el integral package), F12 methods
   Garnet Chan, S. Sharma, J. Yang, R. Olivares  : DMRG
   Ulf Ekstrom                                   : XCFun DFT Library
   Mihaly Kallay                                 : mrcc  (arbitrary order and MRCC methods)
   Jiri Pittner, Ondrej Demel                    : Mk-CCSD
   Frank Weinhold                                : gennbo (NPA and NBO analysis)
   Christopher J. Cramer and Donald G. Truhlar   : smd solvation model


 Your calculation uses the libint2 library for the computation of 2-el integrals
 For citations please refer to: http://libint.valeyev.net

 This ORCA versions uses:
   CBLAS   interface :  Fast vector & matrix operations
   LAPACKE interface :  Fast linear algebra routines
   SCALAPACK package :  Parallel linear algebra routines


Your calculation utilizes the atom-pairwise dispersion correction
with the zero-damping scheme (D30)
Cite in your paper:
S.Grimme, J.Antony, S.Ehrlich and H.Krieg, J.Chem.Phys., 132, (2010), 154104 
   

XCFun DFT library Copyright 2009-2010 Ulf Ekstrom and contributors.
See http://admol.org/xcfun for more information. This is free soft-
ware; see the source code for copying conditions. There is ABSOLUTELY
NO WARRANTY; not even for MERCHANTABILITY or FITNESS FOR A PARTICULAR
PURPOSE. For details see the documentation. Scientific users of this 
library should cite U. Ekstrom, L. Visscher, R. Bast, A. J. Thorvald-
sen and K. Ruud; J.Chem.Theor.Comp. 2010, DOI: 10.1021/ct100117s
XCFun Version 0.99 
Your calculation utilizes the basis: 6-31G(d)
   H-He, Li-Ne : W. J. Hehre, R. Ditchfield and J.A. Pople, J. Chem. Phys. 56, 2257 (1972).
                 Note: He and Ne are unpublished basis sets taken from the Gaussian program.
                 Note: Li and B from J. D. Dill and J. A. Pople, J. Chem. Phys. 62, 2921 (1975).
   Na - Ar     : M. M. Francl, W. J. Pietro, W. J. Hehre, J. S. Binkley, M. S. Gordon, 
                 D. J. DeFrees and J. A. Pople, J. Chem. Phys. 77, 3654 (1982).
   K - Zn      : V. A. Rassolov, J. A. Pople, M. A. Ratner, and T. L. Windus, J. Chem. Phys. 109, 1223 (1998).

================================================================================
                                        WARNINGS
                       Please study these warnings very carefully!
================================================================================

Warning: TCutStore was < 0. Adjusted to Thresh (uncritical)

INFO   : the flag for use of LIBINT has been found!

================================================================================
                                       INPUT FILE
================================================================================
NAME = initial15.inp
|  1> ! WB97X-D3 6-31G(d) VerySlowConv
|  2> ! KDIIS NOSOSCF
|  3> %base "Scan_15"
|  4> 
|  5> %scf
|  6> maxiter 999
|  7> end
|  8> 
|  9> * xyz 0 1
| 10> C         -3.691850272680    0.394581198802    0.000000000000
| 11> N         -2.001201067631    0.444538197294    0.000000000000
| 12> H         -4.746728659690    0.363410603904    0.000000000000
| 13> **                         ****END OF INPUT****
================================================================================

                       ****************************
                       * Single Point Calculation *
                       ****************************

---------------------------------
CARTESIAN COORDINATES (ANGSTROEM)
---------------------------------
  C     -3.691850    0.394581    0.000000
  N     -2.001201    0.444538    0.000000
  H     -4.746729    0.363411    0.000000

----------------------------
CARTESIAN COORDINATES (A.U.)
----------------------------
  NO LB      ZA    FRAG     MASS         X           Y           Z
   0 C     6.0000    0    12.011   -6.976586    0.745650    0.000000
   1 N     7.0000    0    14.007   -3.781722    0.840055    0.000000
   2 H     1.0000    0     1.008   -8.970017    0.686747    0.000000

--------------------------------
INTERNAL COORDINATES (ANGSTROEM)
--------------------------------
 C      0   0   0     0.000000000000     0.00000000     0.00000000
 N      1   0   0     1.691387133755     0.00000000     0.00000000
 H      1   2   0     1.055338816384   179.99999915     0.00000000

---------------------------
INTERNAL COORDINATES (A.U.)
---------------------------
 C      0   0   0     0.000000000000     0.00000000     0.00000000
 N      1   0   0     3.196258469235     0.00000000     0.00000000
 H      1   2   0     1.994301341463   179.99999915     0.00000000

---------------------
BASIS SET INFORMATION
---------------------
There are 3 groups of distinct atoms

 Group   1 Type C   : 10s4p1d contracted to 3s2p1d pattern {631/31/1}
 Group   2 Type N   : 10s4p1d contracted to 3s2p1d pattern {631/31/1}
 Group   3 Type H   : 4s contracted to 2s pattern {31}

Atom   0C    basis set group =>   1
Atom   1N    basis set group =>   2
Atom   2H    basis set group =>   3
------------------------------------------------------------------------------
                           ORCA GTO INTEGRAL CALCULATION
------------------------------------------------------------------------------

                         BASIS SET STATISTICS AND STARTUP INFO

 # of primitive gaussian shells          ...   34
 # of primitive gaussian functions       ...   58
 # of contracted shells                  ...   14
 # of contracted basis functions         ...   30
 Highest angular momentum                ...    2
 Maximum contraction depth               ...    6
 Integral package used                   ... LIBINT
 Integral threshhold            Thresh   ...  1.000e-10
 Primitive cut-off              TCut     ...  1.000e-11


------------------------------ INTEGRAL EVALUATION ----------------------------


 * One electron integrals 
 Pre-screening matrix                    ... done
 Shell pair data                         ... done (   0.000 sec)

-------------------------------------------------------------------------------
                                 ORCA SCF
-------------------------------------------------------------------------------

------------
SCF SETTINGS
------------
Hamiltonian:
 Density Functional     Method          .... DFT(GTOs)
 Exchange Functional    Exchange        .... WB97X-D3
 Correlation Functional Correlation     .... WB97X-D3
 Gradients option       PostSCFGGA      .... off
 Hybrid DFT is turned on
   Fraction HF Exchange ScalHFX         ....  0.195728
   Scaling of DF-GGA-X  ScalDFX         ....  0.000000
   Scaling of DF-GGA-C  ScalDFC         ....  1.000000
   Scaling of DF-LDA-C  ScalLDAC        ....  1.000000
   Perturbative correction              ....  0.000000
 Long-range corrected/Screened/Range-Separated Hybrid DFT is turned on
   Amount of maximum screened exact exchange              ....  0.804272
   Range separation parameter mu (erf(mu*r12)/r12)        ....  0.250000


General Settings:
 Integral files         IntName         .... Scan_15
 Hartree-Fock type      HFTyp           .... RHF
 Total Charge           Charge          ....    0
 Multiplicity           Mult            ....    1
 Number of Electrons    NEL             ....   14
 Basis Dimension        Dim             ....   30
 Nuclear Repulsion      ENuc            ....     17.4975386266 Eh

Convergence Acceleration:
 DIIS                   CNVDIIS         .... on
   Start iteration      DIISMaxIt       ....     0
   Startup error        DIISStart       ....  0.200000
   # of expansion vecs  DIISMaxEq       ....     5
   Bias factor          DIISBfac        ....   1.050
   Max. coefficient     DIISMaxC        ....  10.000
 Newton-Raphson         CNVNR           .... off
 SOSCF                  CNVSOSCF        .... off
 Level Shifting         CNVShift        .... off
 Zerner damping         CNVZerner       .... off
 Static damping         CNVDamp         .... off
 Fernandez-Rico         CNVRico         .... off

SCF Procedure:
 Maximum # iterations   MaxIter         ....   999
 SCF integral mode      SCFMode         .... Direct
   Integral package                     .... LIBINT
 Reset frequeny         DirectResetFreq ....    20
 Integral Threshold     Thresh          ....  1.000e-10 Eh
 Primitive CutOff       TCut            ....  1.000e-11 Eh

Convergence Tolerance:
 Convergence Check Mode ConvCheckMode   .... All-Criteria
 Convergence forced     ConvForced      .... 0
 Energy Change          TolE            ....  1.000e-06 Eh
 Max Density Change     TolMaxP         ....  1.000e-05
 RMS Density Change     TolRMSP         ....  1.000e-06
 DIIS Error             TolErr          ....  1.000e-06


Diagonalization of the overlap matrix:
Smallest eigenvalue                        ... 1.823e-02
Time for diagonalization                   ...    0.001 sec
Threshold for overlap eigenvalues          ... 1.000e-08
Number of eigenvalues below threshold      ... 0
Time for construction of square roots      ...    0.005 sec
Total time needed                          ...    0.006 sec

-------------------
DFT GRID GENERATION
-------------------

General Integration Accuracy     IntAcc      ...  4.340
Radial Grid Type                 RadialGrid  ... Gauss-Chebyshev
Angular Grid (max. acc.)         AngularGrid ... Lebedev-110
Angular grid pruning method      GridPruning ... 3 (G Style)
Weight generation scheme         WeightScheme... Becke
Basis function cutoff            BFCut       ...    1.0000e-10
Integration weight cutoff        WCut        ...    1.0000e-14
Grids for H and He will be reduced by one unit

# of grid points (after initial pruning)     ...   4152 (   0.0 sec)
# of grid points (after weights+screening)   ...   4106 (   0.0 sec)
nearest neighbour list constructed           ...    0.0 sec
Grid point re-assignment to atoms done       ...    0.0 sec
Grid point division into batches done        ...    0.0 sec
Reduced shell lists constructed in    0.0 sec

Total number of grid points                  ...     4106
Total number of batches                      ...       66
Average number of points per batch           ...       62
Average number of grid points per atom       ...     1369
Average number of shells per batch           ...    12.04 (86.03%)
Average number of basis functions per batch  ...    26.55 (88.51%)
Average number of large shells per batch     ...    10.67 (88.60%)
Average number of large basis fcns per batch ...    23.93 (90.11%)
Maximum spatial batch extension              ...  18.14, 25.60, 31.36 au
Average spatial batch extension              ...   4.36,  6.86,  6.60 au

Time for grid setup =    0.026 sec

------------------------------
INITIAL GUESS: MODEL POTENTIAL
------------------------------
Loading Hartree-Fock densities                     ... done
Calculating cut-offs                               ... done
Setting up the integral package                    ... done
Initializing the effective Hamiltonian             ... done
Starting the Coulomb interaction                   ... done (   0.0 sec)
Reading the grid                                   ... done
Mapping shells                                     ... done
Starting the XC term evaluation                    ... done (   0.0 sec)
  promolecular density results
     # of electrons  =     13.998823445
     EX              =    -11.684574509
     EC              =     -0.411130953
     EX+EC           =    -12.095705462
Transforming the Hamiltonian                       ... done (   0.0 sec)
Diagonalizing the Hamiltonian                      ... done (   0.0 sec)
Back transforming the eigenvectors                 ... done (   0.0 sec)
Now organizing SCF variables                       ... done
                      ------------------
                      INITIAL GUESS DONE (   0.1 sec)
                      ------------------
--------------
SCF ITERATIONS
--------------
ITER       Energy         Delta-E        Max-DP      RMS-DP      [F,P]   Gradient Norm
               ***  Starting incremental Fock matrix formation  ***
                             ****Resetting KDIIS****
                             ****Turning on KDIIS(Cayley)****
  0    -93.0156666584   0.000000000000 0.03054256  0.00255900  0.1641317   0.124388019
  1    -93.0592164350  -0.043549776628 0.04781238  0.00548142  0.1298356   0.093859329
  2    -93.1122412830  -0.053024847954 0.07567582  0.00639724  0.0589805   0.039490721
  3    -93.1217674368  -0.009526153868 0.03919317  0.00320826  0.0337077   0.028841040
  4    -93.1261648597  -0.004397422876 0.00829039  0.00070657  0.0097323   0.005843855
  5    -93.1264694332  -0.000304573482 0.00284972  0.00034776  0.0068179   0.003703928
  6    -93.1266224491  -0.000153015915 0.00824612  0.00084991  0.0045757   0.002463091
  7    -93.1267769162  -0.000154467134 0.00179736  0.00015662  0.0005239   0.000293088
  8    -93.1267797558  -0.000002839520 0.00016432  0.00001557  0.0000492   0.000054559
                          ***Energy convergence achieved***
  9    -93.1267797901  -0.000000034303 0.00005138  0.00000413  0.0000165   0.000012115
                           ***RMSP convergence achieved***

            ***Energy convergence in two consecutive cycles with***
                    ***'reasonable' density convergence***
                       *** signaling convergence ***

                    *** KDIIS BlockDiag ( 0.000 sec) ***

               *****************************************************
               *                     SUCCESS                       *
               *           SCF CONVERGED AFTER  10 CYCLES          *
               *****************************************************

Setting up the final grid:

General Integration Accuracy     IntAcc      ...  4.670
Radial Grid Type                 RadialGrid  ... Gauss-Chebyshev
Angular Grid (max. acc.)         AngularGrid ... Lebedev-302
Angular grid pruning method      GridPruning ... 3 (G Style)
Weight generation scheme         WeightScheme... Becke
Basis function cutoff            BFCut       ...    1.0000e-10
Integration weight cutoff        WCut        ...    1.0000e-14
Grids for H and He will be reduced by one unit

# of grid points (after initial pruning)     ...  15818 (   0.0 sec)
# of grid points (after weights+screening)   ...  15691 (   0.0 sec)
nearest neighbour list constructed           ...    0.0 sec
Grid point re-assignment to atoms done       ...    0.0 sec
Grid point division into batches done        ...    0.1 sec
Reduced shell lists constructed in    0.1 sec

Total number of grid points                  ...    15691
Total number of batches                      ...      247
Average number of points per batch           ...       63
Average number of grid points per atom       ...     5230
Average number of shells per batch           ...    10.88 (77.74%)
Average number of basis functions per batch  ...    24.09 (80.31%)
Average number of large shells per batch     ...     9.58 (88.03%)
Average number of large basis fcns per batch ...    21.29 (88.37%)
Maximum spatial batch extension              ...  19.81, 20.64, 25.05 au
Average spatial batch extension              ...   3.26,  4.20,  4.22 au

Final grid set up in    0.1 sec
Final integration                            ... done (   0.1 sec)
Change in XC energy                          ...    -0.000432684
Integrated number of electrons               ...    14.000000248
Previous integrated no of electrons          ...    13.997812832

----------------
TOTAL SCF ENERGY
----------------

Total Energy       :          -93.12721248 Eh           -2534.12028 eV

Components:
Nuclear Repulsion  :           17.49753863 Eh             476.13223 eV
Electronic Energy  :         -110.62475110 Eh           -3010.25252 eV
One Electron Energy:         -159.80808326 Eh           -4348.59902 eV
Two Electron Energy:           49.18333215 Eh            1338.34651 eV

Virial components:
Potential Energy   :         -184.85972329 Eh           -5030.28881 eV
Kinetic Energy     :           91.73251082 Eh            2496.16852 eV
Virial Ratio       :            2.01520401


DFT components:
N(Alpha)           :        7.000000123872 electrons
N(Beta)            :        7.000000123872 electrons
N(Total)           :       14.000000247745 electrons
E(XC)              :       -8.451751106153 Eh       

---------------
SCF CONVERGENCE
---------------

  Last Energy change         ...   -1.7803e-09  Tolerance :   1.0000e-06
  Last MAX-Density change    ...    1.1596e-05  Tolerance :   1.0000e-05
  Last RMS-Density change    ...    9.6936e-07  Tolerance :   1.0000e-06
  Last DIIS Error            ...    2.4556e-06  Tolerance :   1.0000e-06

             **** THE GBW FILE WAS UPDATED (Scan_15.gbw) ****
             **** DENSITY FILE WAS UPDATED (Scan_15.scfp.tmp) ****
             **** ENERGY FILE WAS UPDATED (Scan_15.en.tmp) ****
----------------
ORBITAL ENERGIES
----------------

  NO   OCC          E(Eh)            E(eV) 
   0   2.0000     -14.554037      -396.0355 
   1   2.0000     -10.435973      -283.9773 
   2   2.0000      -0.884972       -24.0813 
   3   2.0000      -0.761049       -20.7092 
   4   2.0000      -0.488341       -13.2884 
   5   2.0000      -0.371721       -10.1150 
   6   2.0000      -0.371720       -10.1150 
   7   0.0000      -0.027293        -0.7427 
   8   0.0000      -0.027282        -0.7424 
   9   0.0000       0.074891         2.0379 
  10   0.0000       0.271459         7.3868 
  11   0.0000       0.633529        17.2392 
  12   0.0000       0.633532        17.2393 
  13   0.0000       0.675102        18.3705 
  14   0.0000       0.760609        20.6972 
  15   0.0000       0.831334        22.6217 
  16   0.0000       0.831334        22.6218 
  17   0.0000       0.911181        24.7945 
  18   0.0000       0.972894        26.4738 
  19   0.0000       1.338619        36.4257 
  20   0.0000       1.547155        42.1002 
  21   0.0000       1.547188        42.1011 
  22   0.0000       1.724226        46.9186 
  23   0.0000       1.725025        46.9403 
  24   0.0000       1.857979        50.5582 
  25   0.0000       1.858498        50.5723 
  26   0.0000       1.929727        52.5105 
  27   0.0000       2.115623        57.5690 
  28   0.0000       2.115638        57.5694 
  29   0.0000       2.766152        75.2708 

                    ********************************
                    * MULLIKEN POPULATION ANALYSIS *
                    ********************************

-----------------------
MULLIKEN ATOMIC CHARGES
-----------------------
   0 C :   -0.094044
   1 N :   -0.191770
   2 H :    0.285814
Sum of atomic charges:   -0.0000000

--------------------------------
MULLIKEN REDUCED ORBITAL CHARGES
--------------------------------
  0 C s       :     3.452995  s :     3.452995
      pz      :     0.840275  p :     2.629204
      px      :     0.948371
      py      :     0.840559
      dz2     :     0.002461  d :     0.011844
      dxz     :     0.001001
      dyz     :     0.000001
      dx2y2   :     0.007358
      dxy     :     0.001023
  1 N s       :     3.960195  s :     3.960195
      pz      :     1.155521  p :     3.217864
      px      :     0.907251
      py      :     1.155092
      dz2     :     0.001827  d :     0.013711
      dxz     :     0.003199
      dyz     :     0.000003
      dx2y2   :     0.005472
      dxy     :     0.003210
  2 H s       :     0.714186  s :     0.714186


                     *******************************
                     * LOEWDIN POPULATION ANALYSIS *
                     *******************************

----------------------
LOEWDIN ATOMIC CHARGES
----------------------
   0 C :   -0.041064
   1 N :   -0.145226
   2 H :    0.186290

-------------------------------
LOEWDIN REDUCED ORBITAL CHARGES
-------------------------------
  0 C s       :     3.266823  s :     3.266823
      pz      :     0.840995  p :     2.754537
      px      :     1.072159
      py      :     0.841384
      dz2     :     0.003847  d :     0.019704
      dxz     :     0.002159
      dyz     :     0.000002
      dx2y2   :     0.011505
      dxy     :     0.002192
  1 N s       :     3.801536  s :     3.801536
      pz      :     1.152994  p :     3.321540
      px      :     1.015876
      py      :     1.152671
      dz2     :     0.003612  d :     0.022150
      dxz     :     0.003848
      dyz     :     0.000003
      dx2y2   :     0.010812
      dxy     :     0.003876
  2 H s       :     0.813710  s :     0.813710


                      *****************************
                      * MAYER POPULATION ANALYSIS *
                      *****************************

  NA   - Mulliken gross atomic population
  ZA   - Total nuclear charge
  QA   - Mulliken gross atomic charge
  VA   - Mayer's total valence
  BVA  - Mayer's bonded valence
  FA   - Mayer's free valence

  ATOM       NA         ZA         QA         VA         BVA        FA
  0 C      6.0940     6.0000    -0.0940     3.6812     3.6812     0.0000
  1 N      7.1918     7.0000    -0.1918     2.8899     2.8899    -0.0000
  2 H      0.7142     1.0000     0.2858     0.8859     0.8859    -0.0000

  Mayer bond orders larger than 0.1
B(  0-C ,  1-N ) :   2.8426 B(  0-C ,  2-H ) :   0.8386 

-------
TIMINGS
-------

Total SCF time: 0 days 0 hours 0 min 3 sec 

Total time                  ....       3.647 sec
Sum of individual times     ....       3.502 sec  ( 96.0%)

Fock matrix formation       ....       3.207 sec  ( 87.9%)
  XC integration            ....       0.675 sec  ( 21.1% of F)
    Basis function eval.    ....       0.187 sec  ( 27.7% of XC)
    Density eval.           ....       0.031 sec  (  4.6% of XC)
    XC-Functional eval.     ....       0.174 sec  ( 25.8% of XC)
    XC-Potential eval.      ....       0.025 sec  (  3.7% of XC)
Diagonalization             ....       0.016 sec  (  0.5%)
Density matrix formation    ....       0.000 sec  (  0.0%)
Population analysis         ....       0.010 sec  (  0.3%)
Initial guess               ....       0.114 sec  (  3.1%)
Orbital Transformation      ....       0.000 sec  (  0.0%)
Orbital Orthonormalization  ....       0.000 sec  (  0.0%)
DIIS solution               ....       0.000 sec  (  0.0%)
Grid generation             ....       0.155 sec  (  4.2%)


-------------------------------------------------------------------------------
                          DFT DISPERSION CORRECTION                            
                                                                               
                              DFTD3 V3.1  Rev 1                                
                              USING zero damping                               
-------------------------------------------------------------------------------
The omegaB97X-D3 functional is recognized. Fit by Chai et al.
Active option DFTDOPT                   ...         3   

molecular C6(AA) [au] = 141.817684 


            DFT-D V3
 parameters
 s6 scaling factor         :     1.0000 
 rs6 scaling factor        :     1.2810 
 s8 scaling factor         :     1.0000 
 rs8 scaling factor        :     1.0940 
 Damping factor alpha6     :    14.0000 
 Damping factor alpha8     :    16.0000 
 ad hoc parameters k1-k3   :    16.0000     1.3333    -4.0000 

 Edisp/kcal,au: -0.059669385580  -0.000095089209 
 E6   /kcal   :  -0.010732686 
 E8   /kcal   :  -0.048936700 
 % E8         :  82.013077634 

-------------------------   ----------------
Dispersion correction           -0.000095089
-------------------------   ----------------


-------------------------   --------------------
FINAL SINGLE POINT ENERGY       -93.127307564869
-------------------------   --------------------


                            ***************************************
                            *     ORCA property calculations      *
                            ***************************************

                                    ---------------------
                                    Active property flags
                                    ---------------------
   (+) Dipole Moment


------------------------------------------------------------------------------
                       ORCA ELECTRIC PROPERTIES CALCULATION
------------------------------------------------------------------------------

Dipole Moment Calculation                       ... on
Quadrupole Moment Calculation                   ... off
Polarizability Calculation                      ... off
GBWName                                         ... Scan_15.gbw
Electron density file                           ... Scan_15.scfp.tmp

-------------
DIPOLE MOMENT
-------------
                                X             Y             Z
Electronic contribution:      0.61349       0.01823       0.00000
Nuclear contribution   :     -1.77010      -0.05230       0.00000
                        -----------------------------------------
Total Dipole Moment    :     -1.15662      -0.03407       0.00000
                        -----------------------------------------
Magnitude (a.u.)       :      1.15712
Magnitude (Debye)      :      2.94116


Timings for individual modules:

Sum of individual times         ...        3.975 sec (=   0.066 min)
GTO integral calculation        ...        0.303 sec (=   0.005 min)   7.6 %
SCF iterations                  ...        3.672 sec (=   0.061 min)  92.4 %
                             ****ORCA TERMINATED NORMALLY****
TOTAL RUN TIME: 0 days 0 hours 0 minutes 4 seconds 303 msec
