
                                 *****************
                                 * O   R   C   A *
                                 *****************

           --- An Ab Initio, DFT and Semiempirical electronic structure package ---

                  #######################################################
                  #                        -***-                        #
                  #  Department of molecular theory and spectroscopy    #
                  #              Directorship: Frank Neese              #
                  # Max Planck Institute for Chemical Energy Conversion #
                  #                  D-45470 Muelheim/Ruhr              #
                  #                       Germany                       #
                  #                                                     #
                  #                  All rights reserved                #
                  #                        -***-                        #
                  #######################################################


                         Program Version 4.0.0.2 - RELEASE -


 With contributions from (in alphabetic order):
   Daniel Aravena         : Magnetic Properties
   Michael Atanasov       : Ab Initio Ligand Field Theory
   Ute Becker             : Parallelization
   Martin Brehm           : Molecular dynamics
   Dmytro Bykov           : SCF Hessian
   Vijay G. Chilkuri      : MRCI spin determinant printing
   Dipayan Datta          : RHF DLPNO-CCSD density
   Achintya Kumar Dutta   : EOM-CC, STEOM-CC
   Dmitry Ganyushin       : Spin-Orbit,Spin-Spin,Magnetic field MRCI
   Yang Guo               : DLPNO-NEVPT2, CIM, IAO-localization
   Andreas Hansen         : Spin unrestricted coupled pair/coupled cluster methods
   Lee Huntington         : MR-EOM, pCC
   Robert Izsak           : Overlap fitted RIJCOSX, COSX-SCS-MP3, EOM
   Christian Kollmar      : KDIIS, OOCD, Brueckner-CCSD(T), CCSD density
   Simone Kossmann        : Meta GGA functionals, TD-DFT gradient, OOMP2, MP2 Hessian
   Martin Krupicka        : AUTO-CI
   Dagmar Lenk            : GEPOL surface
   Dimitrios Liakos       : Extrapolation schemes; parallel MDCI
   Dimitrios Manganas     : ROCIS; embedding schemes
   Dimitrios Pantazis     : SARC Basis sets
   Taras Petrenko         : DFT Hessian,TD-DFT gradient, ASA, ECA, R-Raman, ABS, FL, XAS/XES, NRVS
   Peter Pinski           : DLPNO-MP2
   Christoph Reimann      : Effective Core Potentials
   Marius Retegan         : Local ZFS, SOC
   Christoph Riplinger    : Optimizer, TS searches, QM/MM, DLPNO-CCSD(T), (RO)-DLPNO pert. Triples
   Tobias Risthaus        : Range-separated hybrids, TD-DFT gradient, RPA, STAB
   Michael Roemelt        : Restricted open shell CIS
   Masaaki Saitow         : Open-shell DLPNO
   Barbara Sandhoefer     : DKH picture change effects
   Kantharuban Sivalingam : CASSCF convergence, NEVPT2, FIC-MRCI
   Georgi Stoychev        : AutoAux
   Boris Wezisla          : Elementary symmetry handling
   Frank Wennmohs         : Technical directorship


 We gratefully acknowledge several colleagues who have allowed us to
 interface, adapt or use parts of their codes:
   Stefan Grimme, W. Hujo, H. Kruse,             : VdW corrections, initial TS optimization,
                  C. Bannwarth                     DFT functionals, gCP, sTDA/sTD-DF
   Ed Valeev                                     : LibInt (2-el integral package), F12 methods
   Garnet Chan, S. Sharma, J. Yang, R. Olivares  : DMRG
   Ulf Ekstrom                                   : XCFun DFT Library
   Mihaly Kallay                                 : mrcc  (arbitrary order and MRCC methods)
   Jiri Pittner, Ondrej Demel                    : Mk-CCSD
   Frank Weinhold                                : gennbo (NPA and NBO analysis)
   Christopher J. Cramer and Donald G. Truhlar   : smd solvation model


 Your calculation uses the libint2 library for the computation of 2-el integrals
 For citations please refer to: http://libint.valeyev.net

 This ORCA versions uses:
   CBLAS   interface :  Fast vector & matrix operations
   LAPACKE interface :  Fast linear algebra routines
   SCALAPACK package :  Parallel linear algebra routines


Your calculation utilizes the atom-pairwise dispersion correction
with the zero-damping scheme (D30)
Cite in your paper:
S.Grimme, J.Antony, S.Ehrlich and H.Krieg, J.Chem.Phys., 132, (2010), 154104 
   

XCFun DFT library Copyright 2009-2010 Ulf Ekstrom and contributors.
See http://admol.org/xcfun for more information. This is free soft-
ware; see the source code for copying conditions. There is ABSOLUTELY
NO WARRANTY; not even for MERCHANTABILITY or FITNESS FOR A PARTICULAR
PURPOSE. For details see the documentation. Scientific users of this 
library should cite U. Ekstrom, L. Visscher, R. Bast, A. J. Thorvald-
sen and K. Ruud; J.Chem.Theor.Comp. 2010, DOI: 10.1021/ct100117s
XCFun Version 0.99 
Your calculation utilizes the basis: 6-31G(d)
   H-He, Li-Ne : W. J. Hehre, R. Ditchfield and J.A. Pople, J. Chem. Phys. 56, 2257 (1972).
                 Note: He and Ne are unpublished basis sets taken from the Gaussian program.
                 Note: Li and B from J. D. Dill and J. A. Pople, J. Chem. Phys. 62, 2921 (1975).
   Na - Ar     : M. M. Francl, W. J. Pietro, W. J. Hehre, J. S. Binkley, M. S. Gordon, 
                 D. J. DeFrees and J. A. Pople, J. Chem. Phys. 77, 3654 (1982).
   K - Zn      : V. A. Rassolov, J. A. Pople, M. A. Ratner, and T. L. Windus, J. Chem. Phys. 109, 1223 (1998).

================================================================================
                                        WARNINGS
                       Please study these warnings very carefully!
================================================================================

Warning: TCutStore was < 0. Adjusted to Thresh (uncritical)

INFO   : the flag for use of LIBINT has been found!

================================================================================
                                       INPUT FILE
================================================================================
NAME = initial16.inp
|  1> ! WB97X-D3 6-31G(d) VerySlowConv
|  2> ! KDIIS NOSOSCF
|  3> %base "Scan_16"
|  4> 
|  5> %scf
|  6> maxiter 999
|  7> end
|  8> 
|  9> * xyz 0 1
| 10> C         -3.744082264352    0.393037793394    0.000000000000
| 11> N         -1.891758125330    0.447772126374    0.000000000000
| 12> H         -4.803939610318    0.361720080232   -0.000000000000
| 13> **                         ****END OF INPUT****
================================================================================

                       ****************************
                       * Single Point Calculation *
                       ****************************

---------------------------------
CARTESIAN COORDINATES (ANGSTROEM)
---------------------------------
  C     -3.744082    0.393038    0.000000
  N     -1.891758    0.447772    0.000000
  H     -4.803940    0.361720   -0.000000

----------------------------
CARTESIAN COORDINATES (A.U.)
----------------------------
  NO LB      ZA    FRAG     MASS         X           Y           Z
   0 C     6.0000    0    12.011   -7.075290    0.742734    0.000000
   1 N     7.0000    0    14.007   -3.574905    0.846167    0.000000
   2 H     1.0000    0     1.008   -9.078130    0.683552   -0.000000

--------------------------------
INTERNAL COORDINATES (ANGSTROEM)
--------------------------------
 C      0   0   0     0.000000000000     0.00000000     0.00000000
 N      1   0   0     1.853132635083     0.00000000     0.00000000
 H      1   2   0     1.060319948391   179.99999852     0.00000000

---------------------------
INTERNAL COORDINATES (A.U.)
---------------------------
 C      0   0   0     0.000000000000     0.00000000     0.00000000
 N      1   0   0     3.501913170139     0.00000000     0.00000000
 H      1   2   0     2.003714316792   179.99999852     0.00000000

---------------------
BASIS SET INFORMATION
---------------------
There are 3 groups of distinct atoms

 Group   1 Type C   : 10s4p1d contracted to 3s2p1d pattern {631/31/1}
 Group   2 Type N   : 10s4p1d contracted to 3s2p1d pattern {631/31/1}
 Group   3 Type H   : 4s contracted to 2s pattern {31}

Atom   0C    basis set group =>   1
Atom   1N    basis set group =>   2
Atom   2H    basis set group =>   3
------------------------------------------------------------------------------
                           ORCA GTO INTEGRAL CALCULATION
------------------------------------------------------------------------------

                         BASIS SET STATISTICS AND STARTUP INFO

 # of primitive gaussian shells          ...   34
 # of primitive gaussian functions       ...   58
 # of contracted shells                  ...   14
 # of contracted basis functions         ...   30
 Highest angular momentum                ...    2
 Maximum contraction depth               ...    6
 Integral package used                   ... LIBINT
 Integral threshhold            Thresh   ...  1.000e-10
 Primitive cut-off              TCut     ...  1.000e-11


------------------------------ INTEGRAL EVALUATION ----------------------------


 * One electron integrals 
 Pre-screening matrix                    ... done
 Shell pair data                         ... done (   0.000 sec)

-------------------------------------------------------------------------------
                                 ORCA SCF
-------------------------------------------------------------------------------

------------
SCF SETTINGS
------------
Hamiltonian:
 Density Functional     Method          .... DFT(GTOs)
 Exchange Functional    Exchange        .... WB97X-D3
 Correlation Functional Correlation     .... WB97X-D3
 Gradients option       PostSCFGGA      .... off
 Hybrid DFT is turned on
   Fraction HF Exchange ScalHFX         ....  0.195728
   Scaling of DF-GGA-X  ScalDFX         ....  0.000000
   Scaling of DF-GGA-C  ScalDFC         ....  1.000000
   Scaling of DF-LDA-C  ScalLDAC        ....  1.000000
   Perturbative correction              ....  0.000000
 Long-range corrected/Screened/Range-Separated Hybrid DFT is turned on
   Amount of maximum screened exact exchange              ....  0.804272
   Range separation parameter mu (erf(mu*r12)/r12)        ....  0.250000


General Settings:
 Integral files         IntName         .... Scan_16
 Hartree-Fock type      HFTyp           .... RHF
 Total Charge           Charge          ....    0
 Multiplicity           Mult            ....    1
 Number of Electrons    NEL             ....   14
 Basis Dimension        Dim             ....   30
 Nuclear Repulsion      ENuc            ....     16.2593093712 Eh

Convergence Acceleration:
 DIIS                   CNVDIIS         .... on
   Start iteration      DIISMaxIt       ....     0
   Startup error        DIISStart       ....  0.200000
   # of expansion vecs  DIISMaxEq       ....     5
   Bias factor          DIISBfac        ....   1.050
   Max. coefficient     DIISMaxC        ....  10.000
 Newton-Raphson         CNVNR           .... off
 SOSCF                  CNVSOSCF        .... off
 Level Shifting         CNVShift        .... off
 Zerner damping         CNVZerner       .... off
 Static damping         CNVDamp         .... off
 Fernandez-Rico         CNVRico         .... off

SCF Procedure:
 Maximum # iterations   MaxIter         ....   999
 SCF integral mode      SCFMode         .... Direct
   Integral package                     .... LIBINT
 Reset frequeny         DirectResetFreq ....    20
 Integral Threshold     Thresh          ....  1.000e-10 Eh
 Primitive CutOff       TCut            ....  1.000e-11 Eh

Convergence Tolerance:
 Convergence Check Mode ConvCheckMode   .... All-Criteria
 Convergence forced     ConvForced      .... 0
 Energy Change          TolE            ....  1.000e-06 Eh
 Max Density Change     TolMaxP         ....  1.000e-05
 RMS Density Change     TolRMSP         ....  1.000e-06
 DIIS Error             TolErr          ....  1.000e-06


Diagonalization of the overlap matrix:
Smallest eigenvalue                        ... 2.423e-02
Time for diagonalization                   ...    0.001 sec
Threshold for overlap eigenvalues          ... 1.000e-08
Number of eigenvalues below threshold      ... 0
Time for construction of square roots      ...    0.006 sec
Total time needed                          ...    0.006 sec

-------------------
DFT GRID GENERATION
-------------------

General Integration Accuracy     IntAcc      ...  4.340
Radial Grid Type                 RadialGrid  ... Gauss-Chebyshev
Angular Grid (max. acc.)         AngularGrid ... Lebedev-110
Angular grid pruning method      GridPruning ... 3 (G Style)
Weight generation scheme         WeightScheme... Becke
Basis function cutoff            BFCut       ...    1.0000e-10
Integration weight cutoff        WCut        ...    1.0000e-14
Grids for H and He will be reduced by one unit

# of grid points (after initial pruning)     ...   4152 (   0.0 sec)
# of grid points (after weights+screening)   ...   4106 (   0.0 sec)
nearest neighbour list constructed           ...    0.0 sec
Grid point re-assignment to atoms done       ...    0.0 sec
Grid point division into batches done        ...    0.0 sec
Reduced shell lists constructed in    0.0 sec

Total number of grid points                  ...     4106
Total number of batches                      ...       65
Average number of points per batch           ...       63
Average number of grid points per atom       ...     1369
Average number of shells per batch           ...    12.03 (85.93%)
Average number of basis functions per batch  ...    26.58 (88.59%)
Average number of large shells per batch     ...    10.44 (86.78%)
Average number of large basis fcns per batch ...    23.11 (86.94%)
Maximum spatial batch extension              ...  18.09, 25.60, 31.36 au
Average spatial batch extension              ...   4.34,  6.96,  6.62 au

Time for grid setup =    0.026 sec

------------------------------
INITIAL GUESS: MODEL POTENTIAL
------------------------------
Loading Hartree-Fock densities                     ... done
Calculating cut-offs                               ... done
Setting up the integral package                    ... done
Initializing the effective Hamiltonian             ... done
Starting the Coulomb interaction                   ... done (   0.0 sec)
Reading the grid                                   ... done
Mapping shells                                     ... done
Starting the XC term evaluation                    ... done (   0.0 sec)
  promolecular density results
     # of electrons  =     13.998589378
     EX              =    -11.662211647
     EC              =     -0.406001328
     EX+EC           =    -12.068212975
Transforming the Hamiltonian                       ... done (   0.0 sec)
Diagonalizing the Hamiltonian                      ... done (   0.0 sec)
Back transforming the eigenvectors                 ... done (   0.0 sec)
Now organizing SCF variables                       ... done
                      ------------------
                      INITIAL GUESS DONE (   0.2 sec)
                      ------------------
--------------
SCF ITERATIONS
--------------
ITER       Energy         Delta-E        Max-DP      RMS-DP      [F,P]   Gradient Norm
               ***  Starting incremental Fock matrix formation  ***
                             ****Resetting KDIIS****
                             ****Turning on KDIIS(Cayley)****
  0    -92.8810697089   0.000000000000 0.03270536  0.00265962  0.1972314   0.148035371
  1    -92.9358087994  -0.054739090494 0.04760332  0.00505015  0.1579427   0.117206427
  2    -93.0112029821  -0.075394182679 0.08945839  0.00877789  0.0894541   0.061339890
  3    -93.0375874412  -0.026384459086 0.03922067  0.00354117  0.0397014   0.032014768
  4    -93.0432588780  -0.005671436836 0.01134873  0.00080959  0.0109656   0.006300406
  5    -93.0433920435  -0.000133165502 0.00872968  0.00089564  0.0106656   0.006048645
  6    -93.0436015544  -0.000209510831 0.00683320  0.00079538  0.0086877   0.005295786
  7    -93.0439221152  -0.000320560774 0.00489722  0.00059061  0.0045699   0.002782528
  8    -93.0440120750  -0.000089959822 0.00068020  0.00006572  0.0001458   0.000109461
                          ***Energy convergence achieved***
  9    -93.0440123762  -0.000000301189 0.00010837  0.00000785  0.0000221   0.000021504

            ***Energy convergence in two consecutive cycles with***
                    ***'reasonable' density convergence***
                       *** signaling convergence ***

                    *** KDIIS BlockDiag ( 0.000 sec) ***

               *****************************************************
               *                     SUCCESS                       *
               *           SCF CONVERGED AFTER  10 CYCLES          *
               *****************************************************

Setting up the final grid:

General Integration Accuracy     IntAcc      ...  4.670
Radial Grid Type                 RadialGrid  ... Gauss-Chebyshev
Angular Grid (max. acc.)         AngularGrid ... Lebedev-302
Angular grid pruning method      GridPruning ... 3 (G Style)
Weight generation scheme         WeightScheme... Becke
Basis function cutoff            BFCut       ...    1.0000e-10
Integration weight cutoff        WCut        ...    1.0000e-14
Grids for H and He will be reduced by one unit

# of grid points (after initial pruning)     ...  15818 (   0.0 sec)
# of grid points (after weights+screening)   ...  15701 (   0.0 sec)
nearest neighbour list constructed           ...    0.0 sec
Grid point re-assignment to atoms done       ...    0.0 sec
Grid point division into batches done        ...    0.1 sec
Reduced shell lists constructed in    0.1 sec

Total number of grid points                  ...    15701
Total number of batches                      ...      247
Average number of points per batch           ...       63
Average number of grid points per atom       ...     5234
Average number of shells per batch           ...    10.73 (76.61%)
Average number of basis functions per batch  ...    23.68 (78.92%)
Average number of large shells per batch     ...     9.45 (88.08%)
Average number of large basis fcns per batch ...    20.87 (88.13%)
Maximum spatial batch extension              ...  20.12, 20.64, 20.64 au
Average spatial batch extension              ...   3.29,  4.25,  4.26 au

Final grid set up in    0.1 sec
Final integration                            ... done (   0.1 sec)
Change in XC energy                          ...    -0.000413485
Integrated number of electrons               ...    14.000001821
Previous integrated no of electrons          ...    13.997818934

----------------
TOTAL SCF ENERGY
----------------

Total Energy       :          -93.04442587 Eh           -2531.86755 eV

Components:
Nuclear Repulsion  :           16.25930937 Eh             442.43830 eV
Electronic Energy  :         -109.30373524 Eh           -2974.30585 eV
One Electron Energy:         -157.26805910 Eh           -4279.48145 eV
Two Electron Energy:           47.96432386 Eh            1305.17561 eV

Virial components:
Potential Energy   :         -184.77784173 Eh           -5028.06070 eV
Kinetic Energy     :           91.73341587 Eh            2496.19315 eV
Virial Ratio       :            2.01429152


DFT components:
N(Alpha)           :        7.000000910718 electrons
N(Beta)            :        7.000000910718 electrons
N(Total)           :       14.000001821435 electrons
E(XC)              :       -8.421537371652 Eh       

---------------
SCF CONVERGENCE
---------------

  Last Energy change         ...   -7.2490e-09  Tolerance :   1.0000e-06
  Last MAX-Density change    ...    1.5652e-05  Tolerance :   1.0000e-05
  Last RMS-Density change    ...    1.2374e-06  Tolerance :   1.0000e-06
  Last DIIS Error            ...    3.8929e-06  Tolerance :   1.0000e-06

             **** THE GBW FILE WAS UPDATED (Scan_16.gbw) ****
             **** DENSITY FILE WAS UPDATED (Scan_16.scfp.tmp) ****
             **** ENERGY FILE WAS UPDATED (Scan_16.en.tmp) ****
----------------
ORBITAL ENERGIES
----------------

  NO   OCC          E(Eh)            E(eV) 
   0   2.0000     -14.560070      -396.1997 
   1   2.0000     -10.448198      -284.3099 
   2   2.0000      -0.859548       -23.3895 
   3   2.0000      -0.769710       -20.9449 
   4   2.0000      -0.477982       -13.0066 
   5   2.0000      -0.355122        -9.6634 
   6   2.0000      -0.355119        -9.6633 
   7   0.0000      -0.049254        -1.3403 
   8   0.0000      -0.049243        -1.3400 
   9   0.0000       0.028656         0.7798 
  10   0.0000       0.248959         6.7745 
  11   0.0000       0.627416        17.0728 
  12   0.0000       0.627417        17.0729 
  13   0.0000       0.689838        18.7714 
  14   0.0000       0.761354        20.7175 
  15   0.0000       0.825819        22.4717 
  16   0.0000       0.825828        22.4719 
  17   0.0000       0.919837        25.0300 
  18   0.0000       0.951694        25.8969 
  19   0.0000       1.294588        35.2275 
  20   0.0000       1.607153        43.7328 
  21   0.0000       1.607209        43.7344 
  22   0.0000       1.735165        47.2162 
  23   0.0000       1.736153        47.2431 
  24   0.0000       1.831188        49.8291 
  25   0.0000       1.845143        50.2089 
  26   0.0000       1.845798        50.2267 
  27   0.0000       2.000608        54.4393 
  28   0.0000       2.000618        54.4396 
  29   0.0000       2.636347        71.7386 

                    ********************************
                    * MULLIKEN POPULATION ANALYSIS *
                    ********************************

-----------------------
MULLIKEN ATOMIC CHARGES
-----------------------
   0 C :   -0.120807
   1 N :   -0.157414
   2 H :    0.278222
Sum of atomic charges:   -0.0000000

--------------------------------
MULLIKEN REDUCED ORBITAL CHARGES
--------------------------------
  0 C s       :     3.552330  s :     3.552330
      pz      :     0.778463  p :     2.558937
      px      :     1.001518
      py      :     0.778956
      dz2     :     0.002269  d :     0.009540
      dxz     :     0.000233
      dyz     :     0.000000
      dx2y2   :     0.006783
      dxy     :     0.000255
  1 N s       :     3.972610  s :     3.972610
      pz      :     1.219642  p :     3.176216
      px      :     0.737677
      py      :     1.218897
      dz2     :     0.001316  d :     0.008588
      dxz     :     0.001660
      dyz     :     0.000001
      dx2y2   :     0.003940
      dxy     :     0.001670
  2 H s       :     0.721778  s :     0.721778


                     *******************************
                     * LOEWDIN POPULATION ANALYSIS *
                     *******************************

----------------------
LOEWDIN ATOMIC CHARGES
----------------------
   0 C :   -0.034868
   1 N :   -0.146691
   2 H :    0.181559

-------------------------------
LOEWDIN REDUCED ORBITAL CHARGES
-------------------------------
  0 C s       :     3.360260  s :     3.360260
      pz      :     0.779817  p :     2.659133
      px      :     1.098924
      py      :     0.780391
      dz2     :     0.003428  d :     0.015475
      dxz     :     0.000882
      dyz     :     0.000001
      dx2y2   :     0.010250
      dxy     :     0.000914
  1 N s       :     3.870844  s :     3.870844
      pz      :     1.217324  p :     3.262101
      px      :     0.828108
      py      :     1.216668
      dz2     :     0.002448  d :     0.013746
      dxz     :     0.001974
      dyz     :     0.000002
      dx2y2   :     0.007326
      dxy     :     0.001996
  2 H s       :     0.818441  s :     0.818441


                      *****************************
                      * MAYER POPULATION ANALYSIS *
                      *****************************

  NA   - Mulliken gross atomic population
  ZA   - Total nuclear charge
  QA   - Mulliken gross atomic charge
  VA   - Mayer's total valence
  BVA  - Mayer's bonded valence
  FA   - Mayer's free valence

  ATOM       NA         ZA         QA         VA         BVA        FA
  0 C      6.1208     6.0000    -0.1208     3.5708     3.5708     0.0000
  1 N      7.1574     7.0000    -0.1574     2.7935     2.7935    -0.0000
  2 H      0.7218     1.0000     0.2782     0.8857     0.8857    -0.0000

  Mayer bond orders larger than 0.1
B(  0-C ,  1-N ) :   2.7392 B(  0-C ,  2-H ) :   0.8315 

-------
TIMINGS
-------

Total SCF time: 0 days 0 hours 0 min 4 sec 

Total time                  ....       4.454 sec
Sum of individual times     ....       4.306 sec  ( 96.7%)

Fock matrix formation       ....       3.989 sec  ( 89.6%)
  XC integration            ....       0.695 sec  ( 17.4% of F)
    Basis function eval.    ....       0.190 sec  ( 27.4% of XC)
    Density eval.           ....       0.033 sec  (  4.7% of XC)
    XC-Functional eval.     ....       0.180 sec  ( 25.9% of XC)
    XC-Potential eval.      ....       0.025 sec  (  3.6% of XC)
Diagonalization             ....       0.016 sec  (  0.4%)
Density matrix formation    ....       0.000 sec  (  0.0%)
Population analysis         ....       0.012 sec  (  0.3%)
Initial guess               ....       0.134 sec  (  3.0%)
Orbital Transformation      ....       0.000 sec  (  0.0%)
Orbital Orthonormalization  ....       0.000 sec  (  0.0%)
DIIS solution               ....       0.000 sec  (  0.0%)
Grid generation             ....       0.155 sec  (  3.5%)


-------------------------------------------------------------------------------
                          DFT DISPERSION CORRECTION                            
                                                                               
                              DFTD3 V3.1  Rev 1                                
                              USING zero damping                               
-------------------------------------------------------------------------------
The omegaB97X-D3 functional is recognized. Fit by Chai et al.
Active option DFTDOPT                   ...         3   

molecular C6(AA) [au] = 146.802331 


            DFT-D V3
 parameters
 s6 scaling factor         :     1.0000 
 rs6 scaling factor        :     1.2810 
 s8 scaling factor         :     1.0000 
 rs8 scaling factor        :     1.0940 
 Damping factor alpha6     :    14.0000 
 Damping factor alpha8     :    16.0000 
 ad hoc parameters k1-k3   :    16.0000     1.3333    -4.0000 

 Edisp/kcal,au: -0.071315831942  -0.000113649000 
 E6   /kcal   :  -0.016591069 
 E8   /kcal   :  -0.054724763 
 % E8         :  76.735784124 

-------------------------   ----------------
Dispersion correction           -0.000113649
-------------------------   ----------------


-------------------------   --------------------
FINAL SINGLE POINT ENERGY       -93.044539517031
-------------------------   --------------------


                            ***************************************
                            *     ORCA property calculations      *
                            ***************************************

                                    ---------------------
                                    Active property flags
                                    ---------------------
   (+) Dipole Moment


------------------------------------------------------------------------------
                       ORCA ELECTRIC PROPERTIES CALCULATION
------------------------------------------------------------------------------

Dipole Moment Calculation                       ... on
Quadrupole Moment Calculation                   ... off
Polarizability Calculation                      ... off
GBWName                                         ... Scan_16.gbw
Electron density file                           ... Scan_16.scfp.tmp

-------------
DIPOLE MOMENT
-------------
                                X             Y             Z
Electronic contribution:      0.68731       0.02042      -0.00000
Nuclear contribution   :     -1.85278      -0.05475       0.00000
                        -----------------------------------------
Total Dipole Moment    :     -1.16547      -0.03432      -0.00000
                        -----------------------------------------
Magnitude (a.u.)       :      1.16598
Magnitude (Debye)      :      2.96368


Timings for individual modules:

Sum of individual times         ...        4.885 sec (=   0.081 min)
GTO integral calculation        ...        0.407 sec (=   0.007 min)   8.3 %
SCF iterations                  ...        4.479 sec (=   0.075 min)  91.7 %
                             ****ORCA TERMINATED NORMALLY****
TOTAL RUN TIME: 0 days 0 hours 0 minutes 5 seconds 291 msec
