
                                 *****************
                                 * O   R   C   A *
                                 *****************

           --- An Ab Initio, DFT and Semiempirical electronic structure package ---

                  #######################################################
                  #                        -***-                        #
                  #  Department of molecular theory and spectroscopy    #
                  #              Directorship: Frank Neese              #
                  # Max Planck Institute for Chemical Energy Conversion #
                  #                  D-45470 Muelheim/Ruhr              #
                  #                       Germany                       #
                  #                                                     #
                  #                  All rights reserved                #
                  #                        -***-                        #
                  #######################################################


                         Program Version 4.0.0.2 - RELEASE -


 With contributions from (in alphabetic order):
   Daniel Aravena         : Magnetic Properties
   Michael Atanasov       : Ab Initio Ligand Field Theory
   Ute Becker             : Parallelization
   Martin Brehm           : Molecular dynamics
   Dmytro Bykov           : SCF Hessian
   Vijay G. Chilkuri      : MRCI spin determinant printing
   Dipayan Datta          : RHF DLPNO-CCSD density
   Achintya Kumar Dutta   : EOM-CC, STEOM-CC
   Dmitry Ganyushin       : Spin-Orbit,Spin-Spin,Magnetic field MRCI
   Yang Guo               : DLPNO-NEVPT2, CIM, IAO-localization
   Andreas Hansen         : Spin unrestricted coupled pair/coupled cluster methods
   Lee Huntington         : MR-EOM, pCC
   Robert Izsak           : Overlap fitted RIJCOSX, COSX-SCS-MP3, EOM
   Christian Kollmar      : KDIIS, OOCD, Brueckner-CCSD(T), CCSD density
   Simone Kossmann        : Meta GGA functionals, TD-DFT gradient, OOMP2, MP2 Hessian
   Martin Krupicka        : AUTO-CI
   Dagmar Lenk            : GEPOL surface
   Dimitrios Liakos       : Extrapolation schemes; parallel MDCI
   Dimitrios Manganas     : ROCIS; embedding schemes
   Dimitrios Pantazis     : SARC Basis sets
   Taras Petrenko         : DFT Hessian,TD-DFT gradient, ASA, ECA, R-Raman, ABS, FL, XAS/XES, NRVS
   Peter Pinski           : DLPNO-MP2
   Christoph Reimann      : Effective Core Potentials
   Marius Retegan         : Local ZFS, SOC
   Christoph Riplinger    : Optimizer, TS searches, QM/MM, DLPNO-CCSD(T), (RO)-DLPNO pert. Triples
   Tobias Risthaus        : Range-separated hybrids, TD-DFT gradient, RPA, STAB
   Michael Roemelt        : Restricted open shell CIS
   Masaaki Saitow         : Open-shell DLPNO
   Barbara Sandhoefer     : DKH picture change effects
   Kantharuban Sivalingam : CASSCF convergence, NEVPT2, FIC-MRCI
   Georgi Stoychev        : AutoAux
   Boris Wezisla          : Elementary symmetry handling
   Frank Wennmohs         : Technical directorship


 We gratefully acknowledge several colleagues who have allowed us to
 interface, adapt or use parts of their codes:
   Stefan Grimme, W. Hujo, H. Kruse,             : VdW corrections, initial TS optimization,
                  C. Bannwarth                     DFT functionals, gCP, sTDA/sTD-DF
   Ed Valeev                                     : LibInt (2-el integral package), F12 methods
   Garnet Chan, S. Sharma, J. Yang, R. Olivares  : DMRG
   Ulf Ekstrom                                   : XCFun DFT Library
   Mihaly Kallay                                 : mrcc  (arbitrary order and MRCC methods)
   Jiri Pittner, Ondrej Demel                    : Mk-CCSD
   Frank Weinhold                                : gennbo (NPA and NBO analysis)
   Christopher J. Cramer and Donald G. Truhlar   : smd solvation model


 Your calculation uses the libint2 library for the computation of 2-el integrals
 For citations please refer to: http://libint.valeyev.net

 This ORCA versions uses:
   CBLAS   interface :  Fast vector & matrix operations
   LAPACKE interface :  Fast linear algebra routines
   SCALAPACK package :  Parallel linear algebra routines


Your calculation utilizes the atom-pairwise dispersion correction
with the zero-damping scheme (D30)
Cite in your paper:
S.Grimme, J.Antony, S.Ehrlich and H.Krieg, J.Chem.Phys., 132, (2010), 154104 
   

XCFun DFT library Copyright 2009-2010 Ulf Ekstrom and contributors.
See http://admol.org/xcfun for more information. This is free soft-
ware; see the source code for copying conditions. There is ABSOLUTELY
NO WARRANTY; not even for MERCHANTABILITY or FITNESS FOR A PARTICULAR
PURPOSE. For details see the documentation. Scientific users of this 
library should cite U. Ekstrom, L. Visscher, R. Bast, A. J. Thorvald-
sen and K. Ruud; J.Chem.Theor.Comp. 2010, DOI: 10.1021/ct100117s
XCFun Version 0.99 
Your calculation utilizes the basis: 6-31G(d)
   H-He, Li-Ne : W. J. Hehre, R. Ditchfield and J.A. Pople, J. Chem. Phys. 56, 2257 (1972).
                 Note: He and Ne are unpublished basis sets taken from the Gaussian program.
                 Note: Li and B from J. D. Dill and J. A. Pople, J. Chem. Phys. 62, 2921 (1975).
   Na - Ar     : M. M. Francl, W. J. Pietro, W. J. Hehre, J. S. Binkley, M. S. Gordon, 
                 D. J. DeFrees and J. A. Pople, J. Chem. Phys. 77, 3654 (1982).
   K - Zn      : V. A. Rassolov, J. A. Pople, M. A. Ratner, and T. L. Windus, J. Chem. Phys. 109, 1223 (1998).

================================================================================
                                        WARNINGS
                       Please study these warnings very carefully!
================================================================================

Warning: TCutStore was < 0. Adjusted to Thresh (uncritical)

INFO   : the flag for use of LIBINT has been found!

================================================================================
                                       INPUT FILE
================================================================================
NAME = initial17.inp
|  1> ! WB97X-D3 6-31G(d) VerySlowConv
|  2> ! KDIIS NOSOSCF
|  3> %base "Scan_17"
|  4> 
|  5> %scf
|  6> maxiter 999
|  7> end
|  8> 
|  9> * xyz 0 1
| 10> C         -3.791960374882    0.391623036509    0.000000000000
| 11> N         -1.790368273464    0.450768092139    0.000000000000
| 12> H         -4.857451351654    0.360138871352   -0.000000000000
| 13> **                         ****END OF INPUT****
================================================================================

                       ****************************
                       * Single Point Calculation *
                       ****************************

---------------------------------
CARTESIAN COORDINATES (ANGSTROEM)
---------------------------------
  C     -3.791960    0.391623    0.000000
  N     -1.790368    0.450768    0.000000
  H     -4.857451    0.360139   -0.000000

----------------------------
CARTESIAN COORDINATES (A.U.)
----------------------------
  NO LB      ZA    FRAG     MASS         X           Y           Z
   0 C     6.0000    0    12.011   -7.165767    0.740060    0.000000
   1 N     7.0000    0    14.007   -3.383306    0.851828    0.000000
   2 H     1.0000    0     1.008   -9.179253    0.680564   -0.000000

--------------------------------
INTERNAL COORDINATES (ANGSTROEM)
--------------------------------
 C      0   0   0     0.000000000000     0.00000000     0.00000000
 N      1   0   0     2.002465749536     0.00000000     0.00000000
 H      1   2   0     1.065956037667   179.99999829     0.00000000

---------------------------
INTERNAL COORDINATES (A.U.)
---------------------------
 C      0   0   0     0.000000000000     0.00000000     0.00000000
 N      1   0   0     3.784111859180     0.00000000     0.00000000
 H      1   2   0     2.014364981990   179.99999829     0.00000000

---------------------
BASIS SET INFORMATION
---------------------
There are 3 groups of distinct atoms

 Group   1 Type C   : 10s4p1d contracted to 3s2p1d pattern {631/31/1}
 Group   2 Type N   : 10s4p1d contracted to 3s2p1d pattern {631/31/1}
 Group   3 Type H   : 4s contracted to 2s pattern {31}

Atom   0C    basis set group =>   1
Atom   1N    basis set group =>   2
Atom   2H    basis set group =>   3
------------------------------------------------------------------------------
                           ORCA GTO INTEGRAL CALCULATION
------------------------------------------------------------------------------

                         BASIS SET STATISTICS AND STARTUP INFO

 # of primitive gaussian shells          ...   34
 # of primitive gaussian functions       ...   58
 # of contracted shells                  ...   14
 # of contracted basis functions         ...   30
 Highest angular momentum                ...    2
 Maximum contraction depth               ...    6
 Integral package used                   ... LIBINT
 Integral threshhold            Thresh   ...  1.000e-10
 Primitive cut-off              TCut     ...  1.000e-11


------------------------------ INTEGRAL EVALUATION ----------------------------


 * One electron integrals 
 Pre-screening matrix                    ... done
 Shell pair data                         ... done (   0.000 sec)

-------------------------------------------------------------------------------
                                 ORCA SCF
-------------------------------------------------------------------------------

------------
SCF SETTINGS
------------
Hamiltonian:
 Density Functional     Method          .... DFT(GTOs)
 Exchange Functional    Exchange        .... WB97X-D3
 Correlation Functional Correlation     .... WB97X-D3
 Gradients option       PostSCFGGA      .... off
 Hybrid DFT is turned on
   Fraction HF Exchange ScalHFX         ....  0.195728
   Scaling of DF-GGA-X  ScalDFX         ....  0.000000
   Scaling of DF-GGA-C  ScalDFC         ....  1.000000
   Scaling of DF-LDA-C  ScalLDAC        ....  1.000000
   Perturbative correction              ....  0.000000
 Long-range corrected/Screened/Range-Separated Hybrid DFT is turned on
   Amount of maximum screened exact exchange              ....  0.804272
   Range separation parameter mu (erf(mu*r12)/r12)        ....  0.250000


General Settings:
 Integral files         IntName         .... Scan_17
 Hartree-Fock type      HFTyp           .... RHF
 Total Charge           Charge          ....    0
 Multiplicity           Mult            ....    1
 Number of Electrons    NEL             ....   14
 Basis Dimension        Dim             ....   30
 Nuclear Repulsion      ENuc            ....     15.2848574211 Eh

Convergence Acceleration:
 DIIS                   CNVDIIS         .... on
   Start iteration      DIISMaxIt       ....     0
   Startup error        DIISStart       ....  0.200000
   # of expansion vecs  DIISMaxEq       ....     5
   Bias factor          DIISBfac        ....   1.050
   Max. coefficient     DIISMaxC        ....  10.000
 Newton-Raphson         CNVNR           .... off
 SOSCF                  CNVSOSCF        .... off
 Level Shifting         CNVShift        .... off
 Zerner damping         CNVZerner       .... off
 Static damping         CNVDamp         .... off
 Fernandez-Rico         CNVRico         .... off

SCF Procedure:
 Maximum # iterations   MaxIter         ....   999
 SCF integral mode      SCFMode         .... Direct
   Integral package                     .... LIBINT
 Reset frequeny         DirectResetFreq ....    20
 Integral Threshold     Thresh          ....  1.000e-10 Eh
 Primitive CutOff       TCut            ....  1.000e-11 Eh

Convergence Tolerance:
 Convergence Check Mode ConvCheckMode   .... All-Criteria
 Convergence forced     ConvForced      .... 0
 Energy Change          TolE            ....  1.000e-06 Eh
 Max Density Change     TolMaxP         ....  1.000e-05
 RMS Density Change     TolRMSP         ....  1.000e-06
 DIIS Error             TolErr          ....  1.000e-06


Diagonalization of the overlap matrix:
Smallest eigenvalue                        ... 2.900e-02
Time for diagonalization                   ...    0.001 sec
Threshold for overlap eigenvalues          ... 1.000e-08
Number of eigenvalues below threshold      ... 0
Time for construction of square roots      ...    0.005 sec
Total time needed                          ...    0.006 sec

-------------------
DFT GRID GENERATION
-------------------

General Integration Accuracy     IntAcc      ...  4.340
Radial Grid Type                 RadialGrid  ... Gauss-Chebyshev
Angular Grid (max. acc.)         AngularGrid ... Lebedev-110
Angular grid pruning method      GridPruning ... 3 (G Style)
Weight generation scheme         WeightScheme... Becke
Basis function cutoff            BFCut       ...    1.0000e-10
Integration weight cutoff        WCut        ...    1.0000e-14
Grids for H and He will be reduced by one unit

# of grid points (after initial pruning)     ...   4152 (   0.0 sec)
# of grid points (after weights+screening)   ...   4108 (   0.0 sec)
nearest neighbour list constructed           ...    0.0 sec
Grid point re-assignment to atoms done       ...    0.0 sec
Grid point division into batches done        ...    0.0 sec
Reduced shell lists constructed in    0.0 sec

Total number of grid points                  ...     4108
Total number of batches                      ...       65
Average number of points per batch           ...       63
Average number of grid points per atom       ...     1369
Average number of shells per batch           ...    11.88 (84.85%)
Average number of basis functions per batch  ...    26.39 (87.98%)
Average number of large shells per batch     ...    10.44 (87.88%)
Average number of large basis fcns per batch ...    23.08 (87.43%)
Maximum spatial batch extension              ...  18.37, 25.65, 31.36 au
Average spatial batch extension              ...   4.52,  6.98,  6.84 au

Time for grid setup =    0.027 sec

------------------------------
INITIAL GUESS: MODEL POTENTIAL
------------------------------
Loading Hartree-Fock densities                     ... done
Calculating cut-offs                               ... done
Setting up the integral package                    ... done
Initializing the effective Hamiltonian             ... done
Starting the Coulomb interaction                   ... done (   0.0 sec)
Reading the grid                                   ... done
Mapping shells                                     ... done
Starting the XC term evaluation                    ... done (   0.0 sec)
  promolecular density results
     # of electrons  =     13.998359627
     EX              =    -11.647722921
     EC              =     -0.402054357
     EX+EC           =    -12.049777278
Transforming the Hamiltonian                       ... done (   0.0 sec)
Diagonalizing the Hamiltonian                      ... done (   0.0 sec)
Back transforming the eigenvectors                 ... done (   0.0 sec)
Now organizing SCF variables                       ... done
                      ------------------
                      INITIAL GUESS DONE (   0.2 sec)
                      ------------------
--------------
SCF ITERATIONS
--------------
ITER       Energy         Delta-E        Max-DP      RMS-DP      [F,P]   Gradient Norm
               ***  Starting incremental Fock matrix formation  ***
                             ****Resetting KDIIS****
                             ****Turning on KDIIS(Cayley)****
  0    -92.7528644586   0.000000000000 0.03692049  0.00290315  0.2465113   0.170387437
  1    -92.8188304515  -0.065965992970 0.04756067  0.00486558  0.2046102   0.139756616
  2    -92.9168632845  -0.098032832937 0.08362427  0.00954997  0.1209574   0.085252528
  3    -92.9757184524  -0.058855167939 0.06462453  0.00634279  0.0264520   0.026835294
  4    -92.9640972872   0.011621165213 0.00464322  0.00040101  0.0580628   0.036356716
  5    -92.9642614017  -0.000164114486 0.08639789  0.00936084  0.0577340   0.036356161
  6    -92.9689565233  -0.004695121587 0.13931315  0.01012035  0.0536861   0.028749503
  7    -92.9805696989  -0.011613175622 0.01761601  0.00190600  0.0112270   0.006798214
  8    -92.9812070866  -0.000637387751 0.00243673  0.00023658  0.0023674   0.001539685
  9    -92.9812352357  -0.000028149038 0.00072365  0.00008067  0.0003449   0.000217424
                          ***Energy convergence achieved***
 10    -92.9812362216  -0.000000985889 0.00010860  0.00001116  0.0000325   0.000030068

            ***Energy convergence in two consecutive cycles with***
                    ***'reasonable' density convergence***
                       *** signaling convergence ***

                    *** KDIIS BlockDiag ( 0.000 sec) ***

               *****************************************************
               *                     SUCCESS                       *
               *           SCF CONVERGED AFTER  11 CYCLES          *
               *****************************************************

Setting up the final grid:

General Integration Accuracy     IntAcc      ...  4.670
Radial Grid Type                 RadialGrid  ... Gauss-Chebyshev
Angular Grid (max. acc.)         AngularGrid ... Lebedev-302
Angular grid pruning method      GridPruning ... 3 (G Style)
Weight generation scheme         WeightScheme... Becke
Basis function cutoff            BFCut       ...    1.0000e-10
Integration weight cutoff        WCut        ...    1.0000e-14
Grids for H and He will be reduced by one unit

# of grid points (after initial pruning)     ...  15818 (   0.0 sec)
# of grid points (after weights+screening)   ...  15703 (   0.0 sec)
nearest neighbour list constructed           ...    0.0 sec
Grid point re-assignment to atoms done       ...    0.0 sec
Grid point division into batches done        ...    0.1 sec
Reduced shell lists constructed in    0.1 sec

Total number of grid points                  ...    15703
Total number of batches                      ...      246
Average number of points per batch           ...       63
Average number of grid points per atom       ...     5234
Average number of shells per batch           ...    10.55 (75.39%)
Average number of basis functions per batch  ...    23.36 (77.88%)
Average number of large shells per batch     ...     9.36 (88.72%)
Average number of large basis fcns per batch ...    20.67 (88.46%)
Maximum spatial batch extension              ...  20.40, 20.64, 20.64 au
Average spatial batch extension              ...   3.31,  4.26,  4.28 au

Final grid set up in    0.1 sec
Final integration                            ... done (   0.1 sec)
Change in XC energy                          ...    -0.000359677
Integrated number of electrons               ...    13.999999774
Previous integrated no of electrons          ...    13.997807351

----------------
TOTAL SCF ENERGY
----------------

Total Energy       :          -92.98159591 Eh           -2530.15786 eV

Components:
Nuclear Repulsion  :           15.28485742 Eh             415.92212 eV
Electronic Energy  :         -108.26645334 Eh           -2946.07997 eV
One Electron Energy:         -155.28871877 Eh           -4225.62086 eV
Two Electron Energy:           47.02226544 Eh            1279.54089 eV

Virial components:
Potential Energy   :         -184.77416733 Eh           -5027.96071 eV
Kinetic Energy     :           91.79257141 Eh            2497.80285 eV
Virial Ratio       :            2.01295338


DFT components:
N(Alpha)           :        6.999999886957 electrons
N(Beta)            :        6.999999886957 electrons
N(Total)           :       13.999999773914 electrons
E(XC)              :       -8.408951222412 Eh       

---------------
SCF CONVERGENCE
---------------

  Last Energy change         ...   -1.5830e-08  Tolerance :   1.0000e-06
  Last MAX-Density change    ...    2.0121e-05  Tolerance :   1.0000e-05
  Last RMS-Density change    ...    1.9374e-06  Tolerance :   1.0000e-06
  Last DIIS Error            ...    1.0445e-05  Tolerance :   1.0000e-06

             **** THE GBW FILE WAS UPDATED (Scan_17.gbw) ****
             **** DENSITY FILE WAS UPDATED (Scan_17.scfp.tmp) ****
             **** ENERGY FILE WAS UPDATED (Scan_17.en.tmp) ****
----------------
ORBITAL ENERGIES
----------------

  NO   OCC          E(Eh)            E(eV) 
   0   2.0000     -14.558548      -396.1582 
   1   2.0000     -10.454663      -284.4858 
   2   2.0000      -0.841179       -22.8896 
   3   2.0000      -0.775616       -21.1056 
   4   2.0000      -0.467331       -12.7167 
   5   2.0000      -0.341824        -9.3015 
   6   2.0000      -0.341821        -9.3014 
   7   0.0000      -0.063933        -1.7397 
   8   0.0000      -0.063920        -1.7394 
   9   0.0000      -0.002775        -0.0755 
  10   0.0000       0.235447         6.4068 
  11   0.0000       0.621263        16.9054 
  12   0.0000       0.621266        16.9055 
  13   0.0000       0.698470        19.0063 
  14   0.0000       0.763954        20.7883 
  15   0.0000       0.824746        22.4425 
  16   0.0000       0.824756        22.4428 
  17   0.0000       0.893012        24.3001 
  18   0.0000       0.956123        26.0174 
  19   0.0000       1.263837        34.3908 
  20   0.0000       1.657888        45.1134 
  21   0.0000       1.657952        45.1152 
  22   0.0000       1.736528        47.2533 
  23   0.0000       1.737521        47.2803 
  24   0.0000       1.826280        49.6956 
  25   0.0000       1.845279        50.2126 
  26   0.0000       1.845668        50.2232 
  27   0.0000       1.925033        52.3828 
  28   0.0000       1.925068        52.3838 
  29   0.0000       2.495463        67.9050 

                    ********************************
                    * MULLIKEN POPULATION ANALYSIS *
                    ********************************

-----------------------
MULLIKEN ATOMIC CHARGES
-----------------------
   0 C :   -0.128879
   1 N :   -0.135167
   2 H :    0.264046
Sum of atomic charges:   -0.0000000

--------------------------------
MULLIKEN REDUCED ORBITAL CHARGES
--------------------------------
  0 C s       :     3.649193  s :     3.649193
      pz      :     0.703446  p :     2.470256
      px      :     1.062711
      py      :     0.704098
      dz2     :     0.002386  d :     0.009430
      dxz     :    -0.000055
      dyz     :    -0.000000
      dx2y2   :     0.007129
      dxy     :    -0.000030
  1 N s       :     3.981135  s :     3.981135
      pz      :     1.295771  p :     3.148935
      px      :     0.558396
      py      :     1.294768
      dz2     :     0.000856  d :     0.005096
      dxz     :     0.000836
      dyz     :     0.000001
      dx2y2   :     0.002559
      dxy     :     0.000844
  2 H s       :     0.735954  s :     0.735954


                     *******************************
                     * LOEWDIN POPULATION ANALYSIS *
                     *******************************

----------------------
LOEWDIN ATOMIC CHARGES
----------------------
   0 C :   -0.028123
   1 N :   -0.144240
   2 H :    0.172363

-------------------------------
LOEWDIN REDUCED ORBITAL CHARGES
-------------------------------
  0 C s       :     3.453992  s :     3.453992
      pz      :     0.704934  p :     2.559185
      px      :     1.148593
      py      :     0.705657
      dz2     :     0.003570  d :     0.014946
      dxz     :     0.000335
      dyz     :     0.000000
      dx2y2   :     0.010671
      dxy     :     0.000370
  1 N s       :     3.916865  s :     3.916865
      pz      :     1.293733  p :     3.219090
      px      :     0.632556
      py      :     1.292801
      dz2     :     0.001572  d :     0.008285
      dxz     :     0.000998
      dyz     :     0.000001
      dx2y2   :     0.004702
      dxy     :     0.001013
  2 H s       :     0.827637  s :     0.827637


                      *****************************
                      * MAYER POPULATION ANALYSIS *
                      *****************************

  NA   - Mulliken gross atomic population
  ZA   - Total nuclear charge
  QA   - Mulliken gross atomic charge
  VA   - Mayer's total valence
  BVA  - Mayer's bonded valence
  FA   - Mayer's free valence

  ATOM       NA         ZA         QA         VA         BVA        FA
  0 C      6.1289     6.0000    -0.1289     3.3777     3.3777     0.0000
  1 N      7.1352     7.0000    -0.1352     2.5998     2.5998     0.0000
  2 H      0.7360     1.0000     0.2640     0.8862     0.8862     0.0000

  Mayer bond orders larger than 0.1
B(  0-C ,  1-N ) :   2.5457 B(  0-C ,  2-H ) :   0.8320 

-------
TIMINGS
-------

Total SCF time: 0 days 0 hours 0 min 4 sec 

Total time                  ....       4.809 sec
Sum of individual times     ....       4.649 sec  ( 96.7%)

Fock matrix formation       ....       4.330 sec  ( 90.0%)
  XC integration            ....       0.757 sec  ( 17.5% of F)
    Basis function eval.    ....       0.200 sec  ( 26.4% of XC)
    Density eval.           ....       0.035 sec  (  4.7% of XC)
    XC-Functional eval.     ....       0.199 sec  ( 26.3% of XC)
    XC-Potential eval.      ....       0.028 sec  (  3.6% of XC)
Diagonalization             ....       0.017 sec  (  0.3%)
Density matrix formation    ....       0.000 sec  (  0.0%)
Population analysis         ....       0.011 sec  (  0.2%)
Initial guess               ....       0.134 sec  (  2.8%)
Orbital Transformation      ....       0.000 sec  (  0.0%)
Orbital Orthonormalization  ....       0.000 sec  (  0.0%)
DIIS solution               ....       0.000 sec  (  0.0%)
Grid generation             ....       0.157 sec  (  3.3%)


-------------------------------------------------------------------------------
                          DFT DISPERSION CORRECTION                            
                                                                               
                              DFTD3 V3.1  Rev 1                                
                              USING zero damping                               
-------------------------------------------------------------------------------
The omegaB97X-D3 functional is recognized. Fit by Chai et al.
Active option DFTDOPT                   ...         3   

molecular C6(AA) [au] = 166.221883 


            DFT-D V3
 parameters
 s6 scaling factor         :     1.0000 
 rs6 scaling factor        :     1.2810 
 s8 scaling factor         :     1.0000 
 rs8 scaling factor        :     1.0940 
 Damping factor alpha6     :    14.0000 
 Damping factor alpha8     :    16.0000 
 ad hoc parameters k1-k3   :    16.0000     1.3333    -4.0000 

 Edisp/kcal,au: -0.077269888909  -0.000123137393 
 E6   /kcal   :  -0.023987219 
 E8   /kcal   :  -0.053282670 
 % E8         :  68.956576426 

-------------------------   ----------------
Dispersion correction           -0.000123137
-------------------------   ----------------


-------------------------   --------------------
FINAL SINGLE POINT ENERGY       -92.981719051369
-------------------------   --------------------


                            ***************************************
                            *     ORCA property calculations      *
                            ***************************************

                                    ---------------------
                                    Active property flags
                                    ---------------------
   (+) Dipole Moment


------------------------------------------------------------------------------
                       ORCA ELECTRIC PROPERTIES CALCULATION
------------------------------------------------------------------------------

Dipole Moment Calculation                       ... on
Quadrupole Moment Calculation                   ... off
Polarizability Calculation                      ... off
GBWName                                         ... Scan_17.gbw
Electron density file                           ... Scan_17.scfp.tmp

-------------
DIPOLE MOMENT
-------------
                                X             Y             Z
Electronic contribution:      0.74068       0.02201      -0.00000
Nuclear contribution   :     -1.93005      -0.05703       0.00000
                        -----------------------------------------
Total Dipole Moment    :     -1.18937      -0.03502      -0.00000
                        -----------------------------------------
Magnitude (a.u.)       :      1.18989
Magnitude (Debye)      :      3.02446


Timings for individual modules:

Sum of individual times         ...        5.243 sec (=   0.087 min)
GTO integral calculation        ...        0.410 sec (=   0.007 min)   7.8 %
SCF iterations                  ...        4.833 sec (=   0.081 min)  92.2 %
                             ****ORCA TERMINATED NORMALLY****
TOTAL RUN TIME: 0 days 0 hours 0 minutes 5 seconds 647 msec
