
                                 *****************
                                 * O   R   C   A *
                                 *****************

           --- An Ab Initio, DFT and Semiempirical electronic structure package ---

                  #######################################################
                  #                        -***-                        #
                  #  Department of molecular theory and spectroscopy    #
                  #              Directorship: Frank Neese              #
                  # Max Planck Institute for Chemical Energy Conversion #
                  #                  D-45470 Muelheim/Ruhr              #
                  #                       Germany                       #
                  #                                                     #
                  #                  All rights reserved                #
                  #                        -***-                        #
                  #######################################################


                         Program Version 4.0.0.2 - RELEASE -


 With contributions from (in alphabetic order):
   Daniel Aravena         : Magnetic Properties
   Michael Atanasov       : Ab Initio Ligand Field Theory
   Ute Becker             : Parallelization
   Martin Brehm           : Molecular dynamics
   Dmytro Bykov           : SCF Hessian
   Vijay G. Chilkuri      : MRCI spin determinant printing
   Dipayan Datta          : RHF DLPNO-CCSD density
   Achintya Kumar Dutta   : EOM-CC, STEOM-CC
   Dmitry Ganyushin       : Spin-Orbit,Spin-Spin,Magnetic field MRCI
   Yang Guo               : DLPNO-NEVPT2, CIM, IAO-localization
   Andreas Hansen         : Spin unrestricted coupled pair/coupled cluster methods
   Lee Huntington         : MR-EOM, pCC
   Robert Izsak           : Overlap fitted RIJCOSX, COSX-SCS-MP3, EOM
   Christian Kollmar      : KDIIS, OOCD, Brueckner-CCSD(T), CCSD density
   Simone Kossmann        : Meta GGA functionals, TD-DFT gradient, OOMP2, MP2 Hessian
   Martin Krupicka        : AUTO-CI
   Dagmar Lenk            : GEPOL surface
   Dimitrios Liakos       : Extrapolation schemes; parallel MDCI
   Dimitrios Manganas     : ROCIS; embedding schemes
   Dimitrios Pantazis     : SARC Basis sets
   Taras Petrenko         : DFT Hessian,TD-DFT gradient, ASA, ECA, R-Raman, ABS, FL, XAS/XES, NRVS
   Peter Pinski           : DLPNO-MP2
   Christoph Reimann      : Effective Core Potentials
   Marius Retegan         : Local ZFS, SOC
   Christoph Riplinger    : Optimizer, TS searches, QM/MM, DLPNO-CCSD(T), (RO)-DLPNO pert. Triples
   Tobias Risthaus        : Range-separated hybrids, TD-DFT gradient, RPA, STAB
   Michael Roemelt        : Restricted open shell CIS
   Masaaki Saitow         : Open-shell DLPNO
   Barbara Sandhoefer     : DKH picture change effects
   Kantharuban Sivalingam : CASSCF convergence, NEVPT2, FIC-MRCI
   Georgi Stoychev        : AutoAux
   Boris Wezisla          : Elementary symmetry handling
   Frank Wennmohs         : Technical directorship


 We gratefully acknowledge several colleagues who have allowed us to
 interface, adapt or use parts of their codes:
   Stefan Grimme, W. Hujo, H. Kruse,             : VdW corrections, initial TS optimization,
                  C. Bannwarth                     DFT functionals, gCP, sTDA/sTD-DF
   Ed Valeev                                     : LibInt (2-el integral package), F12 methods
   Garnet Chan, S. Sharma, J. Yang, R. Olivares  : DMRG
   Ulf Ekstrom                                   : XCFun DFT Library
   Mihaly Kallay                                 : mrcc  (arbitrary order and MRCC methods)
   Jiri Pittner, Ondrej Demel                    : Mk-CCSD
   Frank Weinhold                                : gennbo (NPA and NBO analysis)
   Christopher J. Cramer and Donald G. Truhlar   : smd solvation model


 Your calculation uses the libint2 library for the computation of 2-el integrals
 For citations please refer to: http://libint.valeyev.net

 This ORCA versions uses:
   CBLAS   interface :  Fast vector & matrix operations
   LAPACKE interface :  Fast linear algebra routines
   SCALAPACK package :  Parallel linear algebra routines


Your calculation utilizes the atom-pairwise dispersion correction
with the zero-damping scheme (D30)
Cite in your paper:
S.Grimme, J.Antony, S.Ehrlich and H.Krieg, J.Chem.Phys., 132, (2010), 154104 
   

XCFun DFT library Copyright 2009-2010 Ulf Ekstrom and contributors.
See http://admol.org/xcfun for more information. This is free soft-
ware; see the source code for copying conditions. There is ABSOLUTELY
NO WARRANTY; not even for MERCHANTABILITY or FITNESS FOR A PARTICULAR
PURPOSE. For details see the documentation. Scientific users of this 
library should cite U. Ekstrom, L. Visscher, R. Bast, A. J. Thorvald-
sen and K. Ruud; J.Chem.Theor.Comp. 2010, DOI: 10.1021/ct100117s
XCFun Version 0.99 
Your calculation utilizes the basis: 6-31G(d)
   H-He, Li-Ne : W. J. Hehre, R. Ditchfield and J.A. Pople, J. Chem. Phys. 56, 2257 (1972).
                 Note: He and Ne are unpublished basis sets taken from the Gaussian program.
                 Note: Li and B from J. D. Dill and J. A. Pople, J. Chem. Phys. 62, 2921 (1975).
   Na - Ar     : M. M. Francl, W. J. Pietro, W. J. Hehre, J. S. Binkley, M. S. Gordon, 
                 D. J. DeFrees and J. A. Pople, J. Chem. Phys. 77, 3654 (1982).
   K - Zn      : V. A. Rassolov, J. A. Pople, M. A. Ratner, and T. L. Windus, J. Chem. Phys. 109, 1223 (1998).

================================================================================
                                        WARNINGS
                       Please study these warnings very carefully!
================================================================================

Warning: TCutStore was < 0. Adjusted to Thresh (uncritical)

INFO   : the flag for use of LIBINT has been found!

================================================================================
                                       INPUT FILE
================================================================================
NAME = initial18.inp
|  1> ! WB97X-D3 6-31G(d) VerySlowConv
|  2> ! KDIIS NOSOSCF
|  3> %base "Scan_18"
|  4> 
|  5> %scf
|  6> maxiter 999
|  7> end
|  8> 
|  9> * xyz 0 1
| 10> C         -3.836885742292    0.390295514599    0.000000000000
| 11> N         -1.690604936112    0.453715985181    0.000000000000
| 12> H         -4.912289321597    0.358518500220    0.000000000000
| 13> **                         ****END OF INPUT****
================================================================================

                       ****************************
                       * Single Point Calculation *
                       ****************************

---------------------------------
CARTESIAN COORDINATES (ANGSTROEM)
---------------------------------
  C     -3.836886    0.390296    0.000000
  N     -1.690605    0.453716    0.000000
  H     -4.912289    0.358519    0.000000

----------------------------
CARTESIAN COORDINATES (A.U.)
----------------------------
  NO LB      ZA    FRAG     MASS         X           Y           Z
   0 C     6.0000    0    12.011   -7.250663    0.737552    0.000000
   1 N     7.0000    0    14.007   -3.194780    0.857399    0.000000
   2 H     1.0000    0     1.008   -9.282882    0.677502    0.000000

--------------------------------
INTERNAL COORDINATES (ANGSTROEM)
--------------------------------
 C      0   0   0     0.000000000000     0.00000000     0.00000000
 N      1   0   0     2.147217607758     0.00000000     0.00000000
 H      1   2   0     1.075872965096   179.99999481     0.00000000

---------------------------
INTERNAL COORDINATES (A.U.)
---------------------------
 C      0   0   0     0.000000000000     0.00000000     0.00000000
 N      1   0   0     4.057653228596     0.00000000     0.00000000
 H      1   2   0     2.033105258922   179.99999481     0.00000000

---------------------
BASIS SET INFORMATION
---------------------
There are 3 groups of distinct atoms

 Group   1 Type C   : 10s4p1d contracted to 3s2p1d pattern {631/31/1}
 Group   2 Type N   : 10s4p1d contracted to 3s2p1d pattern {631/31/1}
 Group   3 Type H   : 4s contracted to 2s pattern {31}

Atom   0C    basis set group =>   1
Atom   1N    basis set group =>   2
Atom   2H    basis set group =>   3
------------------------------------------------------------------------------
                           ORCA GTO INTEGRAL CALCULATION
------------------------------------------------------------------------------

                         BASIS SET STATISTICS AND STARTUP INFO

 # of primitive gaussian shells          ...   34
 # of primitive gaussian functions       ...   58
 # of contracted shells                  ...   14
 # of contracted basis functions         ...   30
 Highest angular momentum                ...    2
 Maximum contraction depth               ...    6
 Integral package used                   ... LIBINT
 Integral threshhold            Thresh   ...  1.000e-10
 Primitive cut-off              TCut     ...  1.000e-11


------------------------------ INTEGRAL EVALUATION ----------------------------


 * One electron integrals 
 Pre-screening matrix                    ... done
 Shell pair data                         ... done (   0.000 sec)

-------------------------------------------------------------------------------
                                 ORCA SCF
-------------------------------------------------------------------------------

------------
SCF SETTINGS
------------
Hamiltonian:
 Density Functional     Method          .... DFT(GTOs)
 Exchange Functional    Exchange        .... WB97X-D3
 Correlation Functional Correlation     .... WB97X-D3
 Gradients option       PostSCFGGA      .... off
 Hybrid DFT is turned on
   Fraction HF Exchange ScalHFX         ....  0.195728
   Scaling of DF-GGA-X  ScalDFX         ....  0.000000
   Scaling of DF-GGA-C  ScalDFC         ....  1.000000
   Scaling of DF-LDA-C  ScalLDAC        ....  1.000000
   Perturbative correction              ....  0.000000
 Long-range corrected/Screened/Range-Separated Hybrid DFT is turned on
   Amount of maximum screened exact exchange              ....  0.804272
   Range separation parameter mu (erf(mu*r12)/r12)        ....  0.250000


General Settings:
 Integral files         IntName         .... Scan_18
 Hartree-Fock type      HFTyp           .... RHF
 Total Charge           Charge          ....    0
 Multiplicity           Mult            ....    1
 Number of Electrons    NEL             ....   14
 Basis Dimension        Dim             ....   30
 Nuclear Repulsion      ENuc            ....     14.4512434322 Eh

Convergence Acceleration:
 DIIS                   CNVDIIS         .... on
   Start iteration      DIISMaxIt       ....     0
   Startup error        DIISStart       ....  0.200000
   # of expansion vecs  DIISMaxEq       ....     5
   Bias factor          DIISBfac        ....   1.050
   Max. coefficient     DIISMaxC        ....  10.000
 Newton-Raphson         CNVNR           .... off
 SOSCF                  CNVSOSCF        .... off
 Level Shifting         CNVShift        .... off
 Zerner damping         CNVZerner       .... off
 Static damping         CNVDamp         .... off
 Fernandez-Rico         CNVRico         .... off

SCF Procedure:
 Maximum # iterations   MaxIter         ....   999
 SCF integral mode      SCFMode         .... Direct
   Integral package                     .... LIBINT
 Reset frequeny         DirectResetFreq ....    20
 Integral Threshold     Thresh          ....  1.000e-10 Eh
 Primitive CutOff       TCut            ....  1.000e-11 Eh

Convergence Tolerance:
 Convergence Check Mode ConvCheckMode   .... All-Criteria
 Convergence forced     ConvForced      .... 0
 Energy Change          TolE            ....  1.000e-06 Eh
 Max Density Change     TolMaxP         ....  1.000e-05
 RMS Density Change     TolRMSP         ....  1.000e-06
 DIIS Error             TolErr          ....  1.000e-06


Diagonalization of the overlap matrix:
Smallest eigenvalue                        ... 3.309e-02
Time for diagonalization                   ...    0.001 sec
Threshold for overlap eigenvalues          ... 1.000e-08
Number of eigenvalues below threshold      ... 0
Time for construction of square roots      ...    0.007 sec
Total time needed                          ...    0.007 sec

-------------------
DFT GRID GENERATION
-------------------

General Integration Accuracy     IntAcc      ...  4.340
Radial Grid Type                 RadialGrid  ... Gauss-Chebyshev
Angular Grid (max. acc.)         AngularGrid ... Lebedev-110
Angular grid pruning method      GridPruning ... 3 (G Style)
Weight generation scheme         WeightScheme... Becke
Basis function cutoff            BFCut       ...    1.0000e-10
Integration weight cutoff        WCut        ...    1.0000e-14
Grids for H and He will be reduced by one unit

# of grid points (after initial pruning)     ...   4152 (   0.0 sec)
# of grid points (after weights+screening)   ...   4108 (   0.0 sec)
nearest neighbour list constructed           ...    0.0 sec
Grid point re-assignment to atoms done       ...    0.0 sec
Grid point division into batches done        ...    0.0 sec
Reduced shell lists constructed in    0.0 sec

Total number of grid points                  ...     4108
Total number of batches                      ...       66
Average number of points per batch           ...       62
Average number of grid points per atom       ...     1369
Average number of shells per batch           ...    11.72 (83.69%)
Average number of basis functions per batch  ...    26.04 (86.82%)
Average number of large shells per batch     ...    10.30 (87.90%)
Average number of large basis fcns per batch ...    22.84 (87.68%)
Maximum spatial batch extension              ...  18.64, 25.60, 31.36 au
Average spatial batch extension              ...   4.48,  7.13,  6.87 au

Time for grid setup =    0.027 sec

------------------------------
INITIAL GUESS: MODEL POTENTIAL
------------------------------
Loading Hartree-Fock densities                     ... done
Calculating cut-offs                               ... done
Setting up the integral package                    ... done
Initializing the effective Hamiltonian             ... done
Starting the Coulomb interaction                   ... done (   0.0 sec)
Reading the grid                                   ... done
Mapping shells                                     ... done
Starting the XC term evaluation                    ... done (   0.0 sec)
  promolecular density results
     # of electrons  =     13.998019617
     EX              =    -11.637156156
     EC              =     -0.398843867
     EX+EC           =    -12.036000023
Transforming the Hamiltonian                       ... done (   0.0 sec)
Diagonalizing the Hamiltonian                      ... done (   0.0 sec)
Back transforming the eigenvectors                 ... done (   0.0 sec)
Now organizing SCF variables                       ... done
                      ------------------
                      INITIAL GUESS DONE (   0.2 sec)
                      ------------------
--------------
SCF ITERATIONS
--------------
ITER       Energy         Delta-E        Max-DP      RMS-DP      [F,P]   Gradient Norm
               ***  Starting incremental Fock matrix formation  ***
                             ****Resetting KDIIS****
                             ****Turning on KDIIS(Cayley)****
  0    -92.6309782010   0.000000000000 0.04246886  0.00324404  0.2897856   0.188410226
  1    -92.7072016422  -0.076223441119 0.04764161  0.00479580  0.2467099   0.158147127
  2    -92.8241061110  -0.116904468826 0.08502306  0.00985681  0.1627880   0.107193275
  3    -92.9286566343  -0.104550523316 0.05746906  0.00513259  0.0157670   0.018126467
  4    -92.9183527272   0.010303907101 0.02298561  0.00303956  0.0538101   0.034645180
  5    -92.9117814807   0.006571246541 0.09781486  0.01382408  0.0636630   0.040646230
  6    -92.9248720159  -0.013090535186 0.10162076  0.00849188  0.0238574   0.011437335
  7    -92.9329537820  -0.008081766145 0.02659692  0.00208407  0.0118127   0.005470522
  8    -92.9326888018   0.000264980186 0.01199692  0.00149341  0.0134513   0.007522180
  9    -92.9336468594  -0.000958057612 0.01137859  0.00149315  0.0034811   0.001899980
 10    -92.9337940526  -0.000147193220 0.00189724  0.00026204  0.0011109   0.000631137
 11    -92.9338027969  -0.000008744249 0.00025015  0.00001950  0.0000694   0.000039649
                          ***Energy convergence achieved***
 12    -92.9338028476  -0.000000050698 0.00005710  0.00000504  0.0000148   0.000008842

            ***Energy convergence in two consecutive cycles with***
                    ***'reasonable' density convergence***
                       *** signaling convergence ***

                    *** KDIIS BlockDiag ( 0.000 sec) ***

               *****************************************************
               *                     SUCCESS                       *
               *           SCF CONVERGED AFTER  13 CYCLES          *
               *****************************************************

Setting up the final grid:

General Integration Accuracy     IntAcc      ...  4.670
Radial Grid Type                 RadialGrid  ... Gauss-Chebyshev
Angular Grid (max. acc.)         AngularGrid ... Lebedev-302
Angular grid pruning method      GridPruning ... 3 (G Style)
Weight generation scheme         WeightScheme... Becke
Basis function cutoff            BFCut       ...    1.0000e-10
Integration weight cutoff        WCut        ...    1.0000e-14
Grids for H and He will be reduced by one unit

# of grid points (after initial pruning)     ...  15818 (   0.0 sec)
# of grid points (after weights+screening)   ...  15709 (   0.0 sec)
nearest neighbour list constructed           ...    0.0 sec
Grid point re-assignment to atoms done       ...    0.0 sec
Grid point division into batches done        ...    0.1 sec
Reduced shell lists constructed in    0.1 sec

Total number of grid points                  ...    15709
Total number of batches                      ...      247
Average number of points per batch           ...       63
Average number of grid points per atom       ...     5236
Average number of shells per batch           ...    10.46 (74.68%)
Average number of basis functions per batch  ...    23.12 (77.08%)
Average number of large shells per batch     ...     9.19 (87.89%)
Average number of large basis fcns per batch ...    20.36 (88.04%)
Maximum spatial batch extension              ...  19.26, 20.64, 20.64 au
Average spatial batch extension              ...   3.32,  4.27,  4.24 au

Final grid set up in    0.1 sec
Final integration                            ... done (   0.1 sec)
Change in XC energy                          ...    -0.000306884
Integrated number of electrons               ...    13.999999977
Previous integrated no of electrons          ...    13.997662338

----------------
TOTAL SCF ENERGY
----------------

Total Energy       :          -92.93410973 Eh           -2528.86569 eV

Components:
Nuclear Repulsion  :           14.45124343 Eh             393.23833 eV
Electronic Energy  :         -107.38535317 Eh           -2922.10402 eV
One Electron Energy:         -153.61659873 Eh           -4180.12016 eV
Two Electron Energy:           46.23124557 Eh            1258.01615 eV

Virial components:
Potential Energy   :         -184.81384144 Eh           -5029.04030 eV
Kinetic Energy     :           91.87973170 Eh            2500.17461 eV
Virial Ratio       :            2.01147563


DFT components:
N(Alpha)           :        6.999999988357 electrons
N(Beta)            :        6.999999988357 electrons
N(Total)           :       13.999999976715 electrons
E(XC)              :       -8.407362556517 Eh       

---------------
SCF CONVERGENCE
---------------

  Last Energy change         ...   -2.7873e-09  Tolerance :   1.0000e-06
  Last MAX-Density change    ...    1.1736e-05  Tolerance :   1.0000e-05
  Last RMS-Density change    ...    1.1039e-06  Tolerance :   1.0000e-06
  Last DIIS Error            ...    3.6984e-06  Tolerance :   1.0000e-06

             **** THE GBW FILE WAS UPDATED (Scan_18.gbw) ****
             **** DENSITY FILE WAS UPDATED (Scan_18.scfp.tmp) ****
             **** ENERGY FILE WAS UPDATED (Scan_18.en.tmp) ****
----------------
ORBITAL ENERGIES
----------------

  NO   OCC          E(Eh)            E(eV) 
   0   2.0000     -14.551373      -395.9630 
   1   2.0000     -10.458721      -284.5963 
   2   2.0000      -0.826617       -22.4934 
   3   2.0000      -0.778624       -21.1874 
   4   2.0000      -0.458800       -12.4846 
   5   2.0000      -0.330423        -8.9913 
   6   2.0000      -0.330422        -8.9913 
   7   0.0000      -0.074310        -2.0221 
   8   0.0000      -0.074293        -2.0216 
   9   0.0000      -0.021430        -0.5831 
  10   0.0000       0.224603         6.1118 
  11   0.0000       0.615788        16.7564 
  12   0.0000       0.615795        16.7566 
  13   0.0000       0.701170        19.0798 
  14   0.0000       0.764029        20.7903 
  15   0.0000       0.826360        22.4864 
  16   0.0000       0.826365        22.4865 
  17   0.0000       0.860692        23.4206 
  18   0.0000       0.957606        26.0578 
  19   0.0000       1.239883        33.7389 
  20   0.0000       1.690675        46.0056 
  21   0.0000       1.690734        46.0072 
  22   0.0000       1.734045        47.1858 
  23   0.0000       1.734919        47.2095 
  24   0.0000       1.850896        50.3654 
  25   0.0000       1.851045        50.3695 
  26   0.0000       1.867154        50.8078 
  27   0.0000       1.879741        51.1504 
  28   0.0000       1.879787        51.1516 
  29   0.0000       2.362953        64.2992 

                    ********************************
                    * MULLIKEN POPULATION ANALYSIS *
                    ********************************

-----------------------
MULLIKEN ATOMIC CHARGES
-----------------------
   0 C :   -0.118500
   1 N :   -0.126867
   2 H :    0.245367
Sum of atomic charges:   -0.0000000

--------------------------------
MULLIKEN REDUCED ORBITAL CHARGES
--------------------------------
  0 C s       :     3.741670  s :     3.741670
      pz      :     0.622780  p :     2.366258
      px      :     1.119894
      py      :     0.623584
      dz2     :     0.002707  d :     0.010572
      dxz     :    -0.000126
      dyz     :    -0.000000
      dx2y2   :     0.008090
      dxy     :    -0.000099
  1 N s       :     3.988017  s :     3.988017
      pz      :     1.376941  p :     3.135955
      px      :     0.383348
      py      :     1.375666
      dz2     :     0.000521  d :     0.002894
      dxz     :     0.000405
      dyz     :     0.000000
      dx2y2   :     0.001558
      dxy     :     0.000410
  2 H s       :     0.754633  s :     0.754633


                     *******************************
                     * LOEWDIN POPULATION ANALYSIS *
                     *******************************

----------------------
LOEWDIN ATOMIC CHARGES
----------------------
   0 C :   -0.017726
   1 N :   -0.143147
   2 H :    0.160873

-------------------------------
LOEWDIN REDUCED ORBITAL CHARGES
-------------------------------
  0 C s       :     3.546643  s :     3.546643
      pz      :     0.624101  p :     2.454947
      px      :     1.205870
      py      :     0.624977
      dz2     :     0.003980  d :     0.016136
      dxz     :     0.000109
      dyz     :     0.000000
      dx2y2   :     0.011897
      dxy     :     0.000149
  1 N s       :     3.947588  s :     3.947588
      pz      :     1.375300  p :     3.190748
      px      :     0.441367
      py      :     1.374081
      dz2     :     0.000957  d :     0.004810
      dxz     :     0.000490
      dyz     :     0.000000
      dx2y2   :     0.002863
      dxy     :     0.000499
  2 H s       :     0.839127  s :     0.839127


                      *****************************
                      * MAYER POPULATION ANALYSIS *
                      *****************************

  NA   - Mulliken gross atomic population
  ZA   - Total nuclear charge
  QA   - Mulliken gross atomic charge
  VA   - Mayer's total valence
  BVA  - Mayer's bonded valence
  FA   - Mayer's free valence

  ATOM       NA         ZA         QA         VA         BVA        FA
  0 C      6.1185     6.0000    -0.1185     3.1083     3.1083     0.0000
  1 N      7.1269     7.0000    -0.1269     2.3158     2.3158    -0.0000
  2 H      0.7546     1.0000     0.2454     0.8869     0.8869     0.0000

  Mayer bond orders larger than 0.1
B(  0-C ,  1-N ) :   2.2686 B(  0-C ,  2-H ) :   0.8397 

-------
TIMINGS
-------

Total SCF time: 0 days 0 hours 0 min 5 sec 

Total time                  ....       5.530 sec
Sum of individual times     ....       5.330 sec  ( 96.4%)

Fock matrix formation       ....       5.013 sec  ( 90.7%)
  XC integration            ....       0.834 sec  ( 16.6% of F)
    Basis function eval.    ....       0.219 sec  ( 26.2% of XC)
    Density eval.           ....       0.040 sec  (  4.8% of XC)
    XC-Functional eval.     ....       0.220 sec  ( 26.3% of XC)
    XC-Potential eval.      ....       0.028 sec  (  3.4% of XC)
Diagonalization             ....       0.019 sec  (  0.3%)
Density matrix formation    ....       0.000 sec  (  0.0%)
Population analysis         ....       0.010 sec  (  0.2%)
Initial guess               ....       0.131 sec  (  2.4%)
Orbital Transformation      ....       0.000 sec  (  0.0%)
Orbital Orthonormalization  ....       0.000 sec  (  0.0%)
DIIS solution               ....       0.000 sec  (  0.0%)
Grid generation             ....       0.157 sec  (  2.8%)


-------------------------------------------------------------------------------
                          DFT DISPERSION CORRECTION                            
                                                                               
                              DFTD3 V3.1  Rev 1                                
                              USING zero damping                               
-------------------------------------------------------------------------------
The omegaB97X-D3 functional is recognized. Fit by Chai et al.
Active option DFTDOPT                   ...         3   

molecular C6(AA) [au] = 174.859075 


            DFT-D V3
 parameters
 s6 scaling factor         :     1.0000 
 rs6 scaling factor        :     1.2810 
 s8 scaling factor         :     1.0000 
 rs8 scaling factor        :     1.0940 
 Damping factor alpha6     :    14.0000 
 Damping factor alpha8     :    16.0000 
 ad hoc parameters k1-k3   :    16.0000     1.3333    -4.0000 

 Edisp/kcal,au: -0.078272838074  -0.000124735694 
 E6   /kcal   :  -0.031299639 
 E8   /kcal   :  -0.046973199 
 % E8         :  60.012132080 

-------------------------   ----------------
Dispersion correction           -0.000124736
-------------------------   ----------------


-------------------------   --------------------
FINAL SINGLE POINT ENERGY       -92.934234469724
-------------------------   --------------------


                            ***************************************
                            *     ORCA property calculations      *
                            ***************************************

                                    ---------------------
                                    Active property flags
                                    ---------------------
   (+) Dipole Moment


------------------------------------------------------------------------------
                       ORCA ELECTRIC PROPERTIES CALCULATION
------------------------------------------------------------------------------

Dipole Moment Calculation                       ... on
Quadrupole Moment Calculation                   ... off
Polarizability Calculation                      ... off
GBWName                                         ... Scan_18.gbw
Electron density file                           ... Scan_18.scfp.tmp

-------------
DIPOLE MOMENT
-------------
                                X             Y             Z
Electronic contribution:      0.77737       0.02322       0.00000
Nuclear contribution   :     -2.00897      -0.05936       0.00000
                        -----------------------------------------
Total Dipole Moment    :     -1.23160      -0.03615       0.00000
                        -----------------------------------------
Magnitude (a.u.)       :      1.23213
Magnitude (Debye)      :      3.13184


Timings for individual modules:

Sum of individual times         ...        5.960 sec (=   0.099 min)
GTO integral calculation        ...        0.403 sec (=   0.007 min)   6.8 %
SCF iterations                  ...        5.557 sec (=   0.093 min)  93.2 %
                             ****ORCA TERMINATED NORMALLY****
TOTAL RUN TIME: 0 days 0 hours 0 minutes 6 seconds 353 msec
