
                                 *****************
                                 * O   R   C   A *
                                 *****************

           --- An Ab Initio, DFT and Semiempirical electronic structure package ---

                  #######################################################
                  #                        -***-                        #
                  #  Department of molecular theory and spectroscopy    #
                  #              Directorship: Frank Neese              #
                  # Max Planck Institute for Chemical Energy Conversion #
                  #                  D-45470 Muelheim/Ruhr              #
                  #                       Germany                       #
                  #                                                     #
                  #                  All rights reserved                #
                  #                        -***-                        #
                  #######################################################


                         Program Version 4.0.0.2 - RELEASE -


 With contributions from (in alphabetic order):
   Daniel Aravena         : Magnetic Properties
   Michael Atanasov       : Ab Initio Ligand Field Theory
   Ute Becker             : Parallelization
   Martin Brehm           : Molecular dynamics
   Dmytro Bykov           : SCF Hessian
   Vijay G. Chilkuri      : MRCI spin determinant printing
   Dipayan Datta          : RHF DLPNO-CCSD density
   Achintya Kumar Dutta   : EOM-CC, STEOM-CC
   Dmitry Ganyushin       : Spin-Orbit,Spin-Spin,Magnetic field MRCI
   Yang Guo               : DLPNO-NEVPT2, CIM, IAO-localization
   Andreas Hansen         : Spin unrestricted coupled pair/coupled cluster methods
   Lee Huntington         : MR-EOM, pCC
   Robert Izsak           : Overlap fitted RIJCOSX, COSX-SCS-MP3, EOM
   Christian Kollmar      : KDIIS, OOCD, Brueckner-CCSD(T), CCSD density
   Simone Kossmann        : Meta GGA functionals, TD-DFT gradient, OOMP2, MP2 Hessian
   Martin Krupicka        : AUTO-CI
   Dagmar Lenk            : GEPOL surface
   Dimitrios Liakos       : Extrapolation schemes; parallel MDCI
   Dimitrios Manganas     : ROCIS; embedding schemes
   Dimitrios Pantazis     : SARC Basis sets
   Taras Petrenko         : DFT Hessian,TD-DFT gradient, ASA, ECA, R-Raman, ABS, FL, XAS/XES, NRVS
   Peter Pinski           : DLPNO-MP2
   Christoph Reimann      : Effective Core Potentials
   Marius Retegan         : Local ZFS, SOC
   Christoph Riplinger    : Optimizer, TS searches, QM/MM, DLPNO-CCSD(T), (RO)-DLPNO pert. Triples
   Tobias Risthaus        : Range-separated hybrids, TD-DFT gradient, RPA, STAB
   Michael Roemelt        : Restricted open shell CIS
   Masaaki Saitow         : Open-shell DLPNO
   Barbara Sandhoefer     : DKH picture change effects
   Kantharuban Sivalingam : CASSCF convergence, NEVPT2, FIC-MRCI
   Georgi Stoychev        : AutoAux
   Boris Wezisla          : Elementary symmetry handling
   Frank Wennmohs         : Technical directorship


 We gratefully acknowledge several colleagues who have allowed us to
 interface, adapt or use parts of their codes:
   Stefan Grimme, W. Hujo, H. Kruse,             : VdW corrections, initial TS optimization,
                  C. Bannwarth                     DFT functionals, gCP, sTDA/sTD-DF
   Ed Valeev                                     : LibInt (2-el integral package), F12 methods
   Garnet Chan, S. Sharma, J. Yang, R. Olivares  : DMRG
   Ulf Ekstrom                                   : XCFun DFT Library
   Mihaly Kallay                                 : mrcc  (arbitrary order and MRCC methods)
   Jiri Pittner, Ondrej Demel                    : Mk-CCSD
   Frank Weinhold                                : gennbo (NPA and NBO analysis)
   Christopher J. Cramer and Donald G. Truhlar   : smd solvation model


 Your calculation uses the libint2 library for the computation of 2-el integrals
 For citations please refer to: http://libint.valeyev.net

 This ORCA versions uses:
   CBLAS   interface :  Fast vector & matrix operations
   LAPACKE interface :  Fast linear algebra routines
   SCALAPACK package :  Parallel linear algebra routines


Your calculation utilizes the atom-pairwise dispersion correction
with the zero-damping scheme (D30)
Cite in your paper:
S.Grimme, J.Antony, S.Ehrlich and H.Krieg, J.Chem.Phys., 132, (2010), 154104 
   

XCFun DFT library Copyright 2009-2010 Ulf Ekstrom and contributors.
See http://admol.org/xcfun for more information. This is free soft-
ware; see the source code for copying conditions. There is ABSOLUTELY
NO WARRANTY; not even for MERCHANTABILITY or FITNESS FOR A PARTICULAR
PURPOSE. For details see the documentation. Scientific users of this 
library should cite U. Ekstrom, L. Visscher, R. Bast, A. J. Thorvald-
sen and K. Ruud; J.Chem.Theor.Comp. 2010, DOI: 10.1021/ct100117s
XCFun Version 0.99 
Your calculation utilizes the basis: 6-31G(d)
   H-He, Li-Ne : W. J. Hehre, R. Ditchfield and J.A. Pople, J. Chem. Phys. 56, 2257 (1972).
                 Note: He and Ne are unpublished basis sets taken from the Gaussian program.
                 Note: Li and B from J. D. Dill and J. A. Pople, J. Chem. Phys. 62, 2921 (1975).
   Na - Ar     : M. M. Francl, W. J. Pietro, W. J. Hehre, J. S. Binkley, M. S. Gordon, 
                 D. J. DeFrees and J. A. Pople, J. Chem. Phys. 77, 3654 (1982).
   K - Zn      : V. A. Rassolov, J. A. Pople, M. A. Ratner, and T. L. Windus, J. Chem. Phys. 109, 1223 (1998).

================================================================================
                                        WARNINGS
                       Please study these warnings very carefully!
================================================================================

Warning: TCutStore was < 0. Adjusted to Thresh (uncritical)

INFO   : the flag for use of LIBINT has been found!

================================================================================
                                       INPUT FILE
================================================================================
NAME = initial19.inp
|  1> ! WB97X-D3 6-31G(d) VerySlowConv
|  2> ! KDIIS NOSOSCF
|  3> %base "Scan_19"
|  4> 
|  5> %scf
|  6> maxiter 999
|  7> end
|  8> 
|  9> * xyz 0 1
| 10> C         -3.878945308135    0.389052568924    0.000000000000
| 11> N         -1.593234865669    0.456593077284    0.000000000000
| 12> H         -4.967599826197    0.356884353792    0.000000000000
| 13> **                         ****END OF INPUT****
================================================================================

                       ****************************
                       * Single Point Calculation *
                       ****************************

---------------------------------
CARTESIAN COORDINATES (ANGSTROEM)
---------------------------------
  C     -3.878945    0.389053    0.000000
  N     -1.593235    0.456593    0.000000
  H     -4.967600    0.356884    0.000000

----------------------------
CARTESIAN COORDINATES (A.U.)
----------------------------
  NO LB      ZA    FRAG     MASS         X           Y           Z
   0 C     6.0000    0    12.011   -7.330144    0.735203    0.000000
   1 N     7.0000    0    14.007   -3.010778    0.862836    0.000000
   2 H     1.0000    0     1.008   -9.387403    0.674414    0.000000

--------------------------------
INTERNAL COORDINATES (ANGSTROEM)
--------------------------------
 C      0   0   0     0.000000000000     0.00000000     0.00000000
 N      1   0   0     2.286708102725     0.00000000     0.00000000
 H      1   2   0     1.089129677202   179.99997576     0.00000000

---------------------------
INTERNAL COORDINATES (A.U.)
---------------------------
 C      0   0   0     0.000000000000     0.00000000     0.00000000
 N      1   0   0     4.321252062369     0.00000000     0.00000000
 H      1   2   0     2.058156814237   179.99997576     0.00000000

---------------------
BASIS SET INFORMATION
---------------------
There are 3 groups of distinct atoms

 Group   1 Type C   : 10s4p1d contracted to 3s2p1d pattern {631/31/1}
 Group   2 Type N   : 10s4p1d contracted to 3s2p1d pattern {631/31/1}
 Group   3 Type H   : 4s contracted to 2s pattern {31}

Atom   0C    basis set group =>   1
Atom   1N    basis set group =>   2
Atom   2H    basis set group =>   3
------------------------------------------------------------------------------
                           ORCA GTO INTEGRAL CALCULATION
------------------------------------------------------------------------------

                         BASIS SET STATISTICS AND STARTUP INFO

 # of primitive gaussian shells          ...   34
 # of primitive gaussian functions       ...   58
 # of contracted shells                  ...   14
 # of contracted basis functions         ...   30
 Highest angular momentum                ...    2
 Maximum contraction depth               ...    6
 Integral package used                   ... LIBINT
 Integral threshhold            Thresh   ...  1.000e-10
 Primitive cut-off              TCut     ...  1.000e-11


------------------------------ INTEGRAL EVALUATION ----------------------------


 * One electron integrals 
 Pre-screening matrix                    ... done
 Shell pair data                         ... done (   0.000 sec)

-------------------------------------------------------------------------------
                                 ORCA SCF
-------------------------------------------------------------------------------

------------
SCF SETTINGS
------------
Hamiltonian:
 Density Functional     Method          .... DFT(GTOs)
 Exchange Functional    Exchange        .... WB97X-D3
 Correlation Functional Correlation     .... WB97X-D3
 Gradients option       PostSCFGGA      .... off
 Hybrid DFT is turned on
   Fraction HF Exchange ScalHFX         ....  0.195728
   Scaling of DF-GGA-X  ScalDFX         ....  0.000000
   Scaling of DF-GGA-C  ScalDFC         ....  1.000000
   Scaling of DF-LDA-C  ScalLDAC        ....  1.000000
   Perturbative correction              ....  0.000000
 Long-range corrected/Screened/Range-Separated Hybrid DFT is turned on
   Amount of maximum screened exact exchange              ....  0.804272
   Range separation parameter mu (erf(mu*r12)/r12)        ....  0.250000


General Settings:
 Integral files         IntName         .... Scan_19
 Hartree-Fock type      HFTyp           .... RHF
 Total Charge           Charge          ....    0
 Multiplicity           Mult            ....    1
 Number of Electrons    NEL             ....   14
 Basis Dimension        Dim             ....   30
 Nuclear Repulsion      ENuc            ....     13.7319153656 Eh

Convergence Acceleration:
 DIIS                   CNVDIIS         .... on
   Start iteration      DIISMaxIt       ....     0
   Startup error        DIISStart       ....  0.200000
   # of expansion vecs  DIISMaxEq       ....     5
   Bias factor          DIISBfac        ....   1.050
   Max. coefficient     DIISMaxC        ....  10.000
 Newton-Raphson         CNVNR           .... off
 SOSCF                  CNVSOSCF        .... off
 Level Shifting         CNVShift        .... off
 Zerner damping         CNVZerner       .... off
 Static damping         CNVDamp         .... off
 Fernandez-Rico         CNVRico         .... off

SCF Procedure:
 Maximum # iterations   MaxIter         ....   999
 SCF integral mode      SCFMode         .... Direct
   Integral package                     .... LIBINT
 Reset frequeny         DirectResetFreq ....    20
 Integral Threshold     Thresh          ....  1.000e-10 Eh
 Primitive CutOff       TCut            ....  1.000e-11 Eh

Convergence Tolerance:
 Convergence Check Mode ConvCheckMode   .... All-Criteria
 Convergence forced     ConvForced      .... 0
 Energy Change          TolE            ....  1.000e-06 Eh
 Max Density Change     TolMaxP         ....  1.000e-05
 RMS Density Change     TolRMSP         ....  1.000e-06
 DIIS Error             TolErr          ....  1.000e-06


Diagonalization of the overlap matrix:
Smallest eigenvalue                        ... 3.682e-02
Time for diagonalization                   ...    0.001 sec
Threshold for overlap eigenvalues          ... 1.000e-08
Number of eigenvalues below threshold      ... 0
Time for construction of square roots      ...    0.007 sec
Total time needed                          ...    0.008 sec

-------------------
DFT GRID GENERATION
-------------------

General Integration Accuracy     IntAcc      ...  4.340
Radial Grid Type                 RadialGrid  ... Gauss-Chebyshev
Angular Grid (max. acc.)         AngularGrid ... Lebedev-110
Angular grid pruning method      GridPruning ... 3 (G Style)
Weight generation scheme         WeightScheme... Becke
Basis function cutoff            BFCut       ...    1.0000e-10
Integration weight cutoff        WCut        ...    1.0000e-14
Grids for H and He will be reduced by one unit

# of grid points (after initial pruning)     ...   4152 (   0.0 sec)
# of grid points (after weights+screening)   ...   4109 (   0.0 sec)
nearest neighbour list constructed           ...    0.0 sec
Grid point re-assignment to atoms done       ...    0.0 sec
Grid point division into batches done        ...    0.0 sec
Reduced shell lists constructed in    0.0 sec

Total number of grid points                  ...     4109
Total number of batches                      ...       66
Average number of points per batch           ...       62
Average number of grid points per atom       ...     1370
Average number of shells per batch           ...    11.57 (82.62%)
Average number of basis functions per batch  ...    25.54 (85.12%)
Average number of large shells per batch     ...    10.21 (88.26%)
Average number of large basis fcns per batch ...    22.75 (89.07%)
Maximum spatial batch extension              ...  18.00, 25.60, 31.36 au
Average spatial batch extension              ...   4.39,  7.30,  7.08 au

Time for grid setup =    0.027 sec

------------------------------
INITIAL GUESS: MODEL POTENTIAL
------------------------------
Loading Hartree-Fock densities                     ... done
Calculating cut-offs                               ... done
Setting up the integral package                    ... done
Initializing the effective Hamiltonian             ... done
Starting the Coulomb interaction                   ... done (   0.0 sec)
Reading the grid                                   ... done
Mapping shells                                     ... done
Starting the XC term evaluation                    ... done (   0.0 sec)
  promolecular density results
     # of electrons  =     13.997743614
     EX              =    -11.629256034
     EC              =     -0.396284630
     EX+EC           =    -12.025540664
Transforming the Hamiltonian                       ... done (   0.0 sec)
Diagonalizing the Hamiltonian                      ... done (   0.0 sec)
Back transforming the eigenvectors                 ... done (   0.0 sec)
Now organizing SCF variables                       ... done
                      ------------------
                      INITIAL GUESS DONE (   0.2 sec)
                      ------------------
--------------
SCF ITERATIONS
--------------
ITER       Energy         Delta-E        Max-DP      RMS-DP      [F,P]   Gradient Norm
               ***  Starting incremental Fock matrix formation  ***
                             ****Resetting KDIIS****
                             ****Turning on KDIIS(Cayley)****
  0    -92.5298881947   0.000000000000 0.04845575  0.00363075  0.3191859   0.198101521
  1    -92.6134527198  -0.083564525072 0.04819123  0.00481852  0.2760663   0.168173238
  2    -92.7404903891  -0.127037669335 0.08443915  0.01008680  0.1949372   0.121822831
  3    -92.8847816431  -0.144291253960 0.10087162  0.01158721  0.0428584   0.029555119
  4    -92.8774533526   0.007328290534 0.08380028  0.00795376  0.0669428   0.051604143
  5    -92.8838022013  -0.006348848789 0.02861830  0.00344023  0.0568228   0.034054815
  6    -92.8905929954  -0.006790794031 0.05654995  0.00560850  0.0399377   0.022040896
  7    -92.8673355322   0.023257463207 0.13456452  0.01303870  0.0806038   0.048335785
  8    -92.8907446547  -0.023409122576 0.02569898  0.00280851  0.0415347   0.023679133
  9    -92.8972117124  -0.006467057695 0.00535643  0.00033986  0.0127268   0.006843476
 10    -92.8971225117   0.000089200751 0.08099161  0.00749472  0.0151348   0.008109615
 11    -92.8979980141  -0.000875502437 0.04798593  0.00323762  0.0152478   0.007696764
 12    -92.8994200449  -0.001422030729 0.00455420  0.00057651  0.0019250   0.001214414
 13    -92.8994644595  -0.000044414667 0.00051776  0.00004348  0.0006815   0.000476064
 14    -92.8994661215  -0.000001661954 0.00035182  0.00002906  0.0002441   0.000147878
                          ***Energy convergence achieved***
 15    -92.8994664171  -0.000000295586 0.00009253  0.00000842  0.0000242   0.000015422

            ***Energy convergence in two consecutive cycles with***
                    ***'reasonable' density convergence***
                       *** signaling convergence ***

                    *** KDIIS BlockDiag ( 0.000 sec) ***

               *****************************************************
               *                     SUCCESS                       *
               *           SCF CONVERGED AFTER  16 CYCLES          *
               *****************************************************

Setting up the final grid:

General Integration Accuracy     IntAcc      ...  4.670
Radial Grid Type                 RadialGrid  ... Gauss-Chebyshev
Angular Grid (max. acc.)         AngularGrid ... Lebedev-302
Angular grid pruning method      GridPruning ... 3 (G Style)
Weight generation scheme         WeightScheme... Becke
Basis function cutoff            BFCut       ...    1.0000e-10
Integration weight cutoff        WCut        ...    1.0000e-14
Grids for H and He will be reduced by one unit

# of grid points (after initial pruning)     ...  15818 (   0.0 sec)
# of grid points (after weights+screening)   ...  15713 (   0.0 sec)
nearest neighbour list constructed           ...    0.0 sec
Grid point re-assignment to atoms done       ...    0.0 sec
Grid point division into batches done        ...    0.1 sec
Reduced shell lists constructed in    0.1 sec

Total number of grid points                  ...    15713
Total number of batches                      ...      247
Average number of points per batch           ...       63
Average number of grid points per atom       ...     5238
Average number of shells per batch           ...    10.27 (73.33%)
Average number of basis functions per batch  ...    22.75 (75.83%)
Average number of large shells per batch     ...     9.06 (88.22%)
Average number of large basis fcns per batch ...    19.97 (87.77%)
Maximum spatial batch extension              ...  19.53, 20.64, 20.64 au
Average spatial batch extension              ...   3.41,  4.25,  4.20 au

Final grid set up in    0.1 sec
Final integration                            ... done (   0.1 sec)
Change in XC energy                          ...    -0.000096751
Integrated number of electrons               ...    13.999995557
Previous integrated no of electrons          ...    13.997545692

----------------
TOTAL SCF ENERGY
----------------

Total Energy       :          -92.89956318 Eh           -2527.92563 eV

Components:
Nuclear Repulsion  :           13.73191537 Eh             373.66441 eV
Electronic Energy  :         -106.63147854 Eh           -2901.59005 eV
One Electron Energy:         -152.18684966 Eh           -4141.21471 eV
Two Electron Energy:           45.55537111 Eh            1239.62467 eV

Virial components:
Potential Energy   :         -184.86442802 Eh           -5030.41683 eV
Kinetic Energy     :           91.96486484 Eh            2502.49120 eV
Virial Ratio       :            2.01016365


DFT components:
N(Alpha)           :        6.999997778579 electrons
N(Beta)            :        6.999997778579 electrons
N(Total)           :       13.999995557158 electrons
E(XC)              :       -8.410882346949 Eh       

---------------
SCF CONVERGENCE
---------------

  Last Energy change         ...   -1.0175e-08  Tolerance :   1.0000e-06
  Last MAX-Density change    ...    3.8779e-05  Tolerance :   1.0000e-05
  Last RMS-Density change    ...    3.9321e-06  Tolerance :   1.0000e-06
  Last DIIS Error            ...    1.0759e-05  Tolerance :   1.0000e-06

             **** THE GBW FILE WAS UPDATED (Scan_19.gbw) ****
             **** DENSITY FILE WAS UPDATED (Scan_19.scfp.tmp) ****
             **** ENERGY FILE WAS UPDATED (Scan_19.en.tmp) ****
----------------
ORBITAL ENERGIES
----------------

  NO   OCC          E(Eh)            E(eV) 
   0   2.0000     -14.541365      -395.6907 
   1   2.0000     -10.462205      -284.6911 
   2   2.0000      -0.815230       -22.1835 
   3   2.0000      -0.779197       -21.2030 
   4   2.0000      -0.454309       -12.3624 
   5   2.0000      -0.320710        -8.7270 
   6   2.0000      -0.320692        -8.7265 
   7   0.0000      -0.082048        -2.2326 
   8   0.0000      -0.082008        -2.2316 
   9   0.0000      -0.029929        -0.8144 
  10   0.0000       0.214483         5.8364 
  11   0.0000       0.611114        16.6293 
  12   0.0000       0.611130        16.6297 
  13   0.0000       0.700200        19.0534 
  14   0.0000       0.751351        20.4453 
  15   0.0000       0.828921        22.5561 
  16   0.0000       0.828931        22.5564 
  17   0.0000       0.842302        22.9202 
  18   0.0000       0.952033        25.9061 
  19   0.0000       1.220339        33.2071 
  20   0.0000       1.705041        46.3965 
  21   0.0000       1.705082        46.3977 
  22   0.0000       1.730201        47.0812 
  23   0.0000       1.730912        47.1005 
  24   0.0000       1.857616        50.5483 
  25   0.0000       1.858348        50.5682 
  26   0.0000       1.858582        50.5746 
  27   0.0000       1.858639        50.5761 
  28   0.0000       1.910459        51.9862 
  29   0.0000       2.257261        61.4232 

                    ********************************
                    * MULLIKEN POPULATION ANALYSIS *
                    ********************************

-----------------------
MULLIKEN ATOMIC CHARGES
-----------------------
   0 C :   -0.096196
   1 N :   -0.130520
   2 H :    0.226716
Sum of atomic charges:   -0.0000000

--------------------------------
MULLIKEN REDUCED ORBITAL CHARGES
--------------------------------
  0 C s       :     3.816142  s :     3.816142
      pz      :     0.551813  p :     2.268109
      px      :     1.162275
      py      :     0.554021
      dz2     :     0.003045  d :     0.011945
      dxz     :    -0.000115
      dyz     :    -0.000000
      dx2y2   :     0.009098
      dxy     :    -0.000083
  1 N s       :     3.992919  s :     3.992919
      pz      :     1.448104  p :     3.135972
      px      :     0.242366
      py      :     1.445502
      dz2     :     0.000309  d :     0.001629
      dxz     :     0.000197
      dyz     :     0.000000
      dx2y2   :     0.000922
      dxy     :     0.000201
  2 H s       :     0.773284  s :     0.773284


                     *******************************
                     * LOEWDIN POPULATION ANALYSIS *
                     *******************************

----------------------
LOEWDIN ATOMIC CHARGES
----------------------
   0 C :   -0.004165
   1 N :   -0.146106
   2 H :    0.150271

-------------------------------
LOEWDIN REDUCED ORBITAL CHARGES
-------------------------------
  0 C s       :     3.625074  s :     3.625074
      pz      :     0.552818  p :     2.361569
      px      :     1.253652
      py      :     0.555099
      dz2     :     0.004369  d :     0.017522
      dxz     :     0.000026
      dyz     :     0.000000
      dx2y2   :     0.013057
      dxy     :     0.000071
  1 N s       :     3.966924  s :     3.966924
      pz      :     1.446913  p :     3.176449
      px      :     0.285183
      py      :     1.444353
      dz2     :     0.000562  d :     0.002733
      dxz     :     0.000243
      dyz     :     0.000000
      dx2y2   :     0.001679
      dxy     :     0.000249
  2 H s       :     0.849729  s :     0.849729


                      *****************************
                      * MAYER POPULATION ANALYSIS *
                      *****************************

  NA   - Mulliken gross atomic population
  ZA   - Total nuclear charge
  QA   - Mulliken gross atomic charge
  VA   - Mayer's total valence
  BVA  - Mayer's bonded valence
  FA   - Mayer's free valence

  ATOM       NA         ZA         QA         VA         BVA        FA
  0 C      6.0962     6.0000    -0.0962     2.8314     2.8314    -0.0000
  1 N      7.1305     7.0000    -0.1305     2.0146     2.0146    -0.0000
  2 H      0.7733     1.0000     0.2267     0.8883     0.8883    -0.0000

  Mayer bond orders larger than 0.1
B(  0-C ,  1-N ) :   1.9789 B(  0-C ,  2-H ) :   0.8525 

-------
TIMINGS
-------

Total SCF time: 0 days 0 hours 0 min 6 sec 

Total time                  ....       6.557 sec
Sum of individual times     ....       6.353 sec  ( 96.9%)

Fock matrix formation       ....       6.037 sec  ( 92.1%)
  XC integration            ....       0.995 sec  ( 16.5% of F)
    Basis function eval.    ....       0.253 sec  ( 25.4% of XC)
    Density eval.           ....       0.046 sec  (  4.6% of XC)
    XC-Functional eval.     ....       0.256 sec  ( 25.8% of XC)
    XC-Potential eval.      ....       0.033 sec  (  3.4% of XC)
Diagonalization             ....       0.020 sec  (  0.3%)
Density matrix formation    ....       0.000 sec  (  0.0%)
Population analysis         ....       0.009 sec  (  0.1%)
Initial guess               ....       0.131 sec  (  2.0%)
Orbital Transformation      ....       0.000 sec  (  0.0%)
Orbital Orthonormalization  ....       0.000 sec  (  0.0%)
DIIS solution               ....       0.000 sec  (  0.0%)
Grid generation             ....       0.157 sec  (  2.4%)


-------------------------------------------------------------------------------
                          DFT DISPERSION CORRECTION                            
                                                                               
                              DFTD3 V3.1  Rev 1                                
                              USING zero damping                               
-------------------------------------------------------------------------------
The omegaB97X-D3 functional is recognized. Fit by Chai et al.
Active option DFTDOPT                   ...         3   

molecular C6(AA) [au] = 176.452826 


            DFT-D V3
 parameters
 s6 scaling factor         :     1.0000 
 rs6 scaling factor        :     1.2810 
 s8 scaling factor         :     1.0000 
 rs8 scaling factor        :     1.0940 
 Damping factor alpha6     :    14.0000 
 Damping factor alpha8     :    16.0000 
 ad hoc parameters k1-k3   :    16.0000     1.3333    -4.0000 

 Edisp/kcal,au: -0.078184693368  -0.000124595226 
 E6   /kcal   :  -0.036633047 
 E8   /kcal   :  -0.041551646 
 % E8         :  53.145500220 

-------------------------   ----------------
Dispersion correction           -0.000124595
-------------------------   ----------------


-------------------------   --------------------
FINAL SINGLE POINT ENERGY       -92.899687773143
-------------------------   --------------------


                            ***************************************
                            *     ORCA property calculations      *
                            ***************************************

                                    ---------------------
                                    Active property flags
                                    ---------------------
   (+) Dipole Moment


------------------------------------------------------------------------------
                       ORCA ELECTRIC PROPERTIES CALCULATION
------------------------------------------------------------------------------

Dipole Moment Calculation                       ... on
Quadrupole Moment Calculation                   ... off
Polarizability Calculation                      ... off
GBWName                                         ... Scan_19.gbw
Electron density file                           ... Scan_19.scfp.tmp

-------------
DIPOLE MOMENT
-------------
                                X             Y             Z
Electronic contribution:      0.79576       0.02313       0.00000
Nuclear contribution   :     -2.08837      -0.06171       0.00000
                        -----------------------------------------
Total Dipole Moment    :     -1.29261      -0.03858       0.00000
                        -----------------------------------------
Magnitude (a.u.)       :      1.29318
Magnitude (Debye)      :      3.28701


Timings for individual modules:

Sum of individual times         ...        6.987 sec (=   0.116 min)
GTO integral calculation        ...        0.402 sec (=   0.007 min)   5.8 %
SCF iterations                  ...        6.585 sec (=   0.110 min)  94.2 %
                             ****ORCA TERMINATED NORMALLY****
TOTAL RUN TIME: 0 days 0 hours 0 minutes 7 seconds 369 msec
