
                                 *****************
                                 * O   R   C   A *
                                 *****************

           --- An Ab Initio, DFT and Semiempirical electronic structure package ---

                  #######################################################
                  #                        -***-                        #
                  #  Department of molecular theory and spectroscopy    #
                  #              Directorship: Frank Neese              #
                  # Max Planck Institute for Chemical Energy Conversion #
                  #                  D-45470 Muelheim/Ruhr              #
                  #                       Germany                       #
                  #                                                     #
                  #                  All rights reserved                #
                  #                        -***-                        #
                  #######################################################


                         Program Version 4.0.0.2 - RELEASE -


 With contributions from (in alphabetic order):
   Daniel Aravena         : Magnetic Properties
   Michael Atanasov       : Ab Initio Ligand Field Theory
   Ute Becker             : Parallelization
   Martin Brehm           : Molecular dynamics
   Dmytro Bykov           : SCF Hessian
   Vijay G. Chilkuri      : MRCI spin determinant printing
   Dipayan Datta          : RHF DLPNO-CCSD density
   Achintya Kumar Dutta   : EOM-CC, STEOM-CC
   Dmitry Ganyushin       : Spin-Orbit,Spin-Spin,Magnetic field MRCI
   Yang Guo               : DLPNO-NEVPT2, CIM, IAO-localization
   Andreas Hansen         : Spin unrestricted coupled pair/coupled cluster methods
   Lee Huntington         : MR-EOM, pCC
   Robert Izsak           : Overlap fitted RIJCOSX, COSX-SCS-MP3, EOM
   Christian Kollmar      : KDIIS, OOCD, Brueckner-CCSD(T), CCSD density
   Simone Kossmann        : Meta GGA functionals, TD-DFT gradient, OOMP2, MP2 Hessian
   Martin Krupicka        : AUTO-CI
   Dagmar Lenk            : GEPOL surface
   Dimitrios Liakos       : Extrapolation schemes; parallel MDCI
   Dimitrios Manganas     : ROCIS; embedding schemes
   Dimitrios Pantazis     : SARC Basis sets
   Taras Petrenko         : DFT Hessian,TD-DFT gradient, ASA, ECA, R-Raman, ABS, FL, XAS/XES, NRVS
   Peter Pinski           : DLPNO-MP2
   Christoph Reimann      : Effective Core Potentials
   Marius Retegan         : Local ZFS, SOC
   Christoph Riplinger    : Optimizer, TS searches, QM/MM, DLPNO-CCSD(T), (RO)-DLPNO pert. Triples
   Tobias Risthaus        : Range-separated hybrids, TD-DFT gradient, RPA, STAB
   Michael Roemelt        : Restricted open shell CIS
   Masaaki Saitow         : Open-shell DLPNO
   Barbara Sandhoefer     : DKH picture change effects
   Kantharuban Sivalingam : CASSCF convergence, NEVPT2, FIC-MRCI
   Georgi Stoychev        : AutoAux
   Boris Wezisla          : Elementary symmetry handling
   Frank Wennmohs         : Technical directorship


 We gratefully acknowledge several colleagues who have allowed us to
 interface, adapt or use parts of their codes:
   Stefan Grimme, W. Hujo, H. Kruse,             : VdW corrections, initial TS optimization,
                  C. Bannwarth                     DFT functionals, gCP, sTDA/sTD-DF
   Ed Valeev                                     : LibInt (2-el integral package), F12 methods
   Garnet Chan, S. Sharma, J. Yang, R. Olivares  : DMRG
   Ulf Ekstrom                                   : XCFun DFT Library
   Mihaly Kallay                                 : mrcc  (arbitrary order and MRCC methods)
   Jiri Pittner, Ondrej Demel                    : Mk-CCSD
   Frank Weinhold                                : gennbo (NPA and NBO analysis)
   Christopher J. Cramer and Donald G. Truhlar   : smd solvation model


 Your calculation uses the libint2 library for the computation of 2-el integrals
 For citations please refer to: http://libint.valeyev.net

 This ORCA versions uses:
   CBLAS   interface :  Fast vector & matrix operations
   LAPACKE interface :  Fast linear algebra routines
   SCALAPACK package :  Parallel linear algebra routines


Your calculation utilizes the atom-pairwise dispersion correction
with the zero-damping scheme (D30)
Cite in your paper:
S.Grimme, J.Antony, S.Ehrlich and H.Krieg, J.Chem.Phys., 132, (2010), 154104 
   

XCFun DFT library Copyright 2009-2010 Ulf Ekstrom and contributors.
See http://admol.org/xcfun for more information. This is free soft-
ware; see the source code for copying conditions. There is ABSOLUTELY
NO WARRANTY; not even for MERCHANTABILITY or FITNESS FOR A PARTICULAR
PURPOSE. For details see the documentation. Scientific users of this 
library should cite U. Ekstrom, L. Visscher, R. Bast, A. J. Thorvald-
sen and K. Ruud; J.Chem.Theor.Comp. 2010, DOI: 10.1021/ct100117s
XCFun Version 0.99 
Your calculation utilizes the basis: 6-31G(d)
   H-He, Li-Ne : W. J. Hehre, R. Ditchfield and J.A. Pople, J. Chem. Phys. 56, 2257 (1972).
                 Note: He and Ne are unpublished basis sets taken from the Gaussian program.
                 Note: Li and B from J. D. Dill and J. A. Pople, J. Chem. Phys. 62, 2921 (1975).
   Na - Ar     : M. M. Francl, W. J. Pietro, W. J. Hehre, J. S. Binkley, M. S. Gordon, 
                 D. J. DeFrees and J. A. Pople, J. Chem. Phys. 77, 3654 (1982).
   K - Zn      : V. A. Rassolov, J. A. Pople, M. A. Ratner, and T. L. Windus, J. Chem. Phys. 109, 1223 (1998).

================================================================================
                                        WARNINGS
                       Please study these warnings very carefully!
================================================================================

Warning: TCutStore was < 0. Adjusted to Thresh (uncritical)

INFO   : the flag for use of LIBINT has been found!

================================================================================
                                       INPUT FILE
================================================================================
NAME = initial2.inp
|  1> ! WB97X-D3 6-31G(d) VerySlowConv
|  2> ! KDIIS NOSOSCF
|  3> %base "Scan_2"
|  4> 
|  5> %scf
|  6> maxiter 999
|  7> end
|  8> 
|  9> * xyz 0 1
| 10> C         -3.468072359112    0.401193333004   -0.000000000000
| 11> N         -2.437573597023    0.431643975669    0.000000000000
| 12> H         -4.534134043865    0.369692691327   -0.000000000000
| 13> **                         ****END OF INPUT****
================================================================================

                       ****************************
                       * Single Point Calculation *
                       ****************************

---------------------------------
CARTESIAN COORDINATES (ANGSTROEM)
---------------------------------
  C     -3.468072    0.401193   -0.000000
  N     -2.437574    0.431644    0.000000
  H     -4.534134    0.369693   -0.000000

----------------------------
CARTESIAN COORDINATES (A.U.)
----------------------------
  NO LB      ZA    FRAG     MASS         X           Y           Z
   0 C     6.0000    0    12.011   -6.553707    0.758146   -0.000000
   1 N     7.0000    0    14.007   -4.606347    0.815689    0.000000
   2 H     1.0000    0     1.008   -8.568272    0.698618   -0.000000

--------------------------------
INTERNAL COORDINATES (ANGSTROEM)
--------------------------------
 C      0   0   0     0.000000000000     0.00000000     0.00000000
 N      1   0   0     1.030948563366     0.00000000     0.00000000
 H      1   2   0     1.066526983308   179.99995356     0.00000000

---------------------------
INTERNAL COORDINATES (A.U.)
---------------------------
 C      0   0   0     0.000000000000     0.00000000     0.00000000
 N      1   0   0     1.948210442921     0.00000000     0.00000000
 H      1   2   0     2.015443912890   179.99995356     0.00000000

---------------------
BASIS SET INFORMATION
---------------------
There are 3 groups of distinct atoms

 Group   1 Type C   : 10s4p1d contracted to 3s2p1d pattern {631/31/1}
 Group   2 Type N   : 10s4p1d contracted to 3s2p1d pattern {631/31/1}
 Group   3 Type H   : 4s contracted to 2s pattern {31}

Atom   0C    basis set group =>   1
Atom   1N    basis set group =>   2
Atom   2H    basis set group =>   3
------------------------------------------------------------------------------
                           ORCA GTO INTEGRAL CALCULATION
------------------------------------------------------------------------------

                         BASIS SET STATISTICS AND STARTUP INFO

 # of primitive gaussian shells          ...   34
 # of primitive gaussian functions       ...   58
 # of contracted shells                  ...   14
 # of contracted basis functions         ...   30
 Highest angular momentum                ...    2
 Maximum contraction depth               ...    6
 Integral package used                   ... LIBINT
 Integral threshhold            Thresh   ...  1.000e-10
 Primitive cut-off              TCut     ...  1.000e-11


------------------------------ INTEGRAL EVALUATION ----------------------------


 * One electron integrals 
 Pre-screening matrix                    ... done
 Shell pair data                         ... done (   0.000 sec)

-------------------------------------------------------------------------------
                                 ORCA SCF
-------------------------------------------------------------------------------

------------
SCF SETTINGS
------------
Hamiltonian:
 Density Functional     Method          .... DFT(GTOs)
 Exchange Functional    Exchange        .... WB97X-D3
 Correlation Functional Correlation     .... WB97X-D3
 Gradients option       PostSCFGGA      .... off
 Hybrid DFT is turned on
   Fraction HF Exchange ScalHFX         ....  0.195728
   Scaling of DF-GGA-X  ScalDFX         ....  0.000000
   Scaling of DF-GGA-C  ScalDFC         ....  1.000000
   Scaling of DF-LDA-C  ScalLDAC        ....  1.000000
   Perturbative correction              ....  0.000000
 Long-range corrected/Screened/Range-Separated Hybrid DFT is turned on
   Amount of maximum screened exact exchange              ....  0.804272
   Range separation parameter mu (erf(mu*r12)/r12)        ....  0.250000


General Settings:
 Integral files         IntName         .... Scan_2
 Hartree-Fock type      HFTyp           .... RHF
 Total Charge           Charge          ....    0
 Multiplicity           Mult            ....    1
 Number of Electrons    NEL             ....   14
 Basis Dimension        Dim             ....   30
 Nuclear Repulsion      ENuc            ....     26.3013046810 Eh

Convergence Acceleration:
 DIIS                   CNVDIIS         .... on
   Start iteration      DIISMaxIt       ....     0
   Startup error        DIISStart       ....  0.200000
   # of expansion vecs  DIISMaxEq       ....     5
   Bias factor          DIISBfac        ....   1.050
   Max. coefficient     DIISMaxC        ....  10.000
 Newton-Raphson         CNVNR           .... off
 SOSCF                  CNVSOSCF        .... off
 Level Shifting         CNVShift        .... off
 Zerner damping         CNVZerner       .... off
 Static damping         CNVDamp         .... off
 Fernandez-Rico         CNVRico         .... off

SCF Procedure:
 Maximum # iterations   MaxIter         ....   999
 SCF integral mode      SCFMode         .... Direct
   Integral package                     .... LIBINT
 Reset frequeny         DirectResetFreq ....    20
 Integral Threshold     Thresh          ....  1.000e-10 Eh
 Primitive CutOff       TCut            ....  1.000e-11 Eh

Convergence Tolerance:
 Convergence Check Mode ConvCheckMode   .... All-Criteria
 Convergence forced     ConvForced      .... 0
 Energy Change          TolE            ....  1.000e-06 Eh
 Max Density Change     TolMaxP         ....  1.000e-05
 RMS Density Change     TolRMSP         ....  1.000e-06
 DIIS Error             TolErr          ....  1.000e-06


Diagonalization of the overlap matrix:
Smallest eigenvalue                        ... 3.129e-03
Time for diagonalization                   ...    0.001 sec
Threshold for overlap eigenvalues          ... 1.000e-08
Number of eigenvalues below threshold      ... 0
Time for construction of square roots      ...    0.004 sec
Total time needed                          ...    0.005 sec

-------------------
DFT GRID GENERATION
-------------------

General Integration Accuracy     IntAcc      ...  4.340
Radial Grid Type                 RadialGrid  ... Gauss-Chebyshev
Angular Grid (max. acc.)         AngularGrid ... Lebedev-110
Angular grid pruning method      GridPruning ... 3 (G Style)
Weight generation scheme         WeightScheme... Becke
Basis function cutoff            BFCut       ...    1.0000e-10
Integration weight cutoff        WCut        ...    1.0000e-14
Grids for H and He will be reduced by one unit

# of grid points (after initial pruning)     ...   4152 (   0.0 sec)
# of grid points (after weights+screening)   ...   4100 (   0.0 sec)
nearest neighbour list constructed           ...    0.0 sec
Grid point re-assignment to atoms done       ...    0.0 sec
Grid point division into batches done        ...    0.0 sec
Reduced shell lists constructed in    0.0 sec

Total number of grid points                  ...     4100
Total number of batches                      ...       65
Average number of points per batch           ...       63
Average number of grid points per atom       ...     1367
Average number of shells per batch           ...    12.18 (87.01%)
Average number of basis functions per batch  ...    26.48 (88.28%)
Average number of large shells per batch     ...    11.64 (95.52%)
Average number of large basis fcns per batch ...    25.85 (97.60%)
Maximum spatial batch extension              ...  18.11, 25.60, 31.36 au
Average spatial batch extension              ...   4.21,  6.65,  6.17 au

Time for grid setup =    0.027 sec

------------------------------
INITIAL GUESS: MODEL POTENTIAL
------------------------------
Loading Hartree-Fock densities                     ... done
Calculating cut-offs                               ... done
Setting up the integral package                    ... done
Initializing the effective Hamiltonian             ... done
Starting the Coulomb interaction                   ... done (   0.0 sec)
Reading the grid                                   ... done
Mapping shells                                     ... done
Starting the XC term evaluation                    ... done (   0.0 sec)
  promolecular density results
     # of electrons  =     13.999942455
     EX              =    -11.907457792
     EC              =     -0.437790114
     EX+EC           =    -12.345247907
Transforming the Hamiltonian                       ... done (   0.0 sec)
Diagonalizing the Hamiltonian                      ... done (   0.0 sec)
Back transforming the eigenvectors                 ... done (   0.0 sec)
Now organizing SCF variables                       ... done
                      ------------------
                      INITIAL GUESS DONE (   0.2 sec)
                      ------------------
--------------
SCF ITERATIONS
--------------
ITER       Energy         Delta-E        Max-DP      RMS-DP      [F,P]   Gradient Norm
               ***  Starting incremental Fock matrix formation  ***
                             ****Resetting KDIIS****
                             ****Turning on KDIIS(Cayley)****
  0    -93.2368394311   0.000000000000 0.03652175  0.00312503  0.1117406   0.123296425
  1    -93.2738733340  -0.037033902960 0.02391325  0.00259803  0.0840078   0.097447032
  2    -93.2968813336  -0.023007999597 0.04142204  0.00393096  0.0733910   0.079477571
  3    -93.3231245613  -0.026243227612 0.07014751  0.00640188  0.0482715   0.050512012
  4    -93.3408466049  -0.017722043674 0.01101704  0.00090949  0.0039472   0.003469305
  5    -93.3409451869  -0.000098581949 0.00353804  0.00031013  0.0008315   0.000603993
  6    -93.3409471627  -0.000001975860 0.00200082  0.00017450  0.0005894   0.000619101
  7    -93.3409503122  -0.000003149464 0.00036194  0.00002390  0.0000700   0.000071870
                          ***Energy convergence achieved***
  8    -93.3409503531  -0.000000040907 0.00003175  0.00000180  0.0000013   0.000001525
                           ***RMSP convergence achieved***
                           ***MAXP convergence achieved***
                    *** KDIIS BlockDiag ( 0.000 sec) ***

               *****************************************************
               *                     SUCCESS                       *
               *           SCF CONVERGED AFTER   9 CYCLES          *
               *****************************************************

Setting up the final grid:

General Integration Accuracy     IntAcc      ...  4.670
Radial Grid Type                 RadialGrid  ... Gauss-Chebyshev
Angular Grid (max. acc.)         AngularGrid ... Lebedev-302
Angular grid pruning method      GridPruning ... 3 (G Style)
Weight generation scheme         WeightScheme... Becke
Basis function cutoff            BFCut       ...    1.0000e-10
Integration weight cutoff        WCut        ...    1.0000e-14
Grids for H and He will be reduced by one unit

# of grid points (after initial pruning)     ...  15818 (   0.0 sec)
# of grid points (after weights+screening)   ...  15657 (   0.0 sec)
nearest neighbour list constructed           ...    0.0 sec
Grid point re-assignment to atoms done       ...    0.0 sec
Grid point division into batches done        ...    0.1 sec
Reduced shell lists constructed in    0.1 sec

Total number of grid points                  ...    15657
Total number of batches                      ...      246
Average number of points per batch           ...       63
Average number of grid points per atom       ...     5219
Average number of shells per batch           ...    11.23 (80.19%)
Average number of basis functions per batch  ...    24.60 (82.01%)
Average number of large shells per batch     ...    10.38 (92.43%)
Average number of large basis fcns per batch ...    22.89 (93.06%)
Maximum spatial batch extension              ...  20.10, 18.05, 25.05 au
Average spatial batch extension              ...   3.17,  4.05,  4.16 au

Final grid set up in    0.1 sec
Final integration                            ... done (   0.1 sec)
Change in XC energy                          ...     0.000096082
Integrated number of electrons               ...    13.999995961
Previous integrated no of electrons          ...    13.998797940

----------------
TOTAL SCF ENERGY
----------------

Total Energy       :          -93.34085427 Eh           -2539.93377 eV

Components:
Nuclear Repulsion  :           26.30130468 Eh             715.69489 eV
Electronic Energy  :         -119.64215895 Eh           -3255.62866 eV
One Electron Energy:         -177.43683420 Eh           -4828.30172 eV
Two Electron Energy:           57.79467525 Eh            1572.67307 eV

Virial components:
Potential Energy   :         -186.91936139 Eh           -5086.33441 eV
Kinetic Energy     :           93.57850712 Eh            2546.40064 eV
Virial Ratio       :            1.99746039


DFT components:
N(Alpha)           :        6.999997980409 electrons
N(Beta)            :        6.999997980409 electrons
N(Total)           :       13.999995960818 electrons
E(XC)              :       -8.834804091875 Eh       

---------------
SCF CONVERGENCE
---------------

  Last Energy change         ...    1.8886e-11  Tolerance :   1.0000e-06
  Last MAX-Density change    ...    4.3621e-07  Tolerance :   1.0000e-05
  Last RMS-Density change    ...    4.3817e-08  Tolerance :   1.0000e-06
  Last DIIS Error            ...    1.4168e-07  Tolerance :   1.0000e-06

             **** THE GBW FILE WAS UPDATED (Scan_2.gbw) ****
             **** DENSITY FILE WAS UPDATED (Scan_2.scfp.tmp) ****
             **** ENERGY FILE WAS UPDATED (Scan_2.en.tmp) ****
----------------
ORBITAL ENERGIES
----------------

  NO   OCC          E(Eh)            E(eV) 
   0   2.0000     -14.425261      -392.5313 
   1   2.0000     -10.306815      -280.4627 
   2   2.0000      -1.075101       -29.2550 
   3   2.0000      -0.699962       -19.0469 
   4   2.0000      -0.487327       -13.2608 
   5   2.0000      -0.487322       -13.2607 
   6   2.0000      -0.466551       -12.6955 
   7   0.0000       0.163920         4.4605 
   8   0.0000       0.163930         4.4608 
   9   0.0000       0.191911         5.2222 
  10   0.0000       0.364961         9.9311 
  11   0.0000       0.612724        16.6731 
  12   0.0000       0.612734        16.6733 
  13   0.0000       0.734250        19.9800 
  14   0.0000       0.834122        22.6976 
  15   0.0000       0.900306        24.4986 
  16   0.0000       0.900312        24.4987 
  17   0.0000       0.964688        26.2505 
  18   0.0000       1.422248        38.7013 
  19   0.0000       1.566668        42.6312 
  20   0.0000       1.566877        42.6369 
  21   0.0000       1.641834        44.6766 
  22   0.0000       1.743370        47.4395 
  23   0.0000       1.743389        47.4400 
  24   0.0000       2.129755        57.9536 
  25   0.0000       2.129810        57.9551 
  26   0.0000       2.794849        76.0517 
  27   0.0000       2.794872        76.0523 
  28   0.0000       2.907779        79.1247 
  29   0.0000       3.540525        96.3426 

                    ********************************
                    * MULLIKEN POPULATION ANALYSIS *
                    ********************************

-----------------------
MULLIKEN ATOMIC CHARGES
-----------------------
   0 C :   -0.045244
   1 N :   -0.223180
   2 H :    0.268424
Sum of atomic charges:   -0.0000000

--------------------------------
MULLIKEN REDUCED ORBITAL CHARGES
--------------------------------
  0 C s       :     3.101724  s :     3.101724
      pz      :     0.937657  p :     2.902409
      px      :     1.026986
      py      :     0.937766
      dz2     :     0.003769  d :     0.041111
      dxz     :     0.013010
      dyz     :     0.000012
      dx2y2   :     0.011311
      dxy     :     0.013009
  1 N s       :     3.655619  s :     3.655619
      pz      :     1.030332  p :     3.516743
      px      :     1.455749
      py      :     1.030662
      dz2     :     0.003210  d :     0.050818
      dxz     :     0.018972
      dyz     :     0.000017
      dx2y2   :     0.009664
      dxy     :     0.018956
  2 H s       :     0.731576  s :     0.731576


                     *******************************
                     * LOEWDIN POPULATION ANALYSIS *
                     *******************************

----------------------
LOEWDIN ATOMIC CHARGES
----------------------
   0 C :   -0.142477
   1 N :   -0.033230
   2 H :    0.175707

-------------------------------
LOEWDIN REDUCED ORBITAL CHARGES
-------------------------------
  0 C s       :     2.982470  s :     2.982470
      pz      :     0.923783  p :     3.062139
      px      :     1.214287
      py      :     0.924069
      dz2     :     0.010805  d :     0.097868
      dxz     :     0.027304
      dyz     :     0.000024
      dx2y2   :     0.032396
      dxy     :     0.027339
  1 N s       :     3.347093  s :     3.347093
      pz      :     1.019987  p :     3.590721
      px      :     1.550313
      py      :     1.020421
      dz2     :     0.009403  d :     0.095417
      dxz     :     0.028877
      dyz     :     0.000025
      dx2y2   :     0.028213
      dxy     :     0.028899
  2 H s       :     0.824293  s :     0.824293


                      *****************************
                      * MAYER POPULATION ANALYSIS *
                      *****************************

  NA   - Mulliken gross atomic population
  ZA   - Total nuclear charge
  QA   - Mulliken gross atomic charge
  VA   - Mayer's total valence
  BVA  - Mayer's bonded valence
  FA   - Mayer's free valence

  ATOM       NA         ZA         QA         VA         BVA        FA
  0 C      6.0452     6.0000    -0.0452     4.0369     4.0369    -0.0000
  1 N      7.2232     7.0000    -0.2232     3.1700     3.1700    -0.0000
  2 H      0.7316     1.0000     0.2684     0.8996     0.8996    -0.0000

  Mayer bond orders larger than 0.1
B(  0-C ,  1-N ) :   3.1536 B(  0-C ,  2-H ) :   0.8832 

-------
TIMINGS
-------

Total SCF time: 0 days 0 hours 0 min 4 sec 

Total time                  ....       4.163 sec
Sum of individual times     ....       4.044 sec  ( 97.1%)

Fock matrix formation       ....       3.723 sec  ( 89.4%)
  XC integration            ....       0.623 sec  ( 16.7% of F)
    Basis function eval.    ....       0.186 sec  ( 29.9% of XC)
    Density eval.           ....       0.031 sec  (  5.0% of XC)
    XC-Functional eval.     ....       0.171 sec  ( 27.5% of XC)
    XC-Potential eval.      ....       0.026 sec  (  4.2% of XC)
Diagonalization             ....       0.017 sec  (  0.4%)
Density matrix formation    ....       0.000 sec  (  0.0%)
Population analysis         ....       0.009 sec  (  0.2%)
Initial guess               ....       0.136 sec  (  3.3%)
Orbital Transformation      ....       0.000 sec  (  0.0%)
Orbital Orthonormalization  ....       0.000 sec  (  0.0%)
DIIS solution               ....       0.000 sec  (  0.0%)
Grid generation             ....       0.159 sec  (  3.8%)


-------------------------------------------------------------------------------
                          DFT DISPERSION CORRECTION                            
                                                                               
                              DFTD3 V3.1  Rev 1                                
                              USING zero damping                               
-------------------------------------------------------------------------------
The omegaB97X-D3 functional is recognized. Fit by Chai et al.
Active option DFTDOPT                   ...         3   

molecular C6(AA) [au] = 141.157079 


            DFT-D V3
 parameters
 s6 scaling factor         :     1.0000 
 rs6 scaling factor        :     1.2810 
 s8 scaling factor         :     1.0000 
 rs8 scaling factor        :     1.0940 
 Damping factor alpha6     :    14.0000 
 Damping factor alpha8     :    16.0000 
 ad hoc parameters k1-k3   :    16.0000     1.3333    -4.0000 

 Edisp/kcal,au: -0.009213267286  -0.000014682274 
 E6   /kcal   :  -0.001281913 
 E8   /kcal   :  -0.007931354 
 % E8         :  86.086225726 

-------------------------   ----------------
Dispersion correction           -0.000014682
-------------------------   ----------------


-------------------------   --------------------
FINAL SINGLE POINT ENERGY       -93.340868952898
-------------------------   --------------------


                            ***************************************
                            *     ORCA property calculations      *
                            ***************************************

                                    ---------------------
                                    Active property flags
                                    ---------------------
   (+) Dipole Moment


------------------------------------------------------------------------------
                       ORCA ELECTRIC PROPERTIES CALCULATION
------------------------------------------------------------------------------

Dipole Moment Calculation                       ... on
Quadrupole Moment Calculation                   ... off
Polarizability Calculation                      ... off
GBWName                                         ... Scan_2.gbw
Electron density file                           ... Scan_2.scfp.tmp

-------------
DIPOLE MOMENT
-------------
                                X             Y             Z
Electronic contribution:      0.30320       0.00890      -0.00000
Nuclear contribution   :     -1.46096      -0.04317       0.00000
                        -----------------------------------------
Total Dipole Moment    :     -1.15776      -0.03427      -0.00000
                        -----------------------------------------
Magnitude (a.u.)       :      1.15827
Magnitude (Debye)      :      2.94409


Timings for individual modules:

Sum of individual times         ...        4.599 sec (=   0.077 min)
GTO integral calculation        ...        0.410 sec (=   0.007 min)   8.9 %
SCF iterations                  ...        4.188 sec (=   0.070 min)  91.1 %
                             ****ORCA TERMINATED NORMALLY****
TOTAL RUN TIME: 0 days 0 hours 0 minutes 4 seconds 992 msec
