
                                 *****************
                                 * O   R   C   A *
                                 *****************

           --- An Ab Initio, DFT and Semiempirical electronic structure package ---

                  #######################################################
                  #                        -***-                        #
                  #  Department of molecular theory and spectroscopy    #
                  #              Directorship: Frank Neese              #
                  # Max Planck Institute for Chemical Energy Conversion #
                  #                  D-45470 Muelheim/Ruhr              #
                  #                       Germany                       #
                  #                                                     #
                  #                  All rights reserved                #
                  #                        -***-                        #
                  #######################################################


                         Program Version 4.0.0.2 - RELEASE -


 With contributions from (in alphabetic order):
   Daniel Aravena         : Magnetic Properties
   Michael Atanasov       : Ab Initio Ligand Field Theory
   Ute Becker             : Parallelization
   Martin Brehm           : Molecular dynamics
   Dmytro Bykov           : SCF Hessian
   Vijay G. Chilkuri      : MRCI spin determinant printing
   Dipayan Datta          : RHF DLPNO-CCSD density
   Achintya Kumar Dutta   : EOM-CC, STEOM-CC
   Dmitry Ganyushin       : Spin-Orbit,Spin-Spin,Magnetic field MRCI
   Yang Guo               : DLPNO-NEVPT2, CIM, IAO-localization
   Andreas Hansen         : Spin unrestricted coupled pair/coupled cluster methods
   Lee Huntington         : MR-EOM, pCC
   Robert Izsak           : Overlap fitted RIJCOSX, COSX-SCS-MP3, EOM
   Christian Kollmar      : KDIIS, OOCD, Brueckner-CCSD(T), CCSD density
   Simone Kossmann        : Meta GGA functionals, TD-DFT gradient, OOMP2, MP2 Hessian
   Martin Krupicka        : AUTO-CI
   Dagmar Lenk            : GEPOL surface
   Dimitrios Liakos       : Extrapolation schemes; parallel MDCI
   Dimitrios Manganas     : ROCIS; embedding schemes
   Dimitrios Pantazis     : SARC Basis sets
   Taras Petrenko         : DFT Hessian,TD-DFT gradient, ASA, ECA, R-Raman, ABS, FL, XAS/XES, NRVS
   Peter Pinski           : DLPNO-MP2
   Christoph Reimann      : Effective Core Potentials
   Marius Retegan         : Local ZFS, SOC
   Christoph Riplinger    : Optimizer, TS searches, QM/MM, DLPNO-CCSD(T), (RO)-DLPNO pert. Triples
   Tobias Risthaus        : Range-separated hybrids, TD-DFT gradient, RPA, STAB
   Michael Roemelt        : Restricted open shell CIS
   Masaaki Saitow         : Open-shell DLPNO
   Barbara Sandhoefer     : DKH picture change effects
   Kantharuban Sivalingam : CASSCF convergence, NEVPT2, FIC-MRCI
   Georgi Stoychev        : AutoAux
   Boris Wezisla          : Elementary symmetry handling
   Frank Wennmohs         : Technical directorship


 We gratefully acknowledge several colleagues who have allowed us to
 interface, adapt or use parts of their codes:
   Stefan Grimme, W. Hujo, H. Kruse,             : VdW corrections, initial TS optimization,
                  C. Bannwarth                     DFT functionals, gCP, sTDA/sTD-DF
   Ed Valeev                                     : LibInt (2-el integral package), F12 methods
   Garnet Chan, S. Sharma, J. Yang, R. Olivares  : DMRG
   Ulf Ekstrom                                   : XCFun DFT Library
   Mihaly Kallay                                 : mrcc  (arbitrary order and MRCC methods)
   Jiri Pittner, Ondrej Demel                    : Mk-CCSD
   Frank Weinhold                                : gennbo (NPA and NBO analysis)
   Christopher J. Cramer and Donald G. Truhlar   : smd solvation model


 Your calculation uses the libint2 library for the computation of 2-el integrals
 For citations please refer to: http://libint.valeyev.net

 This ORCA versions uses:
   CBLAS   interface :  Fast vector & matrix operations
   LAPACKE interface :  Fast linear algebra routines
   SCALAPACK package :  Parallel linear algebra routines


Your calculation utilizes the atom-pairwise dispersion correction
with the zero-damping scheme (D30)
Cite in your paper:
S.Grimme, J.Antony, S.Ehrlich and H.Krieg, J.Chem.Phys., 132, (2010), 154104 
   

XCFun DFT library Copyright 2009-2010 Ulf Ekstrom and contributors.
See http://admol.org/xcfun for more information. This is free soft-
ware; see the source code for copying conditions. There is ABSOLUTELY
NO WARRANTY; not even for MERCHANTABILITY or FITNESS FOR A PARTICULAR
PURPOSE. For details see the documentation. Scientific users of this 
library should cite U. Ekstrom, L. Visscher, R. Bast, A. J. Thorvald-
sen and K. Ruud; J.Chem.Theor.Comp. 2010, DOI: 10.1021/ct100117s
XCFun Version 0.99 
Your calculation utilizes the basis: 6-31G(d)
   H-He, Li-Ne : W. J. Hehre, R. Ditchfield and J.A. Pople, J. Chem. Phys. 56, 2257 (1972).
                 Note: He and Ne are unpublished basis sets taken from the Gaussian program.
                 Note: Li and B from J. D. Dill and J. A. Pople, J. Chem. Phys. 62, 2921 (1975).
   Na - Ar     : M. M. Francl, W. J. Pietro, W. J. Hehre, J. S. Binkley, M. S. Gordon, 
                 D. J. DeFrees and J. A. Pople, J. Chem. Phys. 77, 3654 (1982).
   K - Zn      : V. A. Rassolov, J. A. Pople, M. A. Ratner, and T. L. Windus, J. Chem. Phys. 109, 1223 (1998).

================================================================================
                                        WARNINGS
                       Please study these warnings very carefully!
================================================================================

Warning: TCutStore was < 0. Adjusted to Thresh (uncritical)

INFO   : the flag for use of LIBINT has been found!

================================================================================
                                       INPUT FILE
================================================================================
NAME = initial20.inp
|  1> ! WB97X-D3 6-31G(d) VerySlowConv
|  2> ! KDIIS NOSOSCF
|  3> %base "Scan_20"
|  4> 
|  5> %scf
|  6> maxiter 999
|  7> end
|  8> 
|  9> * xyz 0 1
| 10> C         -3.917470704650    0.387913837479    0.000000000000
| 11> N         -1.506752414578    0.459148269457    0.000000000000
| 12> H         -5.015556880773    0.355467893065    0.000000000000
| 13> **                         ****END OF INPUT****
================================================================================

                       ****************************
                       * Single Point Calculation *
                       ****************************

---------------------------------
CARTESIAN COORDINATES (ANGSTROEM)
---------------------------------
  C     -3.917471    0.387914    0.000000
  N     -1.506752    0.459148    0.000000
  H     -5.015557    0.355468    0.000000

----------------------------
CARTESIAN COORDINATES (A.U.)
----------------------------
  NO LB      ZA    FRAG     MASS         X           Y           Z
   0 C     6.0000    0    12.011   -7.402947    0.733051    0.000000
   1 N     7.0000    0    14.007   -2.847349    0.867664    0.000000
   2 H     1.0000    0     1.008   -9.478029    0.671737    0.000000

--------------------------------
INTERNAL COORDINATES (ANGSTROEM)
--------------------------------
 C      0   0   0     0.000000000000     0.00000000     0.00000000
 N      1   0   0     2.411770515283     0.00000000     0.00000000
 H      1   2   0     1.098565423405   179.99992401     0.00000000

---------------------------
INTERNAL COORDINATES (A.U.)
---------------------------
 C      0   0   0     0.000000000000     0.00000000     0.00000000
 N      1   0   0     4.557585771750     0.00000000     0.00000000
 H      1   2   0     2.075987790431   179.99992401     0.00000000

---------------------
BASIS SET INFORMATION
---------------------
There are 3 groups of distinct atoms

 Group   1 Type C   : 10s4p1d contracted to 3s2p1d pattern {631/31/1}
 Group   2 Type N   : 10s4p1d contracted to 3s2p1d pattern {631/31/1}
 Group   3 Type H   : 4s contracted to 2s pattern {31}

Atom   0C    basis set group =>   1
Atom   1N    basis set group =>   2
Atom   2H    basis set group =>   3
------------------------------------------------------------------------------
                           ORCA GTO INTEGRAL CALCULATION
------------------------------------------------------------------------------

                         BASIS SET STATISTICS AND STARTUP INFO

 # of primitive gaussian shells          ...   34
 # of primitive gaussian functions       ...   58
 # of contracted shells                  ...   14
 # of contracted basis functions         ...   30
 Highest angular momentum                ...    2
 Maximum contraction depth               ...    6
 Integral package used                   ... LIBINT
 Integral threshhold            Thresh   ...  1.000e-10
 Primitive cut-off              TCut     ...  1.000e-11


------------------------------ INTEGRAL EVALUATION ----------------------------


 * One electron integrals 
 Pre-screening matrix                    ... done
 Shell pair data                         ... done (   0.000 sec)

-------------------------------------------------------------------------------
                                 ORCA SCF
-------------------------------------------------------------------------------

------------
SCF SETTINGS
------------
Hamiltonian:
 Density Functional     Method          .... DFT(GTOs)
 Exchange Functional    Exchange        .... WB97X-D3
 Correlation Functional Correlation     .... WB97X-D3
 Gradients option       PostSCFGGA      .... off
 Hybrid DFT is turned on
   Fraction HF Exchange ScalHFX         ....  0.195728
   Scaling of DF-GGA-X  ScalDFX         ....  0.000000
   Scaling of DF-GGA-C  ScalDFC         ....  1.000000
   Scaling of DF-LDA-C  ScalLDAC        ....  1.000000
   Perturbative correction              ....  0.000000
 Long-range corrected/Screened/Range-Separated Hybrid DFT is turned on
   Amount of maximum screened exact exchange              ....  0.804272
   Range separation parameter mu (erf(mu*r12)/r12)        ....  0.250000


General Settings:
 Integral files         IntName         .... Scan_20
 Hartree-Fock type      HFTyp           .... RHF
 Total Charge           Charge          ....    0
 Multiplicity           Mult            ....    1
 Number of Electrons    NEL             ....   14
 Basis Dimension        Dim             ....   30
 Nuclear Repulsion      ENuc            ....     13.1608338578 Eh

Convergence Acceleration:
 DIIS                   CNVDIIS         .... on
   Start iteration      DIISMaxIt       ....     0
   Startup error        DIISStart       ....  0.200000
   # of expansion vecs  DIISMaxEq       ....     5
   Bias factor          DIISBfac        ....   1.050
   Max. coefficient     DIISMaxC        ....  10.000
 Newton-Raphson         CNVNR           .... off
 SOSCF                  CNVSOSCF        .... off
 Level Shifting         CNVShift        .... off
 Zerner damping         CNVZerner       .... off
 Static damping         CNVDamp         .... off
 Fernandez-Rico         CNVRico         .... off

SCF Procedure:
 Maximum # iterations   MaxIter         ....   999
 SCF integral mode      SCFMode         .... Direct
   Integral package                     .... LIBINT
 Reset frequeny         DirectResetFreq ....    20
 Integral Threshold     Thresh          ....  1.000e-10 Eh
 Primitive CutOff       TCut            ....  1.000e-11 Eh

Convergence Tolerance:
 Convergence Check Mode ConvCheckMode   .... All-Criteria
 Convergence forced     ConvForced      .... 0
 Energy Change          TolE            ....  1.000e-06 Eh
 Max Density Change     TolMaxP         ....  1.000e-05
 RMS Density Change     TolRMSP         ....  1.000e-06
 DIIS Error             TolErr          ....  1.000e-06


Diagonalization of the overlap matrix:
Smallest eigenvalue                        ... 3.959e-02
Time for diagonalization                   ...    0.001 sec
Threshold for overlap eigenvalues          ... 1.000e-08
Number of eigenvalues below threshold      ... 0
Time for construction of square roots      ...    0.005 sec
Total time needed                          ...    0.006 sec

-------------------
DFT GRID GENERATION
-------------------

General Integration Accuracy     IntAcc      ...  4.340
Radial Grid Type                 RadialGrid  ... Gauss-Chebyshev
Angular Grid (max. acc.)         AngularGrid ... Lebedev-110
Angular grid pruning method      GridPruning ... 3 (G Style)
Weight generation scheme         WeightScheme... Becke
Basis function cutoff            BFCut       ...    1.0000e-10
Integration weight cutoff        WCut        ...    1.0000e-14
Grids for H and He will be reduced by one unit

# of grid points (after initial pruning)     ...   4152 (   0.0 sec)
# of grid points (after weights+screening)   ...   4110 (   0.0 sec)
nearest neighbour list constructed           ...    0.0 sec
Grid point re-assignment to atoms done       ...    0.0 sec
Grid point division into batches done        ...    0.0 sec
Reduced shell lists constructed in    0.0 sec

Total number of grid points                  ...     4110
Total number of batches                      ...       66
Average number of points per batch           ...       62
Average number of grid points per atom       ...     1370
Average number of shells per batch           ...    11.37 (81.24%)
Average number of basis functions per batch  ...    25.10 (83.68%)
Average number of large shells per batch     ...     9.96 (87.53%)
Average number of large basis fcns per batch ...    22.16 (88.29%)
Maximum spatial batch extension              ...  17.98, 25.60, 31.36 au
Average spatial batch extension              ...   4.42,  7.40,  7.06 au

Time for grid setup =    0.027 sec

------------------------------
INITIAL GUESS: MODEL POTENTIAL
------------------------------
Loading Hartree-Fock densities                     ... done
Calculating cut-offs                               ... done
Setting up the integral package                    ... done
Initializing the effective Hamiltonian             ... done
Starting the Coulomb interaction                   ... done (   0.0 sec)
Reading the grid                                   ... done
Mapping shells                                     ... done
Starting the XC term evaluation                    ... done (   0.0 sec)
  promolecular density results
     # of electrons  =     13.997674191
     EX              =    -11.624227801
     EC              =     -0.394458792
     EX+EC           =    -12.018686593
Transforming the Hamiltonian                       ... done (   0.0 sec)
Diagonalizing the Hamiltonian                      ... done (   0.0 sec)
Back transforming the eigenvectors                 ... done (   0.0 sec)
Now organizing SCF variables                       ... done
                      ------------------
                      INITIAL GUESS DONE (   0.1 sec)
                      ------------------
--------------
SCF ITERATIONS
--------------
ITER       Energy         Delta-E        Max-DP      RMS-DP      [F,P]   Gradient Norm
               ***  Starting incremental Fock matrix formation  ***
                             ****Resetting KDIIS****
                             ****Turning on KDIIS(Cayley)****
  0    -92.4676343934   0.000000000000 0.05300263  0.00397978  0.3293494   0.198618963
  1    -92.5540097198  -0.086375326400 0.04889020  0.00491233  0.2870653   0.169032479
  2    -92.6819718570  -0.127962137153 0.08269976  0.01024422  0.2096760   0.126491995
  3    -92.8478654794  -0.165893622462 0.14971455  0.01565544  0.0613561   0.040475534
  4    -92.7904641756   0.057401303828 0.12822652  0.01363571  0.1561287   0.108535451
  5    -92.8485785048  -0.058114329157 0.05270842  0.00578906  0.0715663   0.043925684
  6    -92.8616982932  -0.013119788426 0.02961593  0.00319809  0.0444057   0.026706483
  7    -92.8574423357   0.004255957533 0.11956687  0.00917992  0.0579833   0.035074118
  8    -92.8726740108  -0.015231675167 0.01749615  0.00193129  0.0167056   0.011333274
  9    -92.8710077792   0.001666231601 0.00974412  0.00113388  0.0262769   0.014244104
 10    -92.8731463408  -0.002138561533 0.04188676  0.00505262  0.0168767   0.009037744
 11    -92.8754171758  -0.002270834991 0.01721074  0.00114726  0.0074987   0.004827200
 12    -92.8757790968  -0.000361921009 0.00162729  0.00014470  0.0008081   0.000509210
 13    -92.8757837523  -0.000004655524 0.00026267  0.00002309  0.0000899   0.000100140
                          ***Energy convergence achieved***
 14    -92.8757838138  -0.000000061474 0.00028668  0.00002175  0.0000985   0.000052897

            ***Energy convergence in two consecutive cycles with***
                    ***'reasonable' density convergence***
                       *** signaling convergence ***

                    *** KDIIS BlockDiag ( 0.000 sec) ***

               *****************************************************
               *                     SUCCESS                       *
               *           SCF CONVERGED AFTER  15 CYCLES          *
               *****************************************************

Setting up the final grid:

General Integration Accuracy     IntAcc      ...  4.670
Radial Grid Type                 RadialGrid  ... Gauss-Chebyshev
Angular Grid (max. acc.)         AngularGrid ... Lebedev-302
Angular grid pruning method      GridPruning ... 3 (G Style)
Weight generation scheme         WeightScheme... Becke
Basis function cutoff            BFCut       ...    1.0000e-10
Integration weight cutoff        WCut        ...    1.0000e-14
Grids for H and He will be reduced by one unit

# of grid points (after initial pruning)     ...  15818 (   0.0 sec)
# of grid points (after weights+screening)   ...  15717 (   0.0 sec)
nearest neighbour list constructed           ...    0.0 sec
Grid point re-assignment to atoms done       ...    0.0 sec
Grid point division into batches done        ...    0.1 sec
Reduced shell lists constructed in    0.1 sec

Total number of grid points                  ...    15717
Total number of batches                      ...      247
Average number of points per batch           ...       63
Average number of grid points per atom       ...     5239
Average number of shells per batch           ...    10.10 (72.15%)
Average number of basis functions per batch  ...    22.42 (74.72%)
Average number of large shells per batch     ...     8.80 (87.11%)
Average number of large basis fcns per batch ...    19.24 (85.84%)
Maximum spatial batch extension              ...  19.76, 20.64, 20.64 au
Average spatial batch extension              ...   3.38,  4.22,  4.29 au

Final grid set up in    0.1 sec
Final integration                            ... done (   0.1 sec)
Change in XC energy                          ...    -0.000054844
Integrated number of electrons               ...    13.999998847
Previous integrated no of electrons          ...    13.997558462

----------------
TOTAL SCF ENERGY
----------------

Total Energy       :          -92.87583872 Eh           -2527.28006 eV

Components:
Nuclear Repulsion  :           13.16083386 Eh             358.12450 eV
Electronic Energy  :         -106.03667258 Eh           -2885.40455 eV
One Electron Energy:         -151.05434004 Eh           -4110.39756 eV
Two Electron Energy:           45.01766746 Eh            1224.99301 eV

Virial components:
Potential Energy   :         -184.90410637 Eh           -5031.49653 eV
Kinetic Energy     :           92.02826765 Eh            2504.21647 eV
Virial Ratio       :            2.00920990


DFT components:
N(Alpha)           :        6.999999423553 electrons
N(Beta)            :        6.999999423553 electrons
N(Total)           :       13.999998847106 electrons
E(XC)              :       -8.415252718839 Eh       

---------------
SCF CONVERGENCE
---------------

  Last Energy change         ...   -6.4130e-08  Tolerance :   1.0000e-06
  Last MAX-Density change    ...    2.9481e-05  Tolerance :   1.0000e-05
  Last RMS-Density change    ...    3.2630e-06  Tolerance :   1.0000e-06
  Last DIIS Error            ...    1.0677e-05  Tolerance :   1.0000e-06

             **** THE GBW FILE WAS UPDATED (Scan_20.gbw) ****
             **** DENSITY FILE WAS UPDATED (Scan_20.scfp.tmp) ****
             **** ENERGY FILE WAS UPDATED (Scan_20.en.tmp) ****
----------------
ORBITAL ENERGIES
----------------

  NO   OCC          E(Eh)            E(eV) 
   0   2.0000     -14.531976      -395.4352 
   1   2.0000     -10.465352      -284.7767 
   2   2.0000      -0.807984       -21.9864 
   3   2.0000      -0.778642       -21.1879 
   4   2.0000      -0.453316       -12.3354 
   5   2.0000      -0.312924        -8.5151 
   6   2.0000      -0.312909        -8.5147 
   7   0.0000      -0.087959        -2.3935 
   8   0.0000      -0.087927        -2.3926 
   9   0.0000      -0.032489        -0.8841 
  10   0.0000       0.206654         5.6233 
  11   0.0000       0.607507        16.5311 
  12   0.0000       0.607517        16.5314 
  13   0.0000       0.695688        18.9306 
  14   0.0000       0.728238        19.8164 
  15   0.0000       0.831095        22.6153 
  16   0.0000       0.831102        22.6154 
  17   0.0000       0.840583        22.8734 
  18   0.0000       0.945908        25.7395 
  19   0.0000       1.203711        32.7546 
  20   0.0000       1.707573        46.4654 
  21   0.0000       1.707605        46.4663 
  22   0.0000       1.726381        46.9772 
  23   0.0000       1.726992        46.9938 
  24   0.0000       1.852181        50.4004 
  25   0.0000       1.852220        50.4015 
  26   0.0000       1.863579        50.7106 
  27   0.0000       1.864672        50.7403 
  28   0.0000       1.931993        52.5722 
  29   0.0000       2.194853        59.7250 

                    ********************************
                    * MULLIKEN POPULATION ANALYSIS *
                    ********************************

-----------------------
MULLIKEN ATOMIC CHARGES
-----------------------
   0 C :   -0.073544
   1 N :   -0.140129
   2 H :    0.213673
Sum of atomic charges:    0.0000000

--------------------------------
MULLIKEN REDUCED ORBITAL CHARGES
--------------------------------
  0 C s       :     3.862026  s :     3.862026
      pz      :     0.504707  p :     2.198563
      px      :     1.187542
      py      :     0.506313
      dz2     :     0.003282  d :     0.012955
      dxz     :    -0.000084
      dyz     :    -0.000000
      dx2y2   :     0.009808
      dxy     :    -0.000050
  1 N s       :     3.995717  s :     3.995717
      pz      :     1.495270  p :     3.143429
      px      :     0.155056
      py      :     1.493103
      dz2     :     0.000193  d :     0.000984
      dxz     :     0.000106
      dyz     :     0.000000
      dx2y2   :     0.000576
      dxy     :     0.000108
  2 H s       :     0.786327  s :     0.786327


                     *******************************
                     * LOEWDIN POPULATION ANALYSIS *
                     *******************************

----------------------
LOEWDIN ATOMIC CHARGES
----------------------
   0 C :    0.009120
   1 N :   -0.152260
   2 H :    0.143140

-------------------------------
LOEWDIN REDUCED ORBITAL CHARGES
-------------------------------
  0 C s       :     3.675754  s :     3.675754
      pz      :     0.505402  p :     2.296674
      px      :     1.284183
      py      :     0.507090
      dz2     :     0.004613  d :     0.018452
      dxz     :     0.000002
      dyz     :     0.000000
      dx2y2   :     0.013787
      dxy     :     0.000050
  1 N s       :     3.978076  s :     3.978076
      pz      :     1.494463  p :     3.172562
      px      :     0.185774
      py      :     1.492325
      dz2     :     0.000339  d :     0.001622
      dxz     :     0.000133
      dyz     :     0.000000
      dx2y2   :     0.001014
      dxy     :     0.000136
  2 H s       :     0.856860  s :     0.856860


                      *****************************
                      * MAYER POPULATION ANALYSIS *
                      *****************************

  NA   - Mulliken gross atomic population
  ZA   - Total nuclear charge
  QA   - Mulliken gross atomic charge
  VA   - Mayer's total valence
  BVA  - Mayer's bonded valence
  FA   - Mayer's free valence

  ATOM       NA         ZA         QA         VA         BVA        FA
  0 C      6.0735     6.0000    -0.0735     2.6297     2.6297     0.0000
  1 N      7.1401     7.0000    -0.1401     1.7910     1.7910     0.0000
  2 H      0.7863     1.0000     0.2137     0.8896     0.8896     0.0000

  Mayer bond orders larger than 0.1
B(  0-C ,  1-N ) :   1.7655 B(  0-C ,  2-H ) :   0.8641 

-------
TIMINGS
-------

Total SCF time: 0 days 0 hours 0 min 5 sec 

Total time                  ....       5.238 sec
Sum of individual times     ....       5.039 sec  ( 96.2%)

Fock matrix formation       ....       4.731 sec  ( 90.3%)
  XC integration            ....       0.898 sec  ( 19.0% of F)
    Basis function eval.    ....       0.235 sec  ( 26.1% of XC)
    Density eval.           ....       0.042 sec  (  4.7% of XC)
    XC-Functional eval.     ....       0.244 sec  ( 27.1% of XC)
    XC-Potential eval.      ....       0.031 sec  (  3.5% of XC)
Diagonalization             ....       0.021 sec  (  0.4%)
Density matrix formation    ....       0.000 sec  (  0.0%)
Population analysis         ....       0.011 sec  (  0.2%)
Initial guess               ....       0.120 sec  (  2.3%)
Orbital Transformation      ....       0.000 sec  (  0.0%)
Orbital Orthonormalization  ....       0.000 sec  (  0.0%)
DIIS solution               ....       0.000 sec  (  0.0%)
Grid generation             ....       0.156 sec  (  3.0%)


-------------------------------------------------------------------------------
                          DFT DISPERSION CORRECTION                            
                                                                               
                              DFTD3 V3.1  Rev 1                                
                              USING zero damping                               
-------------------------------------------------------------------------------
The omegaB97X-D3 functional is recognized. Fit by Chai et al.
Active option DFTDOPT                   ...         3   

molecular C6(AA) [au] = 176.877836 


            DFT-D V3
 parameters
 s6 scaling factor         :     1.0000 
 rs6 scaling factor        :     1.2810 
 s8 scaling factor         :     1.0000 
 rs8 scaling factor        :     1.0940 
 Damping factor alpha6     :    14.0000 
 Damping factor alpha8     :    16.0000 
 ad hoc parameters k1-k3   :    16.0000     1.3333    -4.0000 

 Edisp/kcal,au: -0.079220014983  -0.000126245116 
 E6   /kcal   :  -0.038946083 
 E8   /kcal   :  -0.040273932 
 % E8         :  50.838076691 

-------------------------   ----------------
Dispersion correction           -0.000126245
-------------------------   ----------------


-------------------------   --------------------
FINAL SINGLE POINT ENERGY       -92.875964967092
-------------------------   --------------------


                            ***************************************
                            *     ORCA property calculations      *
                            ***************************************

                                    ---------------------
                                    Active property flags
                                    ---------------------
   (+) Dipole Moment


------------------------------------------------------------------------------
                       ORCA ELECTRIC PROPERTIES CALCULATION
------------------------------------------------------------------------------

Dipole Moment Calculation                       ... on
Quadrupole Moment Calculation                   ... off
Polarizability Calculation                      ... off
GBWName                                         ... Scan_20.gbw
Electron density file                           ... Scan_20.scfp.tmp

-------------
DIPOLE MOMENT
-------------
                                X             Y             Z
Electronic contribution:      0.79348       0.02359       0.00000
Nuclear contribution   :     -2.15733      -0.06375       0.00000
                        -----------------------------------------
Total Dipole Moment    :     -1.36385      -0.04016       0.00000
                        -----------------------------------------
Magnitude (a.u.)       :      1.36444
Magnitude (Debye)      :      3.46814


Timings for individual modules:

Sum of individual times         ...        5.588 sec (=   0.093 min)
GTO integral calculation        ...        0.325 sec (=   0.005 min)   5.8 %
SCF iterations                  ...        5.262 sec (=   0.088 min)  94.2 %
                             ****ORCA TERMINATED NORMALLY****
TOTAL RUN TIME: 0 days 0 hours 0 minutes 5 seconds 931 msec
