
                                 *****************
                                 * O   R   C   A *
                                 *****************

           --- An Ab Initio, DFT and Semiempirical electronic structure package ---

                  #######################################################
                  #                        -***-                        #
                  #  Department of molecular theory and spectroscopy    #
                  #              Directorship: Frank Neese              #
                  # Max Planck Institute for Chemical Energy Conversion #
                  #                  D-45470 Muelheim/Ruhr              #
                  #                       Germany                       #
                  #                                                     #
                  #                  All rights reserved                #
                  #                        -***-                        #
                  #######################################################


                         Program Version 4.0.0.2 - RELEASE -


 With contributions from (in alphabetic order):
   Daniel Aravena         : Magnetic Properties
   Michael Atanasov       : Ab Initio Ligand Field Theory
   Ute Becker             : Parallelization
   Martin Brehm           : Molecular dynamics
   Dmytro Bykov           : SCF Hessian
   Vijay G. Chilkuri      : MRCI spin determinant printing
   Dipayan Datta          : RHF DLPNO-CCSD density
   Achintya Kumar Dutta   : EOM-CC, STEOM-CC
   Dmitry Ganyushin       : Spin-Orbit,Spin-Spin,Magnetic field MRCI
   Yang Guo               : DLPNO-NEVPT2, CIM, IAO-localization
   Andreas Hansen         : Spin unrestricted coupled pair/coupled cluster methods
   Lee Huntington         : MR-EOM, pCC
   Robert Izsak           : Overlap fitted RIJCOSX, COSX-SCS-MP3, EOM
   Christian Kollmar      : KDIIS, OOCD, Brueckner-CCSD(T), CCSD density
   Simone Kossmann        : Meta GGA functionals, TD-DFT gradient, OOMP2, MP2 Hessian
   Martin Krupicka        : AUTO-CI
   Dagmar Lenk            : GEPOL surface
   Dimitrios Liakos       : Extrapolation schemes; parallel MDCI
   Dimitrios Manganas     : ROCIS; embedding schemes
   Dimitrios Pantazis     : SARC Basis sets
   Taras Petrenko         : DFT Hessian,TD-DFT gradient, ASA, ECA, R-Raman, ABS, FL, XAS/XES, NRVS
   Peter Pinski           : DLPNO-MP2
   Christoph Reimann      : Effective Core Potentials
   Marius Retegan         : Local ZFS, SOC
   Christoph Riplinger    : Optimizer, TS searches, QM/MM, DLPNO-CCSD(T), (RO)-DLPNO pert. Triples
   Tobias Risthaus        : Range-separated hybrids, TD-DFT gradient, RPA, STAB
   Michael Roemelt        : Restricted open shell CIS
   Masaaki Saitow         : Open-shell DLPNO
   Barbara Sandhoefer     : DKH picture change effects
   Kantharuban Sivalingam : CASSCF convergence, NEVPT2, FIC-MRCI
   Georgi Stoychev        : AutoAux
   Boris Wezisla          : Elementary symmetry handling
   Frank Wennmohs         : Technical directorship


 We gratefully acknowledge several colleagues who have allowed us to
 interface, adapt or use parts of their codes:
   Stefan Grimme, W. Hujo, H. Kruse,             : VdW corrections, initial TS optimization,
                  C. Bannwarth                     DFT functionals, gCP, sTDA/sTD-DF
   Ed Valeev                                     : LibInt (2-el integral package), F12 methods
   Garnet Chan, S. Sharma, J. Yang, R. Olivares  : DMRG
   Ulf Ekstrom                                   : XCFun DFT Library
   Mihaly Kallay                                 : mrcc  (arbitrary order and MRCC methods)
   Jiri Pittner, Ondrej Demel                    : Mk-CCSD
   Frank Weinhold                                : gennbo (NPA and NBO analysis)
   Christopher J. Cramer and Donald G. Truhlar   : smd solvation model


 Your calculation uses the libint2 library for the computation of 2-el integrals
 For citations please refer to: http://libint.valeyev.net

 This ORCA versions uses:
   CBLAS   interface :  Fast vector & matrix operations
   LAPACKE interface :  Fast linear algebra routines
   SCALAPACK package :  Parallel linear algebra routines


Your calculation utilizes the atom-pairwise dispersion correction
with the zero-damping scheme (D30)
Cite in your paper:
S.Grimme, J.Antony, S.Ehrlich and H.Krieg, J.Chem.Phys., 132, (2010), 154104 
   

XCFun DFT library Copyright 2009-2010 Ulf Ekstrom and contributors.
See http://admol.org/xcfun for more information. This is free soft-
ware; see the source code for copying conditions. There is ABSOLUTELY
NO WARRANTY; not even for MERCHANTABILITY or FITNESS FOR A PARTICULAR
PURPOSE. For details see the documentation. Scientific users of this 
library should cite U. Ekstrom, L. Visscher, R. Bast, A. J. Thorvald-
sen and K. Ruud; J.Chem.Theor.Comp. 2010, DOI: 10.1021/ct100117s
XCFun Version 0.99 
Your calculation utilizes the basis: 6-31G(d)
   H-He, Li-Ne : W. J. Hehre, R. Ditchfield and J.A. Pople, J. Chem. Phys. 56, 2257 (1972).
                 Note: He and Ne are unpublished basis sets taken from the Gaussian program.
                 Note: Li and B from J. D. Dill and J. A. Pople, J. Chem. Phys. 62, 2921 (1975).
   Na - Ar     : M. M. Francl, W. J. Pietro, W. J. Hehre, J. S. Binkley, M. S. Gordon, 
                 D. J. DeFrees and J. A. Pople, J. Chem. Phys. 77, 3654 (1982).
   K - Zn      : V. A. Rassolov, J. A. Pople, M. A. Ratner, and T. L. Windus, J. Chem. Phys. 109, 1223 (1998).

================================================================================
                                        WARNINGS
                       Please study these warnings very carefully!
================================================================================

Warning: TCutStore was < 0. Adjusted to Thresh (uncritical)

INFO   : the flag for use of LIBINT has been found!

================================================================================
                                       INPUT FILE
================================================================================
NAME = initial21.inp
|  1> ! WB97X-D3 6-31G(d) VerySlowConv
|  2> ! KDIIS NOSOSCF
|  3> %base "Scan_21"
|  4> 
|  5> %scf
|  6> maxiter 999
|  7> end
|  8> 
|  9> * xyz 0 1
| 10> C         -3.953664742131    0.386843403924    0.000000000000
| 11> N         -1.428077287858    0.461472243022    0.000000000000
| 12> H         -5.058037970011    0.354214353054    0.000000000000
| 13> **                         ****END OF INPUT****
================================================================================

                       ****************************
                       * Single Point Calculation *
                       ****************************

---------------------------------
CARTESIAN COORDINATES (ANGSTROEM)
---------------------------------
  C     -3.953665    0.386843    0.000000
  N     -1.428077    0.461472    0.000000
  H     -5.058038    0.354214    0.000000

----------------------------
CARTESIAN COORDINATES (A.U.)
----------------------------
  NO LB      ZA    FRAG     MASS         X           Y           Z
   0 C     6.0000    0    12.011   -7.471344    0.731028    0.000000
   1 N     7.0000    0    14.007   -2.698675    0.872056    0.000000
   2 H     1.0000    0     1.008   -9.558307    0.669368    0.000000

--------------------------------
INTERNAL COORDINATES (ANGSTROEM)
--------------------------------
 C      0   0   0     0.000000000000     0.00000000     0.00000000
 N      1   0   0     2.526689821250     0.00000000     0.00000000
 H      1   2   0     1.104855140468   179.99978305     0.00000000

---------------------------
INTERNAL COORDINATES (A.U.)
---------------------------
 C      0   0   0     0.000000000000     0.00000000     0.00000000
 N      1   0   0     4.774751787528     0.00000000     0.00000000
 H      1   2   0     2.087873633140   179.99978305     0.00000000

---------------------
BASIS SET INFORMATION
---------------------
There are 3 groups of distinct atoms

 Group   1 Type C   : 10s4p1d contracted to 3s2p1d pattern {631/31/1}
 Group   2 Type N   : 10s4p1d contracted to 3s2p1d pattern {631/31/1}
 Group   3 Type H   : 4s contracted to 2s pattern {31}

Atom   0C    basis set group =>   1
Atom   1N    basis set group =>   2
Atom   2H    basis set group =>   3
------------------------------------------------------------------------------
                           ORCA GTO INTEGRAL CALCULATION
------------------------------------------------------------------------------

                         BASIS SET STATISTICS AND STARTUP INFO

 # of primitive gaussian shells          ...   34
 # of primitive gaussian functions       ...   58
 # of contracted shells                  ...   14
 # of contracted basis functions         ...   30
 Highest angular momentum                ...    2
 Maximum contraction depth               ...    6
 Integral package used                   ... LIBINT
 Integral threshhold            Thresh   ...  1.000e-10
 Primitive cut-off              TCut     ...  1.000e-11


------------------------------ INTEGRAL EVALUATION ----------------------------


 * One electron integrals 
 Pre-screening matrix                    ... done
 Shell pair data                         ... done (   0.000 sec)

-------------------------------------------------------------------------------
                                 ORCA SCF
-------------------------------------------------------------------------------

------------
SCF SETTINGS
------------
Hamiltonian:
 Density Functional     Method          .... DFT(GTOs)
 Exchange Functional    Exchange        .... WB97X-D3
 Correlation Functional Correlation     .... WB97X-D3
 Gradients option       PostSCFGGA      .... off
 Hybrid DFT is turned on
   Fraction HF Exchange ScalHFX         ....  0.195728
   Scaling of DF-GGA-X  ScalDFX         ....  0.000000
   Scaling of DF-GGA-C  ScalDFC         ....  1.000000
   Scaling of DF-LDA-C  ScalLDAC        ....  1.000000
   Perturbative correction              ....  0.000000
 Long-range corrected/Screened/Range-Separated Hybrid DFT is turned on
   Amount of maximum screened exact exchange              ....  0.804272
   Range separation parameter mu (erf(mu*r12)/r12)        ....  0.250000


General Settings:
 Integral files         IntName         .... Scan_21
 Hartree-Fock type      HFTyp           .... RHF
 Total Charge           Charge          ....    0
 Multiplicity           Mult            ....    1
 Number of Electrons    NEL             ....   14
 Basis Dimension        Dim             ....   30
 Nuclear Repulsion      ENuc            ....     12.6900236893 Eh

Convergence Acceleration:
 DIIS                   CNVDIIS         .... on
   Start iteration      DIISMaxIt       ....     0
   Startup error        DIISStart       ....  0.200000
   # of expansion vecs  DIISMaxEq       ....     5
   Bias factor          DIISBfac        ....   1.050
   Max. coefficient     DIISMaxC        ....  10.000
 Newton-Raphson         CNVNR           .... off
 SOSCF                  CNVSOSCF        .... off
 Level Shifting         CNVShift        .... off
 Zerner damping         CNVZerner       .... off
 Static damping         CNVDamp         .... off
 Fernandez-Rico         CNVRico         .... off

SCF Procedure:
 Maximum # iterations   MaxIter         ....   999
 SCF integral mode      SCFMode         .... Direct
   Integral package                     .... LIBINT
 Reset frequeny         DirectResetFreq ....    20
 Integral Threshold     Thresh          ....  1.000e-10 Eh
 Primitive CutOff       TCut            ....  1.000e-11 Eh

Convergence Tolerance:
 Convergence Check Mode ConvCheckMode   .... All-Criteria
 Convergence forced     ConvForced      .... 0
 Energy Change          TolE            ....  1.000e-06 Eh
 Max Density Change     TolMaxP         ....  1.000e-05
 RMS Density Change     TolRMSP         ....  1.000e-06
 DIIS Error             TolErr          ....  1.000e-06


Diagonalization of the overlap matrix:
Smallest eigenvalue                        ... 4.163e-02
Time for diagonalization                   ...    0.001 sec
Threshold for overlap eigenvalues          ... 1.000e-08
Number of eigenvalues below threshold      ... 0
Time for construction of square roots      ...    0.049 sec
Total time needed                          ...    0.050 sec

-------------------
DFT GRID GENERATION
-------------------

General Integration Accuracy     IntAcc      ...  4.340
Radial Grid Type                 RadialGrid  ... Gauss-Chebyshev
Angular Grid (max. acc.)         AngularGrid ... Lebedev-110
Angular grid pruning method      GridPruning ... 3 (G Style)
Weight generation scheme         WeightScheme... Becke
Basis function cutoff            BFCut       ...    1.0000e-10
Integration weight cutoff        WCut        ...    1.0000e-14
Grids for H and He will be reduced by one unit

# of grid points (after initial pruning)     ...   4152 (   0.0 sec)
# of grid points (after weights+screening)   ...   4111 (   0.0 sec)
nearest neighbour list constructed           ...    0.0 sec
Grid point re-assignment to atoms done       ...    0.0 sec
Grid point division into batches done        ...    0.0 sec
Reduced shell lists constructed in    0.0 sec

Total number of grid points                  ...     4111
Total number of batches                      ...       66
Average number of points per batch           ...       62
Average number of grid points per atom       ...     1370
Average number of shells per batch           ...    11.33 (80.92%)
Average number of basis functions per batch  ...    24.97 (83.23%)
Average number of large shells per batch     ...     9.70 (85.64%)
Average number of large basis fcns per batch ...    21.16 (84.76%)
Maximum spatial batch extension              ...  17.97, 25.60, 31.36 au
Average spatial batch extension              ...   4.52,  7.37,  7.05 au

Time for grid setup =    0.071 sec

------------------------------
INITIAL GUESS: MODEL POTENTIAL
------------------------------
Loading Hartree-Fock densities                     ... done
Calculating cut-offs                               ... done
Setting up the integral package                    ... done
Initializing the effective Hamiltonian             ... done
Starting the Coulomb interaction                   ... done (   0.0 sec)
Reading the grid                                   ... done
Mapping shells                                     ... done
Starting the XC term evaluation                    ... done (   0.0 sec)
  promolecular density results
     # of electrons  =     13.997744669
     EX              =    -11.620957606
     EC              =     -0.393093404
     EX+EC           =    -12.014051011
Transforming the Hamiltonian                       ... done (   0.0 sec)
Diagonalizing the Hamiltonian                      ... done (   0.0 sec)
Back transforming the eigenvectors                 ... done (   0.0 sec)
Now organizing SCF variables                       ... done
                      ------------------
                      INITIAL GUESS DONE (   0.3 sec)
                      ------------------
--------------
SCF ITERATIONS
--------------
ITER       Energy         Delta-E        Max-DP      RMS-DP      [F,P]   Gradient Norm
               ***  Starting incremental Fock matrix formation  ***
                             ****Resetting KDIIS****
                             ****Turning on KDIIS(Cayley)****
  0    -92.4360359991   0.000000000000 0.05559606  0.00416913  0.3253140   0.193601225
  1    -92.5210893509  -0.085053351782 0.04953929  0.00500071  0.2846926   0.164799379
  2    -92.6450097483  -0.123920397424 0.08530925  0.01046840  0.2113868   0.125218270
  3    -92.8199640338  -0.174954285463 0.14714485  0.01625378  0.0704907   0.045906913
  4    -92.7839599784   0.036004055376 0.12331946  0.01372684  0.1440409   0.100588625
  5    -92.8276285659  -0.043668587543 0.05147058  0.00571440  0.0719644   0.045222867
  6    -92.8429211905  -0.015292624511 0.02513862  0.00280835  0.0484793   0.029107155
  7    -92.8361156244   0.006805566083 0.10862550  0.00848881  0.0622780   0.038103794
  8    -92.8568584513  -0.020742826936 0.03163413  0.00362872  0.0099379   0.006300841
  9    -92.8505848921   0.006273559186 0.01713462  0.00191171  0.0378491   0.020688087
 10    -92.8554718247  -0.004886932531 0.04071226  0.00434274  0.0180518   0.009667226
 11    -92.8547284658   0.000743358852 0.01094423  0.00130808  0.0262435   0.015937065
 12    -92.8548952411  -0.000166775300 0.00489011  0.00043305  0.0258800   0.013034394
 13    -92.8555735990  -0.000678357919 0.00531001  0.00048543  0.0231666   0.011681339
 14    -92.8562205912  -0.000646992164 0.04612971  0.00359863  0.0204530   0.010418463
 15    -92.8585632439  -0.002342652741 0.00206338  0.00019662  0.0023745   0.001634794
 16    -92.8585892936  -0.000026049648 0.00058506  0.00005640  0.0001801   0.000149658
                          ***Energy convergence achieved***
 17    -92.8585898326  -0.000000539050 0.00030922  0.00002250  0.0002213   0.000104714
 18    -92.8585901333  -0.000000300720 0.00071316  0.00006233  0.0001050   0.000058746
 19    -92.8585894669   0.000000666399 0.00208345  0.00018952  0.0000948   0.000058736
               *** Restarting incremental Fock matrix formation ***
                             ****Resetting KDIIS****
                           ***RMSP convergence achieved***
                           ***MAXP convergence achieved***
                    *** KDIIS BlockDiag ( 0.000 sec) ***

               *****************************************************
               *                     SUCCESS                       *
               *           SCF CONVERGED AFTER  20 CYCLES          *
               *****************************************************

Setting up the final grid:

General Integration Accuracy     IntAcc      ...  4.670
Radial Grid Type                 RadialGrid  ... Gauss-Chebyshev
Angular Grid (max. acc.)         AngularGrid ... Lebedev-302
Angular grid pruning method      GridPruning ... 3 (G Style)
Weight generation scheme         WeightScheme... Becke
Basis function cutoff            BFCut       ...    1.0000e-10
Integration weight cutoff        WCut        ...    1.0000e-14
Grids for H and He will be reduced by one unit

# of grid points (after initial pruning)     ...  15818 (   0.0 sec)
# of grid points (after weights+screening)   ...  15720 (   0.0 sec)
nearest neighbour list constructed           ...    0.0 sec
Grid point re-assignment to atoms done       ...    0.0 sec
Grid point division into batches done        ...    0.1 sec
Reduced shell lists constructed in    0.2 sec

Total number of grid points                  ...    15720
Total number of batches                      ...      247
Average number of points per batch           ...       63
Average number of grid points per atom       ...     5240
Average number of shells per batch           ...     9.95 (71.05%)
Average number of basis functions per batch  ...    21.95 (73.16%)
Average number of large shells per batch     ...     8.67 (87.19%)
Average number of large basis fcns per batch ...    18.83 (85.82%)
Maximum spatial batch extension              ...  19.98, 20.64, 20.64 au
Average spatial batch extension              ...   3.38,  4.21,  4.26 au

Final grid set up in    0.3 sec
Final integration                            ... done (   0.2 sec)
Change in XC energy                          ...     0.000110390
Integrated number of electrons               ...    14.000004185
Previous integrated no of electrons          ...    13.997627499

----------------
TOTAL SCF ENERGY
----------------

Total Energy       :          -92.85847811 Eh           -2526.80765 eV

Components:
Nuclear Repulsion  :           12.69002369 Eh             345.31310 eV
Electronic Energy  :         -105.54850180 Eh           -2872.12075 eV
One Electron Energy:         -150.12256557 Eh           -4085.04269 eV
Two Electron Energy:           44.57406377 Eh            1212.92194 eV

Virial components:
Potential Energy   :         -184.93400888 Eh           -5032.31022 eV
Kinetic Energy     :           92.07553077 Eh            2505.50257 eV
Virial Ratio       :            2.00850332


DFT components:
N(Alpha)           :        7.000002092737 electrons
N(Beta)            :        7.000002092737 electrons
N(Total)           :       14.000004185474 electrons
E(XC)              :       -8.419147937948 Eh       

---------------
SCF CONVERGENCE
---------------

  Last Energy change         ...    9.6473e-07  Tolerance :   1.0000e-06
  Last MAX-Density change    ...    6.6763e-06  Tolerance :   1.0000e-05
  Last RMS-Density change    ...    6.6031e-07  Tolerance :   1.0000e-06
  Last DIIS Error            ...    2.4475e-05  Tolerance :   1.0000e-06

             **** THE GBW FILE WAS UPDATED (Scan_21.gbw) ****
             **** DENSITY FILE WAS UPDATED (Scan_21.scfp.tmp) ****
             **** ENERGY FILE WAS UPDATED (Scan_21.en.tmp) ****
----------------
ORBITAL ENERGIES
----------------

  NO   OCC          E(Eh)            E(eV) 
   0   2.0000     -14.523661      -395.2089 
   1   2.0000     -10.468016      -284.8492 
   2   2.0000      -0.803985       -21.8775 
   3   2.0000      -0.777055       -21.1448 
   4   2.0000      -0.453799       -12.3485 
   5   2.0000      -0.306369        -8.3367 
   6   2.0000      -0.306359        -8.3365 
   7   0.0000      -0.092786        -2.5248 
   8   0.0000      -0.092762        -2.5242 
   9   0.0000      -0.032966        -0.8971 
  10   0.0000       0.200580         5.4581 
  11   0.0000       0.604836        16.4584 
  12   0.0000       0.604851        16.4588 
  13   0.0000       0.683168        18.5899 
  14   0.0000       0.711332        19.3563 
  15   0.0000       0.832779        22.6611 
  16   0.0000       0.832795        22.6615 
  17   0.0000       0.845364        23.0035 
  18   0.0000       0.940539        25.5934 
  19   0.0000       1.187204        32.3055 
  20   0.0000       1.705987        46.4223 
  21   0.0000       1.706003        46.4227 
  22   0.0000       1.722959        46.8841 
  23   0.0000       1.723595        46.9014 
  24   0.0000       1.851237        50.3747 
  25   0.0000       1.851257        50.3753 
  26   0.0000       1.868786        50.8523 
  27   0.0000       1.869953        50.8840 
  28   0.0000       1.930126        52.5214 
  29   0.0000       2.165036        58.9136 

                    ********************************
                    * MULLIKEN POPULATION ANALYSIS *
                    ********************************

-----------------------
MULLIKEN ATOMIC CHARGES
-----------------------
   0 C :   -0.053520
   1 N :   -0.151547
   2 H :    0.205067
Sum of atomic charges:   -0.0000000

--------------------------------
MULLIKEN REDUCED ORBITAL CHARGES
--------------------------------
  0 C s       :     3.890145  s :     3.890145
      pz      :     0.473282  p :     2.149752
      px      :     1.201968
      py      :     0.474502
      dz2     :     0.003433  d :     0.013623
      dxz     :    -0.000052
      dyz     :    -0.000000
      dx2y2   :     0.010258
      dxy     :    -0.000016
  1 N s       :     3.997383  s :     3.997383
      pz      :     1.526707  p :     3.153524
      px      :     0.101650
      py      :     1.525167
      dz2     :     0.000128  d :     0.000640
      dxz     :     0.000063
      dyz     :     0.000000
      dx2y2   :     0.000384
      dxy     :     0.000064
  2 H s       :     0.794933  s :     0.794933


                     *******************************
                     * LOEWDIN POPULATION ANALYSIS *
                     *******************************

----------------------
LOEWDIN ATOMIC CHARGES
----------------------
   0 C :    0.021589
   1 N :   -0.160165
   2 H :    0.138577

-------------------------------
LOEWDIN REDUCED ORBITAL CHARGES
-------------------------------
  0 C s       :     3.707831  s :     3.707831
      pz      :     0.473739  p :     2.251552
      px      :     1.302764
      py      :     0.475049
      dz2     :     0.004757  d :     0.019028
      dxz     :     0.000002
      dyz     :     0.000000
      dx2y2   :     0.014217
      dxy     :     0.000052
  1 N s       :     3.984969  s :     3.984969
      pz      :     1.526181  p :     3.174188
      px      :     0.123348
      py      :     1.524659
      dz2     :     0.000213  d :     0.001008
      dxz     :     0.000078
      dyz     :     0.000000
      dx2y2   :     0.000636
      dxy     :     0.000080
  2 H s       :     0.861423  s :     0.861423


                      *****************************
                      * MAYER POPULATION ANALYSIS *
                      *****************************

  NA   - Mulliken gross atomic population
  ZA   - Total nuclear charge
  QA   - Mulliken gross atomic charge
  VA   - Mayer's total valence
  BVA  - Mayer's bonded valence
  FA   - Mayer's free valence

  ATOM       NA         ZA         QA         VA         BVA        FA
  0 C      6.0535     6.0000    -0.0535     2.4918     2.4918    -0.0000
  1 N      7.1515     7.0000    -0.1515     1.6371     1.6371     0.0000
  2 H      0.7949     1.0000     0.2051     0.8905     0.8905    -0.0000

  Mayer bond orders larger than 0.1
B(  0-C ,  1-N ) :   1.6192 B(  0-C ,  2-H ) :   0.8726 

-------
TIMINGS
-------

Total SCF time: 0 days 0 hours 0 min 21 sec 

Total time                  ....      21.185 sec
Sum of individual times     ....      20.179 sec  ( 95.2%)

Fock matrix formation       ....      19.530 sec  ( 92.2%)
  XC integration            ....       3.612 sec  ( 18.5% of F)
    Basis function eval.    ....       0.478 sec  ( 13.2% of XC)
    Density eval.           ....       0.143 sec  (  4.0% of XC)
    XC-Functional eval.     ....       0.527 sec  ( 14.6% of XC)
    XC-Potential eval.      ....       0.044 sec  (  1.2% of XC)
Diagonalization             ....       0.100 sec  (  0.5%)
Density matrix formation    ....       0.000 sec  (  0.0%)
Population analysis         ....       0.010 sec  (  0.0%)
Initial guess               ....       0.216 sec  (  1.0%)
Orbital Transformation      ....       0.000 sec  (  0.0%)
Orbital Orthonormalization  ....       0.000 sec  (  0.0%)
DIIS solution               ....       0.000 sec  (  0.0%)
Grid generation             ....       0.323 sec  (  1.5%)


-------------------------------------------------------------------------------
                          DFT DISPERSION CORRECTION                            
                                                                               
                              DFTD3 V3.1  Rev 1                                
                              USING zero damping                               
-------------------------------------------------------------------------------
The omegaB97X-D3 functional is recognized. Fit by Chai et al.
Active option DFTDOPT                   ...         3   

molecular C6(AA) [au] = 177.046671 


            DFT-D V3
 parameters
 s6 scaling factor         :     1.0000 
 rs6 scaling factor        :     1.2810 
 s8 scaling factor         :     1.0000 
 rs8 scaling factor        :     1.0940 
 Damping factor alpha6     :    14.0000 
 Damping factor alpha8     :    16.0000 
 ad hoc parameters k1-k3   :    16.0000     1.3333    -4.0000 

 Edisp/kcal,au: -0.081945704600  -0.000130588779 
 E6   /kcal   :  -0.039163434 
 E8   /kcal   :  -0.042782270 
 % E8         :  52.208069262 

-------------------------   ----------------
Dispersion correction           -0.000130589
-------------------------   ----------------


-------------------------   --------------------
FINAL SINGLE POINT ENERGY       -92.858608701475
-------------------------   --------------------


                            ***************************************
                            *     ORCA property calculations      *
                            ***************************************

                                    ---------------------
                                    Active property flags
                                    ---------------------
   (+) Dipole Moment


------------------------------------------------------------------------------
                       ORCA ELECTRIC PROPERTIES CALCULATION
------------------------------------------------------------------------------

Dipole Moment Calculation                       ... on
Quadrupole Moment Calculation                   ... off
Polarizability Calculation                      ... off
GBWName                                         ... Scan_21.gbw
Electron density file                           ... Scan_21.scfp.tmp

-------------
DIPOLE MOMENT
-------------
                                X             Y             Z
Electronic contribution:      0.78000       0.02247       0.00000
Nuclear contribution   :     -2.21856      -0.06555       0.00000
                        -----------------------------------------
Total Dipole Moment    :     -1.43856      -0.04309       0.00000
                        -----------------------------------------
Magnitude (a.u.)       :      1.43920
Magnitude (Debye)      :      3.65816


Timings for individual modules:

Sum of individual times         ...       22.785 sec (=   0.380 min)
GTO integral calculation        ...        1.420 sec (=   0.024 min)   6.2 %
SCF iterations                  ...       21.365 sec (=   0.356 min)  93.8 %
                             ****ORCA TERMINATED NORMALLY****
TOTAL RUN TIME: 0 days 0 hours 0 minutes 24 seconds 264 msec
