
                                 *****************
                                 * O   R   C   A *
                                 *****************

           --- An Ab Initio, DFT and Semiempirical electronic structure package ---

                  #######################################################
                  #                        -***-                        #
                  #  Department of molecular theory and spectroscopy    #
                  #              Directorship: Frank Neese              #
                  # Max Planck Institute for Chemical Energy Conversion #
                  #                  D-45470 Muelheim/Ruhr              #
                  #                       Germany                       #
                  #                                                     #
                  #                  All rights reserved                #
                  #                        -***-                        #
                  #######################################################


                         Program Version 4.0.0.2 - RELEASE -


 With contributions from (in alphabetic order):
   Daniel Aravena         : Magnetic Properties
   Michael Atanasov       : Ab Initio Ligand Field Theory
   Ute Becker             : Parallelization
   Martin Brehm           : Molecular dynamics
   Dmytro Bykov           : SCF Hessian
   Vijay G. Chilkuri      : MRCI spin determinant printing
   Dipayan Datta          : RHF DLPNO-CCSD density
   Achintya Kumar Dutta   : EOM-CC, STEOM-CC
   Dmitry Ganyushin       : Spin-Orbit,Spin-Spin,Magnetic field MRCI
   Yang Guo               : DLPNO-NEVPT2, CIM, IAO-localization
   Andreas Hansen         : Spin unrestricted coupled pair/coupled cluster methods
   Lee Huntington         : MR-EOM, pCC
   Robert Izsak           : Overlap fitted RIJCOSX, COSX-SCS-MP3, EOM
   Christian Kollmar      : KDIIS, OOCD, Brueckner-CCSD(T), CCSD density
   Simone Kossmann        : Meta GGA functionals, TD-DFT gradient, OOMP2, MP2 Hessian
   Martin Krupicka        : AUTO-CI
   Dagmar Lenk            : GEPOL surface
   Dimitrios Liakos       : Extrapolation schemes; parallel MDCI
   Dimitrios Manganas     : ROCIS; embedding schemes
   Dimitrios Pantazis     : SARC Basis sets
   Taras Petrenko         : DFT Hessian,TD-DFT gradient, ASA, ECA, R-Raman, ABS, FL, XAS/XES, NRVS
   Peter Pinski           : DLPNO-MP2
   Christoph Reimann      : Effective Core Potentials
   Marius Retegan         : Local ZFS, SOC
   Christoph Riplinger    : Optimizer, TS searches, QM/MM, DLPNO-CCSD(T), (RO)-DLPNO pert. Triples
   Tobias Risthaus        : Range-separated hybrids, TD-DFT gradient, RPA, STAB
   Michael Roemelt        : Restricted open shell CIS
   Masaaki Saitow         : Open-shell DLPNO
   Barbara Sandhoefer     : DKH picture change effects
   Kantharuban Sivalingam : CASSCF convergence, NEVPT2, FIC-MRCI
   Georgi Stoychev        : AutoAux
   Boris Wezisla          : Elementary symmetry handling
   Frank Wennmohs         : Technical directorship


 We gratefully acknowledge several colleagues who have allowed us to
 interface, adapt or use parts of their codes:
   Stefan Grimme, W. Hujo, H. Kruse,             : VdW corrections, initial TS optimization,
                  C. Bannwarth                     DFT functionals, gCP, sTDA/sTD-DF
   Ed Valeev                                     : LibInt (2-el integral package), F12 methods
   Garnet Chan, S. Sharma, J. Yang, R. Olivares  : DMRG
   Ulf Ekstrom                                   : XCFun DFT Library
   Mihaly Kallay                                 : mrcc  (arbitrary order and MRCC methods)
   Jiri Pittner, Ondrej Demel                    : Mk-CCSD
   Frank Weinhold                                : gennbo (NPA and NBO analysis)
   Christopher J. Cramer and Donald G. Truhlar   : smd solvation model


 Your calculation uses the libint2 library for the computation of 2-el integrals
 For citations please refer to: http://libint.valeyev.net

 This ORCA versions uses:
   CBLAS   interface :  Fast vector & matrix operations
   LAPACKE interface :  Fast linear algebra routines
   SCALAPACK package :  Parallel linear algebra routines


Your calculation utilizes the atom-pairwise dispersion correction
with the zero-damping scheme (D30)
Cite in your paper:
S.Grimme, J.Antony, S.Ehrlich and H.Krieg, J.Chem.Phys., 132, (2010), 154104 
   

XCFun DFT library Copyright 2009-2010 Ulf Ekstrom and contributors.
See http://admol.org/xcfun for more information. This is free soft-
ware; see the source code for copying conditions. There is ABSOLUTELY
NO WARRANTY; not even for MERCHANTABILITY or FITNESS FOR A PARTICULAR
PURPOSE. For details see the documentation. Scientific users of this 
library should cite U. Ekstrom, L. Visscher, R. Bast, A. J. Thorvald-
sen and K. Ruud; J.Chem.Theor.Comp. 2010, DOI: 10.1021/ct100117s
XCFun Version 0.99 
Your calculation utilizes the basis: 6-31G(d)
   H-He, Li-Ne : W. J. Hehre, R. Ditchfield and J.A. Pople, J. Chem. Phys. 56, 2257 (1972).
                 Note: He and Ne are unpublished basis sets taken from the Gaussian program.
                 Note: Li and B from J. D. Dill and J. A. Pople, J. Chem. Phys. 62, 2921 (1975).
   Na - Ar     : M. M. Francl, W. J. Pietro, W. J. Hehre, J. S. Binkley, M. S. Gordon, 
                 D. J. DeFrees and J. A. Pople, J. Chem. Phys. 77, 3654 (1982).
   K - Zn      : V. A. Rassolov, J. A. Pople, M. A. Ratner, and T. L. Windus, J. Chem. Phys. 109, 1223 (1998).

================================================================================
                                        WARNINGS
                       Please study these warnings very carefully!
================================================================================

Warning: TCutStore was < 0. Adjusted to Thresh (uncritical)

INFO   : the flag for use of LIBINT has been found!

================================================================================
                                       INPUT FILE
================================================================================
NAME = initial22.inp
|  1> ! WB97X-D3 6-31G(d) VerySlowConv
|  2> ! KDIIS NOSOSCF
|  3> %base "Scan_22"
|  4> 
|  5> %scf
|  6> maxiter 999
|  7> end
|  8> 
|  9> * xyz 0 1
| 10> C         -3.989966344318    0.385769752350    0.000000000000
| 11> N         -1.354466881815    0.463646567392    0.000000000000
| 12> H         -5.095346773867    0.353113680258    0.000000000000
| 13> **                         ****END OF INPUT****
================================================================================

                       ****************************
                       * Single Point Calculation *
                       ****************************

---------------------------------
CARTESIAN COORDINATES (ANGSTROEM)
---------------------------------
  C     -3.989966    0.385770    0.000000
  N     -1.354467    0.463647    0.000000
  H     -5.095347    0.353114    0.000000

----------------------------
CARTESIAN COORDINATES (A.U.)
----------------------------
  NO LB      ZA    FRAG     MASS         X           Y           Z
   0 C     6.0000    0    12.011   -7.539944    0.728999    0.000000
   1 N     7.0000    0    14.007   -2.559571    0.876165    0.000000
   2 H     1.0000    0     1.008   -9.628810    0.667288    0.000000

--------------------------------
INTERNAL COORDINATES (ANGSTROEM)
--------------------------------
 C      0   0   0     0.000000000000     0.00000000     0.00000000
 N      1   0   0     2.636649808976     0.00000000     0.00000000
 H      1   2   0     1.105862700824   179.99963752     0.00000000

---------------------------
INTERNAL COORDINATES (A.U.)
---------------------------
 C      0   0   0     0.000000000000     0.00000000     0.00000000
 N      1   0   0     4.982546050021     0.00000000     0.00000000
 H      1   2   0     2.089777646276   179.99963752     0.00000000

---------------------
BASIS SET INFORMATION
---------------------
There are 3 groups of distinct atoms

 Group   1 Type C   : 10s4p1d contracted to 3s2p1d pattern {631/31/1}
 Group   2 Type N   : 10s4p1d contracted to 3s2p1d pattern {631/31/1}
 Group   3 Type H   : 4s contracted to 2s pattern {31}

Atom   0C    basis set group =>   1
Atom   1N    basis set group =>   2
Atom   2H    basis set group =>   3
------------------------------------------------------------------------------
                           ORCA GTO INTEGRAL CALCULATION
------------------------------------------------------------------------------

                         BASIS SET STATISTICS AND STARTUP INFO

 # of primitive gaussian shells          ...   34
 # of primitive gaussian functions       ...   58
 # of contracted shells                  ...   14
 # of contracted basis functions         ...   30
 Highest angular momentum                ...    2
 Maximum contraction depth               ...    6
 Integral package used                   ... LIBINT
 Integral threshhold            Thresh   ...  1.000e-10
 Primitive cut-off              TCut     ...  1.000e-11


------------------------------ INTEGRAL EVALUATION ----------------------------


 * One electron integrals 
 Pre-screening matrix                    ... done
 Shell pair data                         ... done (   0.000 sec)

-------------------------------------------------------------------------------
                                 ORCA SCF
-------------------------------------------------------------------------------

------------
SCF SETTINGS
------------
Hamiltonian:
 Density Functional     Method          .... DFT(GTOs)
 Exchange Functional    Exchange        .... WB97X-D3
 Correlation Functional Correlation     .... WB97X-D3
 Gradients option       PostSCFGGA      .... off
 Hybrid DFT is turned on
   Fraction HF Exchange ScalHFX         ....  0.195728
   Scaling of DF-GGA-X  ScalDFX         ....  0.000000
   Scaling of DF-GGA-C  ScalDFC         ....  1.000000
   Scaling of DF-LDA-C  ScalLDAC        ....  1.000000
   Perturbative correction              ....  0.000000
 Long-range corrected/Screened/Range-Separated Hybrid DFT is turned on
   Amount of maximum screened exact exchange              ....  0.804272
   Range separation parameter mu (erf(mu*r12)/r12)        ....  0.250000


General Settings:
 Integral files         IntName         .... Scan_22
 Hartree-Fock type      HFTyp           .... RHF
 Total Charge           Charge          ....    0
 Multiplicity           Mult            ....    1
 Number of Electrons    NEL             ....   14
 Basis Dimension        Dim             ....   30
 Nuclear Repulsion      ENuc            ....     12.2903179083 Eh

Convergence Acceleration:
 DIIS                   CNVDIIS         .... on
   Start iteration      DIISMaxIt       ....     0
   Startup error        DIISStart       ....  0.200000
   # of expansion vecs  DIISMaxEq       ....     5
   Bias factor          DIISBfac        ....   1.050
   Max. coefficient     DIISMaxC        ....  10.000
 Newton-Raphson         CNVNR           .... off
 SOSCF                  CNVSOSCF        .... off
 Level Shifting         CNVShift        .... off
 Zerner damping         CNVZerner       .... off
 Static damping         CNVDamp         .... off
 Fernandez-Rico         CNVRico         .... off

SCF Procedure:
 Maximum # iterations   MaxIter         ....   999
 SCF integral mode      SCFMode         .... Direct
   Integral package                     .... LIBINT
 Reset frequeny         DirectResetFreq ....    20
 Integral Threshold     Thresh          ....  1.000e-10 Eh
 Primitive CutOff       TCut            ....  1.000e-11 Eh

Convergence Tolerance:
 Convergence Check Mode ConvCheckMode   .... All-Criteria
 Convergence forced     ConvForced      .... 0
 Energy Change          TolE            ....  1.000e-06 Eh
 Max Density Change     TolMaxP         ....  1.000e-05
 RMS Density Change     TolRMSP         ....  1.000e-06
 DIIS Error             TolErr          ....  1.000e-06


Diagonalization of the overlap matrix:
Smallest eigenvalue                        ... 4.284e-02
Time for diagonalization                   ...    0.001 sec
Threshold for overlap eigenvalues          ... 1.000e-08
Number of eigenvalues below threshold      ... 0
Time for construction of square roots      ...    0.014 sec
Total time needed                          ...    0.014 sec

-------------------
DFT GRID GENERATION
-------------------

General Integration Accuracy     IntAcc      ...  4.340
Radial Grid Type                 RadialGrid  ... Gauss-Chebyshev
Angular Grid (max. acc.)         AngularGrid ... Lebedev-110
Angular grid pruning method      GridPruning ... 3 (G Style)
Weight generation scheme         WeightScheme... Becke
Basis function cutoff            BFCut       ...    1.0000e-10
Integration weight cutoff        WCut        ...    1.0000e-14
Grids for H and He will be reduced by one unit

# of grid points (after initial pruning)     ...   4152 (   0.0 sec)
# of grid points (after weights+screening)   ...   4112 (   0.0 sec)
nearest neighbour list constructed           ...    0.0 sec
Grid point re-assignment to atoms done       ...    0.0 sec
Grid point division into batches done        ...    0.0 sec
Reduced shell lists constructed in    0.1 sec

Total number of grid points                  ...     4112
Total number of batches                      ...       66
Average number of points per batch           ...       62
Average number of grid points per atom       ...     1371
Average number of shells per batch           ...    11.06 (79.00%)
Average number of basis functions per batch  ...    24.37 (81.24%)
Average number of large shells per batch     ...     9.57 (86.50%)
Average number of large basis fcns per batch ...    20.85 (85.55%)
Maximum spatial batch extension              ...  17.97, 25.60, 31.36 au
Average spatial batch extension              ...   4.49,  7.32,  7.16 au

Time for grid setup =    0.071 sec

------------------------------
INITIAL GUESS: MODEL POTENTIAL
------------------------------
Loading Hartree-Fock densities                     ... done
Calculating cut-offs                               ... done
Setting up the integral package                    ... done
Initializing the effective Hamiltonian             ... done
Starting the Coulomb interaction                   ... done (   0.0 sec)
Reading the grid                                   ... done
Mapping shells                                     ... done
Starting the XC term evaluation                    ... done (   0.1 sec)
  promolecular density results
     # of electrons  =     13.997796889
     EX              =    -11.619112211
     EC              =     -0.392089961
     EX+EC           =    -12.011202173
Transforming the Hamiltonian                       ... done (   0.0 sec)
Diagonalizing the Hamiltonian                      ... done (   0.0 sec)
Back transforming the eigenvectors                 ... done (   0.0 sec)
Now organizing SCF variables                       ... done
                      ------------------
                      INITIAL GUESS DONE (   0.4 sec)
                      ------------------
--------------
SCF ITERATIONS
--------------
ITER       Energy         Delta-E        Max-DP      RMS-DP      [F,P]   Gradient Norm
               ***  Starting incremental Fock matrix formation  ***
                             ****Resetting KDIIS****
                             ****Turning on KDIIS(Cayley)****
  0    -92.4270710478   0.000000000000 0.05613225  0.00423865  0.3101745   0.185065430
  1    -92.5081580756  -0.081087027792 0.04955389  0.00505147  0.2717626   0.157264081
  2    -92.6249288350  -0.116770759386 0.09421591  0.01069299  0.2025953   0.120152282
  3    -92.7993460133  -0.174417178378 0.14457207  0.01606532  0.0740859   0.047423628
  4    -92.7820994863   0.017246527060 0.12080383  0.01392546  0.1290354   0.093029196
  5    -92.8072630820  -0.025163595750 0.06497176  0.00719111  0.0738629   0.047924261
  6    -92.8275446509  -0.020281568905 0.03656889  0.00392117  0.0493519   0.030249429
  7    -92.8288562751  -0.001311624138 0.08371196  0.00803793  0.0503315   0.031641902
  8    -92.8411833763  -0.012327101247 0.02461524  0.00256306  0.0203475   0.012181208
  9    -92.8352273668   0.005956009532 0.02609744  0.00285643  0.0432826   0.023680883
 10    -92.8427072776  -0.007479910785 0.03079569  0.00320556  0.0151964   0.008162687
 11    -92.8437622410  -0.001054963470 0.00836732  0.00060761  0.0130171   0.007835039
 12    -92.8443043457  -0.000542104698 0.00529904  0.00046470  0.0094764   0.005127736
 13    -92.8445669817  -0.000262635994 0.00819331  0.00066623  0.0068606   0.003780406
 14    -92.8448093047  -0.000242323009 0.00534951  0.00047330  0.0029887   0.001717834
 15    -92.8448688563  -0.000059551598 0.00023119  0.00002470  0.0001630   0.000109675
                          ***Energy convergence achieved***
 16    -92.8448690394  -0.000000183038 0.00007738  0.00000529  0.0000783   0.000040091
 17    -92.8448690679  -0.000000028557 0.00016961  0.00001668  0.0000459   0.000022665
 18    -92.8448690007   0.000000067194 0.00038948  0.00003813  0.0000294   0.000019500

            ***Energy convergence in two consecutive cycles with***
                    ***'reasonable' density convergence***
                       *** signaling convergence ***

                    *** KDIIS BlockDiag ( 0.000 sec) ***

               *****************************************************
               *                     SUCCESS                       *
               *           SCF CONVERGED AFTER  19 CYCLES          *
               *****************************************************

Setting up the final grid:

General Integration Accuracy     IntAcc      ...  4.670
Radial Grid Type                 RadialGrid  ... Gauss-Chebyshev
Angular Grid (max. acc.)         AngularGrid ... Lebedev-302
Angular grid pruning method      GridPruning ... 3 (G Style)
Weight generation scheme         WeightScheme... Becke
Basis function cutoff            BFCut       ...    1.0000e-10
Integration weight cutoff        WCut        ...    1.0000e-14
Grids for H and He will be reduced by one unit

# of grid points (after initial pruning)     ...  15818 (   0.0 sec)
# of grid points (after weights+screening)   ...  15723 (   0.0 sec)
nearest neighbour list constructed           ...    0.0 sec
Grid point re-assignment to atoms done       ...    0.0 sec
Grid point division into batches done        ...    0.1 sec
Reduced shell lists constructed in    0.2 sec

Total number of grid points                  ...    15723
Total number of batches                      ...      248
Average number of points per batch           ...       63
Average number of grid points per atom       ...     5241
Average number of shells per batch           ...     9.88 (70.60%)
Average number of basis functions per batch  ...    21.80 (72.65%)
Average number of large shells per batch     ...     8.55 (86.55%)
Average number of large basis fcns per batch ...    18.58 (85.24%)
Maximum spatial batch extension              ...  20.19, 20.64, 20.64 au
Average spatial batch extension              ...   3.36,  4.20,  4.25 au

Final grid set up in    0.2 sec
Final integration                            ... done (   0.3 sec)
Change in XC energy                          ...     0.000135643
Integrated number of electrons               ...    14.000010838
Previous integrated no of electrons          ...    13.997574923

----------------
TOTAL SCF ENERGY
----------------

Total Energy       :          -92.84473326 Eh           -2526.43363 eV

Components:
Nuclear Repulsion  :           12.29031791 Eh             334.43655 eV
Electronic Energy  :         -105.13505117 Eh           -2860.87019 eV
One Electron Energy:         -149.33099075 Eh           -4063.50284 eV
Two Electron Energy:           44.19593959 Eh            1202.63266 eV

Virial components:
Potential Energy   :         -184.95972812 Eh           -5033.01008 eV
Kinetic Energy     :           92.11499487 Eh            2506.57644 eV
Virial Ratio       :            2.00792204


DFT components:
N(Alpha)           :        7.000005419169 electrons
N(Beta)            :        7.000005419169 electrons
N(Total)           :       14.000010838338 electrons
E(XC)              :       -8.423205782452 Eh       

---------------
SCF CONVERGENCE
---------------

  Last Energy change         ...    9.8666e-08  Tolerance :   1.0000e-06
  Last MAX-Density change    ...    9.0074e-05  Tolerance :   1.0000e-05
  Last RMS-Density change    ...    8.6125e-06  Tolerance :   1.0000e-06
  Last DIIS Error            ...    3.2694e-05  Tolerance :   1.0000e-06

             **** THE GBW FILE WAS UPDATED (Scan_22.gbw) ****
             **** DENSITY FILE WAS UPDATED (Scan_22.scfp.tmp) ****
             **** ENERGY FILE WAS UPDATED (Scan_22.en.tmp) ****
----------------
ORBITAL ENERGIES
----------------

  NO   OCC          E(Eh)            E(eV) 
   0   2.0000     -14.516396      -395.0112 
   1   2.0000     -10.469988      -284.9029 
   2   2.0000      -0.802889       -21.8477 
   3   2.0000      -0.774737       -21.0817 
   4   2.0000      -0.454911       -12.3787 
   5   2.0000      -0.300586        -8.1794 
   6   2.0000      -0.300576        -8.1791 
   7   0.0000      -0.096956        -2.6383 
   8   0.0000      -0.096936        -2.6378 
   9   0.0000      -0.032533        -0.8853 
  10   0.0000       0.196687         5.3521 
  11   0.0000       0.602869        16.4049 
  12   0.0000       0.602887        16.4054 
  13   0.0000       0.662060        18.0156 
  14   0.0000       0.704542        19.1716 
  15   0.0000       0.834025        22.6950 
  16   0.0000       0.834048        22.6956 
  17   0.0000       0.851867        23.1805 
  18   0.0000       0.938033        25.5252 
  19   0.0000       1.168885        31.8070 
  20   0.0000       1.703268        46.3483 
  21   0.0000       1.703272        46.3484 
  22   0.0000       1.719972        46.8028 
  23   0.0000       1.720713        46.8230 
  24   0.0000       1.852415        50.4068 
  25   0.0000       1.852456        50.4079 
  26   0.0000       1.873468        50.9797 
  27   0.0000       1.874462        51.0067 
  28   0.0000       1.916767        52.1579 
  29   0.0000       2.156774        58.6888 

                    ********************************
                    * MULLIKEN POPULATION ANALYSIS *
                    ********************************

-----------------------
MULLIKEN ATOMIC CHARGES
-----------------------
   0 C :   -0.037164
   1 N :   -0.162907
   2 H :    0.200071
Sum of atomic charges:   -0.0000000

--------------------------------
MULLIKEN REDUCED ORBITAL CHARGES
--------------------------------
  0 C s       :     3.907304  s :     3.907304
      pz      :     0.451594  p :     2.115715
      px      :     1.211450
      py      :     0.452671
      dz2     :     0.003548  d :     0.014145
      dxz     :    -0.000021
      dyz     :    -0.000000
      dx2y2   :     0.010603
      dxy     :     0.000016
  1 N s       :     3.998346  s :     3.998346
      pz      :     1.548388  p :     3.164112
      px      :     0.068928
      py      :     1.546797
      dz2     :     0.000092  d :     0.000448
      dxz     :     0.000040
      dyz     :     0.000000
      dx2y2   :     0.000276
      dxy     :     0.000040
  2 H s       :     0.799929  s :     0.799929


                     *******************************
                     * LOEWDIN POPULATION ANALYSIS *
                     *******************************

----------------------
LOEWDIN ATOMIC CHARGES
----------------------
   0 C :    0.033002
   1 N :   -0.168638
   2 H :    0.135637

-------------------------------
LOEWDIN REDUCED ORBITAL CHARGES
-------------------------------
  0 C s       :     3.726879  s :     3.726879
      pz      :     0.451880  p :     2.220603
      px      :     1.315675
      py      :     0.453048
      dz2     :     0.004874  d :     0.019515
      dxz     :     0.000013
      dyz     :     0.000000
      dx2y2   :     0.014565
      dxy     :     0.000064
  1 N s       :     3.989509  s :     3.989509
      pz      :     1.548058  p :     3.178474
      px      :     0.083935
      py      :     1.546481
      dz2     :     0.000140  d :     0.000656
      dxz     :     0.000049
      dyz     :     0.000000
      dx2y2   :     0.000418
      dxy     :     0.000050
  2 H s       :     0.864363  s :     0.864363


                      *****************************
                      * MAYER POPULATION ANALYSIS *
                      *****************************

  NA   - Mulliken gross atomic population
  ZA   - Total nuclear charge
  QA   - Mulliken gross atomic charge
  VA   - Mayer's total valence
  BVA  - Mayer's bonded valence
  FA   - Mayer's free valence

  ATOM       NA         ZA         QA         VA         BVA        FA
  0 C      6.0372     6.0000    -0.0372     2.3976     2.3976     0.0000
  1 N      7.1629     7.0000    -0.1629     1.5322     1.5322    -0.0000
  2 H      0.7999     1.0000     0.2001     0.8904     0.8904    -0.0000

  Mayer bond orders larger than 0.1
B(  0-C ,  1-N ) :   1.5197 B(  0-C ,  2-H ) :   0.8779 

-------
TIMINGS
-------

Total SCF time: 0 days 0 hours 0 min 20 sec 

Total time                  ....      20.035 sec
Sum of individual times     ....      19.095 sec  ( 95.3%)

Fock matrix formation       ....      18.299 sec  ( 91.3%)
  XC integration            ....       3.615 sec  ( 19.8% of F)
    Basis function eval.    ....       0.561 sec  ( 15.5% of XC)
    Density eval.           ....       0.141 sec  (  3.9% of XC)
    XC-Functional eval.     ....       0.708 sec  ( 19.6% of XC)
    XC-Potential eval.      ....       0.052 sec  (  1.4% of XC)
Diagonalization             ....       0.117 sec  (  0.6%)
Density matrix formation    ....       0.000 sec  (  0.0%)
Population analysis         ....       0.049 sec  (  0.2%)
Initial guess               ....       0.365 sec  (  1.8%)
Orbital Transformation      ....       0.000 sec  (  0.0%)
Orbital Orthonormalization  ....       0.000 sec  (  0.0%)
DIIS solution               ....       0.000 sec  (  0.0%)
Grid generation             ....       0.264 sec  (  1.3%)


-------------------------------------------------------------------------------
                          DFT DISPERSION CORRECTION                            
                                                                               
                              DFTD3 V3.1  Rev 1                                
                              USING zero damping                               
-------------------------------------------------------------------------------
The omegaB97X-D3 functional is recognized. Fit by Chai et al.
Active option DFTDOPT                   ...         3   

molecular C6(AA) [au] = 177.124383 


            DFT-D V3
 parameters
 s6 scaling factor         :     1.0000 
 rs6 scaling factor        :     1.2810 
 s8 scaling factor         :     1.0000 
 rs8 scaling factor        :     1.0940 
 Damping factor alpha6     :    14.0000 
 Damping factor alpha8     :    16.0000 
 ad hoc parameters k1-k3   :    16.0000     1.3333    -4.0000 

 Edisp/kcal,au: -0.087175918077  -0.000138923654 
 E6   /kcal   :  -0.038388207 
 E8   /kcal   :  -0.048787712 
 % E8         :  55.964666210 

-------------------------   ----------------
Dispersion correction           -0.000138924
-------------------------   ----------------


-------------------------   --------------------
FINAL SINGLE POINT ENERGY       -92.844872182338
-------------------------   --------------------


                            ***************************************
                            *     ORCA property calculations      *
                            ***************************************

                                    ---------------------
                                    Active property flags
                                    ---------------------
   (+) Dipole Moment


------------------------------------------------------------------------------
                       ORCA ELECTRIC PROPERTIES CALCULATION
------------------------------------------------------------------------------

Dipole Moment Calculation                       ... on
Quadrupole Moment Calculation                   ... off
Polarizability Calculation                      ... off
GBWName                                         ... Scan_22.gbw
Electron density file                           ... Scan_22.scfp.tmp

-------------
DIPOLE MOMENT
-------------
                                X             Y             Z
Electronic contribution:      0.75629       0.02233      -0.00000
Nuclear contribution   :     -2.27262      -0.06715       0.00000
                        -----------------------------------------
Total Dipole Moment    :     -1.51633      -0.04481      -0.00000
                        -----------------------------------------
Magnitude (a.u.)       :      1.51699
Magnitude (Debye)      :      3.85589


Timings for individual modules:

Sum of individual times         ...       21.223 sec (=   0.354 min)
GTO integral calculation        ...        0.974 sec (=   0.016 min)   4.6 %
SCF iterations                  ...       20.249 sec (=   0.337 min)  95.4 %
                             ****ORCA TERMINATED NORMALLY****
TOTAL RUN TIME: 0 days 0 hours 0 minutes 22 seconds 736 msec
