
                                 *****************
                                 * O   R   C   A *
                                 *****************

           --- An Ab Initio, DFT and Semiempirical electronic structure package ---

                  #######################################################
                  #                        -***-                        #
                  #  Department of molecular theory and spectroscopy    #
                  #              Directorship: Frank Neese              #
                  # Max Planck Institute for Chemical Energy Conversion #
                  #                  D-45470 Muelheim/Ruhr              #
                  #                       Germany                       #
                  #                                                     #
                  #                  All rights reserved                #
                  #                        -***-                        #
                  #######################################################


                         Program Version 4.0.0.2 - RELEASE -


 With contributions from (in alphabetic order):
   Daniel Aravena         : Magnetic Properties
   Michael Atanasov       : Ab Initio Ligand Field Theory
   Ute Becker             : Parallelization
   Martin Brehm           : Molecular dynamics
   Dmytro Bykov           : SCF Hessian
   Vijay G. Chilkuri      : MRCI spin determinant printing
   Dipayan Datta          : RHF DLPNO-CCSD density
   Achintya Kumar Dutta   : EOM-CC, STEOM-CC
   Dmitry Ganyushin       : Spin-Orbit,Spin-Spin,Magnetic field MRCI
   Yang Guo               : DLPNO-NEVPT2, CIM, IAO-localization
   Andreas Hansen         : Spin unrestricted coupled pair/coupled cluster methods
   Lee Huntington         : MR-EOM, pCC
   Robert Izsak           : Overlap fitted RIJCOSX, COSX-SCS-MP3, EOM
   Christian Kollmar      : KDIIS, OOCD, Brueckner-CCSD(T), CCSD density
   Simone Kossmann        : Meta GGA functionals, TD-DFT gradient, OOMP2, MP2 Hessian
   Martin Krupicka        : AUTO-CI
   Dagmar Lenk            : GEPOL surface
   Dimitrios Liakos       : Extrapolation schemes; parallel MDCI
   Dimitrios Manganas     : ROCIS; embedding schemes
   Dimitrios Pantazis     : SARC Basis sets
   Taras Petrenko         : DFT Hessian,TD-DFT gradient, ASA, ECA, R-Raman, ABS, FL, XAS/XES, NRVS
   Peter Pinski           : DLPNO-MP2
   Christoph Reimann      : Effective Core Potentials
   Marius Retegan         : Local ZFS, SOC
   Christoph Riplinger    : Optimizer, TS searches, QM/MM, DLPNO-CCSD(T), (RO)-DLPNO pert. Triples
   Tobias Risthaus        : Range-separated hybrids, TD-DFT gradient, RPA, STAB
   Michael Roemelt        : Restricted open shell CIS
   Masaaki Saitow         : Open-shell DLPNO
   Barbara Sandhoefer     : DKH picture change effects
   Kantharuban Sivalingam : CASSCF convergence, NEVPT2, FIC-MRCI
   Georgi Stoychev        : AutoAux
   Boris Wezisla          : Elementary symmetry handling
   Frank Wennmohs         : Technical directorship


 We gratefully acknowledge several colleagues who have allowed us to
 interface, adapt or use parts of their codes:
   Stefan Grimme, W. Hujo, H. Kruse,             : VdW corrections, initial TS optimization,
                  C. Bannwarth                     DFT functionals, gCP, sTDA/sTD-DF
   Ed Valeev                                     : LibInt (2-el integral package), F12 methods
   Garnet Chan, S. Sharma, J. Yang, R. Olivares  : DMRG
   Ulf Ekstrom                                   : XCFun DFT Library
   Mihaly Kallay                                 : mrcc  (arbitrary order and MRCC methods)
   Jiri Pittner, Ondrej Demel                    : Mk-CCSD
   Frank Weinhold                                : gennbo (NPA and NBO analysis)
   Christopher J. Cramer and Donald G. Truhlar   : smd solvation model


 Your calculation uses the libint2 library for the computation of 2-el integrals
 For citations please refer to: http://libint.valeyev.net

 This ORCA versions uses:
   CBLAS   interface :  Fast vector & matrix operations
   LAPACKE interface :  Fast linear algebra routines
   SCALAPACK package :  Parallel linear algebra routines


Your calculation utilizes the atom-pairwise dispersion correction
with the zero-damping scheme (D30)
Cite in your paper:
S.Grimme, J.Antony, S.Ehrlich and H.Krieg, J.Chem.Phys., 132, (2010), 154104 
   

XCFun DFT library Copyright 2009-2010 Ulf Ekstrom and contributors.
See http://admol.org/xcfun for more information. This is free soft-
ware; see the source code for copying conditions. There is ABSOLUTELY
NO WARRANTY; not even for MERCHANTABILITY or FITNESS FOR A PARTICULAR
PURPOSE. For details see the documentation. Scientific users of this 
library should cite U. Ekstrom, L. Visscher, R. Bast, A. J. Thorvald-
sen and K. Ruud; J.Chem.Theor.Comp. 2010, DOI: 10.1021/ct100117s
XCFun Version 0.99 
Your calculation utilizes the basis: 6-31G(d)
   H-He, Li-Ne : W. J. Hehre, R. Ditchfield and J.A. Pople, J. Chem. Phys. 56, 2257 (1972).
                 Note: He and Ne are unpublished basis sets taken from the Gaussian program.
                 Note: Li and B from J. D. Dill and J. A. Pople, J. Chem. Phys. 62, 2921 (1975).
   Na - Ar     : M. M. Francl, W. J. Pietro, W. J. Hehre, J. S. Binkley, M. S. Gordon, 
                 D. J. DeFrees and J. A. Pople, J. Chem. Phys. 77, 3654 (1982).
   K - Zn      : V. A. Rassolov, J. A. Pople, M. A. Ratner, and T. L. Windus, J. Chem. Phys. 109, 1223 (1998).

================================================================================
                                        WARNINGS
                       Please study these warnings very carefully!
================================================================================

Warning: TCutStore was < 0. Adjusted to Thresh (uncritical)

INFO   : the flag for use of LIBINT has been found!

================================================================================
                                       INPUT FILE
================================================================================
NAME = initial23.inp
|  1> ! WB97X-D3 6-31G(d) VerySlowConv
|  2> ! KDIIS NOSOSCF
|  3> %base "Scan_23"
|  4> 
|  5> %scf
|  6> maxiter 999
|  7> end
|  8> 
|  9> * xyz 0 1
| 10> C         -4.024639304887    0.384743849669   -0.000000000000
| 11> N         -1.282347259198    0.465776549616    0.000000000000
| 12> H         -5.132793435916    0.352009600715   -0.000000000000
| 13> **                         ****END OF INPUT****
================================================================================

                       ****************************
                       * Single Point Calculation *
                       ****************************

---------------------------------
CARTESIAN COORDINATES (ANGSTROEM)
---------------------------------
  C     -4.024639    0.384744   -0.000000
  N     -1.282347    0.465777    0.000000
  H     -5.132793    0.352010   -0.000000

----------------------------
CARTESIAN COORDINATES (A.U.)
----------------------------
  NO LB      ZA    FRAG     MASS         X           Y           Z
   0 C     6.0000    0    12.011   -7.605466    0.727061   -0.000000
   1 N     7.0000    0    14.007   -2.423285    0.880190    0.000000
   2 H     1.0000    0     1.008   -9.699574    0.665202   -0.000000

--------------------------------
INTERNAL COORDINATES (ANGSTROEM)
--------------------------------
 C      0   0   0     0.000000000000     0.00000000     0.00000000
 N      1   0   0     2.743489012610     0.00000000     0.00000000
 H      1   2   0     1.108637501247   179.99943768     0.00000000

---------------------------
INTERNAL COORDINATES (A.U.)
---------------------------
 C      0   0   0     0.000000000000     0.00000000     0.00000000
 N      1   0   0     5.184442885254     0.00000000     0.00000000
 H      1   2   0     2.095021259152   179.99943768     0.00000000

---------------------
BASIS SET INFORMATION
---------------------
There are 3 groups of distinct atoms

 Group   1 Type C   : 10s4p1d contracted to 3s2p1d pattern {631/31/1}
 Group   2 Type N   : 10s4p1d contracted to 3s2p1d pattern {631/31/1}
 Group   3 Type H   : 4s contracted to 2s pattern {31}

Atom   0C    basis set group =>   1
Atom   1N    basis set group =>   2
Atom   2H    basis set group =>   3
------------------------------------------------------------------------------
                           ORCA GTO INTEGRAL CALCULATION
------------------------------------------------------------------------------

                         BASIS SET STATISTICS AND STARTUP INFO

 # of primitive gaussian shells          ...   34
 # of primitive gaussian functions       ...   58
 # of contracted shells                  ...   14
 # of contracted basis functions         ...   30
 Highest angular momentum                ...    2
 Maximum contraction depth               ...    6
 Integral package used                   ... LIBINT
 Integral threshhold            Thresh   ...  1.000e-10
 Primitive cut-off              TCut     ...  1.000e-11


------------------------------ INTEGRAL EVALUATION ----------------------------


 * One electron integrals 
 Pre-screening matrix                    ... done
 Shell pair data                         ... done (   0.000 sec)

-------------------------------------------------------------------------------
                                 ORCA SCF
-------------------------------------------------------------------------------

------------
SCF SETTINGS
------------
Hamiltonian:
 Density Functional     Method          .... DFT(GTOs)
 Exchange Functional    Exchange        .... WB97X-D3
 Correlation Functional Correlation     .... WB97X-D3
 Gradients option       PostSCFGGA      .... off
 Hybrid DFT is turned on
   Fraction HF Exchange ScalHFX         ....  0.195728
   Scaling of DF-GGA-X  ScalDFX         ....  0.000000
   Scaling of DF-GGA-C  ScalDFC         ....  1.000000
   Scaling of DF-LDA-C  ScalLDAC        ....  1.000000
   Perturbative correction              ....  0.000000
 Long-range corrected/Screened/Range-Separated Hybrid DFT is turned on
   Amount of maximum screened exact exchange              ....  0.804272
   Range separation parameter mu (erf(mu*r12)/r12)        ....  0.250000


General Settings:
 Integral files         IntName         .... Scan_23
 Hartree-Fock type      HFTyp           .... RHF
 Total Charge           Charge          ....    0
 Multiplicity           Mult            ....    1
 Number of Electrons    NEL             ....   14
 Basis Dimension        Dim             ....   30
 Nuclear Repulsion      ENuc            ....     11.9267017387 Eh

Convergence Acceleration:
 DIIS                   CNVDIIS         .... on
   Start iteration      DIISMaxIt       ....     0
   Startup error        DIISStart       ....  0.200000
   # of expansion vecs  DIISMaxEq       ....     5
   Bias factor          DIISBfac        ....   1.050
   Max. coefficient     DIISMaxC        ....  10.000
 Newton-Raphson         CNVNR           .... off
 SOSCF                  CNVSOSCF        .... off
 Level Shifting         CNVShift        .... off
 Zerner damping         CNVZerner       .... off
 Static damping         CNVDamp         .... off
 Fernandez-Rico         CNVRico         .... off

SCF Procedure:
 Maximum # iterations   MaxIter         ....   999
 SCF integral mode      SCFMode         .... Direct
   Integral package                     .... LIBINT
 Reset frequeny         DirectResetFreq ....    20
 Integral Threshold     Thresh          ....  1.000e-10 Eh
 Primitive CutOff       TCut            ....  1.000e-11 Eh

Convergence Tolerance:
 Convergence Check Mode ConvCheckMode   .... All-Criteria
 Convergence forced     ConvForced      .... 0
 Energy Change          TolE            ....  1.000e-06 Eh
 Max Density Change     TolMaxP         ....  1.000e-05
 RMS Density Change     TolRMSP         ....  1.000e-06
 DIIS Error             TolErr          ....  1.000e-06


Diagonalization of the overlap matrix:
Smallest eigenvalue                        ... 4.407e-02
Time for diagonalization                   ...    0.001 sec
Threshold for overlap eigenvalues          ... 1.000e-08
Number of eigenvalues below threshold      ... 0
Time for construction of square roots      ...    0.005 sec
Total time needed                          ...    0.005 sec

-------------------
DFT GRID GENERATION
-------------------

General Integration Accuracy     IntAcc      ...  4.340
Radial Grid Type                 RadialGrid  ... Gauss-Chebyshev
Angular Grid (max. acc.)         AngularGrid ... Lebedev-110
Angular grid pruning method      GridPruning ... 3 (G Style)
Weight generation scheme         WeightScheme... Becke
Basis function cutoff            BFCut       ...    1.0000e-10
Integration weight cutoff        WCut        ...    1.0000e-14
Grids for H and He will be reduced by one unit

# of grid points (after initial pruning)     ...   4152 (   0.0 sec)
# of grid points (after weights+screening)   ...   4113 (   0.0 sec)
nearest neighbour list constructed           ...    0.0 sec
Grid point re-assignment to atoms done       ...    0.0 sec
Grid point division into batches done        ...    0.0 sec
Reduced shell lists constructed in    0.0 sec

Total number of grid points                  ...     4113
Total number of batches                      ...       66
Average number of points per batch           ...       62
Average number of grid points per atom       ...     1371
Average number of shells per batch           ...    11.04 (78.89%)
Average number of basis functions per batch  ...    24.30 (81.00%)
Average number of large shells per batch     ...     9.40 (85.14%)
Average number of large basis fcns per batch ...    20.36 (83.78%)
Maximum spatial batch extension              ...  17.96, 25.60, 31.36 au
Average spatial batch extension              ...   4.45,  7.18,  7.40 au

Time for grid setup =    0.026 sec

------------------------------
INITIAL GUESS: MODEL POTENTIAL
------------------------------
Loading Hartree-Fock densities                     ... done
Calculating cut-offs                               ... done
Setting up the integral package                    ... done
Initializing the effective Hamiltonian             ... done
Starting the Coulomb interaction                   ... done (   0.0 sec)
Reading the grid                                   ... done
Mapping shells                                     ... done
Starting the XC term evaluation                    ... done (   0.0 sec)
  promolecular density results
     # of electrons  =     13.997713066
     EX              =    -11.617434831
     EC              =     -0.391300604
     EX+EC           =    -12.008735435
Transforming the Hamiltonian                       ... done (   0.0 sec)
Diagonalizing the Hamiltonian                      ... done (   0.0 sec)
Back transforming the eigenvectors                 ... done (   0.0 sec)
Now organizing SCF variables                       ... done
                      ------------------
                      INITIAL GUESS DONE (   0.1 sec)
                      ------------------
--------------
SCF ITERATIONS
--------------
ITER       Energy         Delta-E        Max-DP      RMS-DP      [F,P]   Gradient Norm
               ***  Starting incremental Fock matrix formation  ***
                             ****Resetting KDIIS****
                             ****Turning on KDIIS(Cayley)****
  0    -92.4294812476   0.000000000000 0.05531131  0.00423071  0.2891974   0.175399369
  1    -92.5054403988  -0.075959151137 0.04909115  0.00508344  0.2532499   0.148685770
  2    -92.6140654122  -0.108625013467 0.10204811  0.01093690  0.1880859   0.113663460
  3    -92.7832800055  -0.169214593318 0.14380502  0.01584149  0.0752929   0.047165626
  4    -92.7786434733   0.004636532229 0.12876464  0.01417205  0.1165802   0.088095455
  5    -92.7920828863  -0.013439412952 0.09517295  0.01009505  0.0720307   0.048633585
  6    -92.8172056833  -0.025122797048 0.07811189  0.00895621  0.0387338   0.027252985
  7    -92.8301443963  -0.012938712973 0.04743514  0.00515921  0.0222462   0.014254061
  8    -92.8308029246  -0.000658528362 0.00371331  0.00030953  0.0234435   0.013031706
  9    -92.8304827107   0.000320213913 0.01756223  0.00199088  0.0249966   0.013792147
 10    -92.8332497599  -0.002767049187 0.00874359  0.00109915  0.0073041   0.003958671
 11    -92.8335731913  -0.000323431379 0.00218692  0.00017892  0.0013288   0.000850232
 12    -92.8335848356  -0.000011644345 0.00014078  0.00001613  0.0000508   0.000052850
                          ***Energy convergence achieved***
 13    -92.8335848866  -0.000000050977 0.00006217  0.00000588  0.0000273   0.000022728

            ***Energy convergence in two consecutive cycles with***
                    ***'reasonable' density convergence***
                       *** signaling convergence ***

                    *** KDIIS BlockDiag ( 0.000 sec) ***

               *****************************************************
               *                     SUCCESS                       *
               *           SCF CONVERGED AFTER  14 CYCLES          *
               *****************************************************

Setting up the final grid:

General Integration Accuracy     IntAcc      ...  4.670
Radial Grid Type                 RadialGrid  ... Gauss-Chebyshev
Angular Grid (max. acc.)         AngularGrid ... Lebedev-302
Angular grid pruning method      GridPruning ... 3 (G Style)
Weight generation scheme         WeightScheme... Becke
Basis function cutoff            BFCut       ...    1.0000e-10
Integration weight cutoff        WCut        ...    1.0000e-14
Grids for H and He will be reduced by one unit

# of grid points (after initial pruning)     ...  15818 (   0.0 sec)
# of grid points (after weights+screening)   ...  15723 (   0.0 sec)
nearest neighbour list constructed           ...    0.0 sec
Grid point re-assignment to atoms done       ...    0.0 sec
Grid point division into batches done        ...    0.1 sec
Reduced shell lists constructed in    0.1 sec

Total number of grid points                  ...    15723
Total number of batches                      ...      248
Average number of points per batch           ...       63
Average number of grid points per atom       ...     5241
Average number of shells per batch           ...     9.86 (70.45%)
Average number of basis functions per batch  ...    21.73 (72.45%)
Average number of large shells per batch     ...     8.37 (84.85%)
Average number of large basis fcns per batch ...    18.13 (83.41%)
Maximum spatial batch extension              ...  20.39, 20.64, 20.64 au
Average spatial batch extension              ...   3.35,  4.29,  4.27 au

Final grid set up in    0.1 sec
Final integration                            ... done (   0.1 sec)
Change in XC energy                          ...     0.000020434
Integrated number of electrons               ...    14.000013895
Previous integrated no of electrons          ...    13.997367282

----------------
TOTAL SCF ENERGY
----------------

Total Energy       :          -92.83356447 Eh           -2526.12972 eV

Components:
Nuclear Repulsion  :           11.92670174 Eh             324.54205 eV
Electronic Energy  :         -104.76026621 Eh           -2850.67177 eV
One Electron Energy:         -148.61169340 Eh           -4043.92977 eV
Two Electron Energy:           43.85142719 Eh            1193.25800 eV

Virial components:
Potential Energy   :         -184.97651084 Eh           -5033.46676 eV
Kinetic Energy     :           92.14294637 Eh            2507.33704 eV
Virial Ratio       :            2.00749507


DFT components:
N(Alpha)           :        7.000006947319 electrons
N(Beta)            :        7.000006947319 electrons
N(Total)           :       14.000013894639 electrons
E(XC)              :       -8.425969185389 Eh       

---------------
SCF CONVERGENCE
---------------

  Last Energy change         ...   -1.9427e-08  Tolerance :   1.0000e-06
  Last MAX-Density change    ...    2.1468e-05  Tolerance :   1.0000e-05
  Last RMS-Density change    ...    2.1596e-06  Tolerance :   1.0000e-06
  Last DIIS Error            ...    3.1449e-05  Tolerance :   1.0000e-06

             **** THE GBW FILE WAS UPDATED (Scan_23.gbw) ****
             **** DENSITY FILE WAS UPDATED (Scan_23.scfp.tmp) ****
             **** ENERGY FILE WAS UPDATED (Scan_23.en.tmp) ****
----------------
ORBITAL ENERGIES
----------------

  NO   OCC          E(Eh)            E(eV) 
   0   2.0000     -14.510029      -394.8380 
   1   2.0000     -10.472150      -284.9617 
   2   2.0000      -0.802660       -21.8415 
   3   2.0000      -0.771675       -20.9983 
   4   2.0000      -0.456452       -12.4207 
   5   2.0000      -0.295472        -8.0402 
   6   2.0000      -0.295440        -8.0393 
   7   0.0000      -0.100711        -2.7405 
   8   0.0000      -0.100668        -2.7393 
   9   0.0000      -0.031204        -0.8491 
  10   0.0000       0.192559         5.2398 
  11   0.0000       0.601231        16.3603 
  12   0.0000       0.601257        16.3610 
  13   0.0000       0.641057        17.4441 
  14   0.0000       0.701080        19.0774 
  15   0.0000       0.834925        22.7195 
  16   0.0000       0.834958        22.7204 
  17   0.0000       0.858345        23.3568 
  18   0.0000       0.933644        25.4057 
  19   0.0000       1.148280        31.2463 
  20   0.0000       1.700759        46.2800 
  21   0.0000       1.700764        46.2801 
  22   0.0000       1.717240        46.7285 
  23   0.0000       1.718136        46.7529 
  24   0.0000       1.854458        50.4624 
  25   0.0000       1.854489        50.4632 
  26   0.0000       1.877611        51.0924 
  27   0.0000       1.878336        51.1121 
  28   0.0000       1.902577        51.7718 
  29   0.0000       2.152106        58.5618 

                    ********************************
                    * MULLIKEN POPULATION ANALYSIS *
                    ********************************

-----------------------
MULLIKEN ATOMIC CHARGES
-----------------------
   0 C :   -0.023651
   1 N :   -0.173051
   2 H :    0.196702
Sum of atomic charges:   -0.0000000

--------------------------------
MULLIKEN REDUCED ORBITAL CHARGES
--------------------------------
  0 C s       :     3.918209  s :     3.918209
      pz      :     0.435500  p :     2.090993
      px      :     1.218130
      py      :     0.437362
      dz2     :     0.003610  d :     0.014449
      dxz     :     0.000007
      dyz     :     0.000000
      dx2y2   :     0.010788
      dxy     :     0.000045
  1 N s       :     3.998830  s :     3.998830
      pz      :     1.564467  p :     3.173898
      px      :     0.047424
      py      :     1.562007
      dz2     :     0.000068  d :     0.000323
      dxz     :     0.000026
      dyz     :    -0.000000
      dx2y2   :     0.000203
      dxy     :     0.000026
  2 H s       :     0.803298  s :     0.803298


                     *******************************
                     * LOEWDIN POPULATION ANALYSIS *
                     *******************************

----------------------
LOEWDIN ATOMIC CHARGES
----------------------
   0 C :    0.042814
   1 N :   -0.176787
   2 H :    0.133974

-------------------------------
LOEWDIN REDUCED ORBITAL CHARGES
-------------------------------
  0 C s       :     3.740308  s :     3.740308
      pz      :     0.435671  p :     2.197121
      px      :     1.323826
      py      :     0.437624
      dz2     :     0.004926  d :     0.019757
      dxz     :     0.000029
      dyz     :     0.000000
      dx2y2   :     0.014722
      dxy     :     0.000081
  1 N s       :     3.992577  s :     3.992577
      pz      :     1.564269  p :     3.183769
      px      :     0.057681
      py      :     1.561819
      dz2     :     0.000095  d :     0.000441
      dxz     :     0.000031
      dyz     :     0.000000
      dx2y2   :     0.000283
      dxy     :     0.000032
  2 H s       :     0.866026  s :     0.866026


                      *****************************
                      * MAYER POPULATION ANALYSIS *
                      *****************************

  NA   - Mulliken gross atomic population
  ZA   - Total nuclear charge
  QA   - Mulliken gross atomic charge
  VA   - Mayer's total valence
  BVA  - Mayer's bonded valence
  FA   - Mayer's free valence

  ATOM       NA         ZA         QA         VA         BVA        FA
  0 C      6.0237     6.0000    -0.0237     2.3310     2.3310    -0.0000
  1 N      7.1731     7.0000    -0.1731     1.4576     1.4576     0.0000
  2 H      0.8033     1.0000     0.1967     0.8910     0.8910    -0.0000

  Mayer bond orders larger than 0.1
B(  0-C ,  1-N ) :   1.4488 B(  0-C ,  2-H ) :   0.8822 

-------
TIMINGS
-------

Total SCF time: 0 days 0 hours 0 min 4 sec 

Total time                  ....       4.812 sec
Sum of individual times     ....       4.622 sec  ( 96.1%)

Fock matrix formation       ....       4.331 sec  ( 90.0%)
  XC integration            ....       0.834 sec  ( 19.3% of F)
    Basis function eval.    ....       0.215 sec  ( 25.7% of XC)
    Density eval.           ....       0.039 sec  (  4.6% of XC)
    XC-Functional eval.     ....       0.231 sec  ( 27.6% of XC)
    XC-Potential eval.      ....       0.027 sec  (  3.2% of XC)
Diagonalization             ....       0.013 sec  (  0.3%)
Density matrix formation    ....       0.000 sec  (  0.0%)
Population analysis         ....       0.010 sec  (  0.2%)
Initial guess               ....       0.117 sec  (  2.4%)
Orbital Transformation      ....       0.000 sec  (  0.0%)
Orbital Orthonormalization  ....       0.000 sec  (  0.0%)
DIIS solution               ....       0.000 sec  (  0.0%)
Grid generation             ....       0.152 sec  (  3.1%)


-------------------------------------------------------------------------------
                          DFT DISPERSION CORRECTION                            
                                                                               
                              DFTD3 V3.1  Rev 1                                
                              USING zero damping                               
-------------------------------------------------------------------------------
The omegaB97X-D3 functional is recognized. Fit by Chai et al.
Active option DFTDOPT                   ...         3   

molecular C6(AA) [au] = 177.170092 


            DFT-D V3
 parameters
 s6 scaling factor         :     1.0000 
 rs6 scaling factor        :     1.2810 
 s8 scaling factor         :     1.0000 
 rs8 scaling factor        :     1.0940 
 Damping factor alpha6     :    14.0000 
 Damping factor alpha8     :    16.0000 
 ad hoc parameters k1-k3   :    16.0000     1.3333    -4.0000 

 Edisp/kcal,au: -0.095103983866  -0.000151557829 
 E6   /kcal   :  -0.037274364 
 E8   /kcal   :  -0.057829619 
 % E8         :  60.806726532 

-------------------------   ----------------
Dispersion correction           -0.000151558
-------------------------   ----------------


-------------------------   --------------------
FINAL SINGLE POINT ENERGY       -92.833716030080
-------------------------   --------------------


                            ***************************************
                            *     ORCA property calculations      *
                            ***************************************

                                    ---------------------
                                    Active property flags
                                    ---------------------
   (+) Dipole Moment


------------------------------------------------------------------------------
                       ORCA ELECTRIC PROPERTIES CALCULATION
------------------------------------------------------------------------------

Dipole Moment Calculation                       ... on
Quadrupole Moment Calculation                   ... off
Polarizability Calculation                      ... off
GBWName                                         ... Scan_23.gbw
Electron density file                           ... Scan_23.scfp.tmp

-------------
DIPOLE MOMENT
-------------
                                X             Y             Z
Electronic contribution:      0.73243       0.02173      -0.00000
Nuclear contribution   :     -2.32677      -0.06874       0.00000
                        -----------------------------------------
Total Dipole Moment    :     -1.59434      -0.04702      -0.00000
                        -----------------------------------------
Magnitude (a.u.)       :      1.59503
Magnitude (Debye)      :      4.05424


Timings for individual modules:

Sum of individual times         ...        5.157 sec (=   0.086 min)
GTO integral calculation        ...        0.320 sec (=   0.005 min)   6.2 %
SCF iterations                  ...        4.836 sec (=   0.081 min)  93.8 %
                             ****ORCA TERMINATED NORMALLY****
TOTAL RUN TIME: 0 days 0 hours 0 minutes 5 seconds 516 msec
