
                                 *****************
                                 * O   R   C   A *
                                 *****************

           --- An Ab Initio, DFT and Semiempirical electronic structure package ---

                  #######################################################
                  #                        -***-                        #
                  #  Department of molecular theory and spectroscopy    #
                  #              Directorship: Frank Neese              #
                  # Max Planck Institute for Chemical Energy Conversion #
                  #                  D-45470 Muelheim/Ruhr              #
                  #                       Germany                       #
                  #                                                     #
                  #                  All rights reserved                #
                  #                        -***-                        #
                  #######################################################


                         Program Version 4.0.0.2 - RELEASE -


 With contributions from (in alphabetic order):
   Daniel Aravena         : Magnetic Properties
   Michael Atanasov       : Ab Initio Ligand Field Theory
   Ute Becker             : Parallelization
   Martin Brehm           : Molecular dynamics
   Dmytro Bykov           : SCF Hessian
   Vijay G. Chilkuri      : MRCI spin determinant printing
   Dipayan Datta          : RHF DLPNO-CCSD density
   Achintya Kumar Dutta   : EOM-CC, STEOM-CC
   Dmitry Ganyushin       : Spin-Orbit,Spin-Spin,Magnetic field MRCI
   Yang Guo               : DLPNO-NEVPT2, CIM, IAO-localization
   Andreas Hansen         : Spin unrestricted coupled pair/coupled cluster methods
   Lee Huntington         : MR-EOM, pCC
   Robert Izsak           : Overlap fitted RIJCOSX, COSX-SCS-MP3, EOM
   Christian Kollmar      : KDIIS, OOCD, Brueckner-CCSD(T), CCSD density
   Simone Kossmann        : Meta GGA functionals, TD-DFT gradient, OOMP2, MP2 Hessian
   Martin Krupicka        : AUTO-CI
   Dagmar Lenk            : GEPOL surface
   Dimitrios Liakos       : Extrapolation schemes; parallel MDCI
   Dimitrios Manganas     : ROCIS; embedding schemes
   Dimitrios Pantazis     : SARC Basis sets
   Taras Petrenko         : DFT Hessian,TD-DFT gradient, ASA, ECA, R-Raman, ABS, FL, XAS/XES, NRVS
   Peter Pinski           : DLPNO-MP2
   Christoph Reimann      : Effective Core Potentials
   Marius Retegan         : Local ZFS, SOC
   Christoph Riplinger    : Optimizer, TS searches, QM/MM, DLPNO-CCSD(T), (RO)-DLPNO pert. Triples
   Tobias Risthaus        : Range-separated hybrids, TD-DFT gradient, RPA, STAB
   Michael Roemelt        : Restricted open shell CIS
   Masaaki Saitow         : Open-shell DLPNO
   Barbara Sandhoefer     : DKH picture change effects
   Kantharuban Sivalingam : CASSCF convergence, NEVPT2, FIC-MRCI
   Georgi Stoychev        : AutoAux
   Boris Wezisla          : Elementary symmetry handling
   Frank Wennmohs         : Technical directorship


 We gratefully acknowledge several colleagues who have allowed us to
 interface, adapt or use parts of their codes:
   Stefan Grimme, W. Hujo, H. Kruse,             : VdW corrections, initial TS optimization,
                  C. Bannwarth                     DFT functionals, gCP, sTDA/sTD-DF
   Ed Valeev                                     : LibInt (2-el integral package), F12 methods
   Garnet Chan, S. Sharma, J. Yang, R. Olivares  : DMRG
   Ulf Ekstrom                                   : XCFun DFT Library
   Mihaly Kallay                                 : mrcc  (arbitrary order and MRCC methods)
   Jiri Pittner, Ondrej Demel                    : Mk-CCSD
   Frank Weinhold                                : gennbo (NPA and NBO analysis)
   Christopher J. Cramer and Donald G. Truhlar   : smd solvation model


 Your calculation uses the libint2 library for the computation of 2-el integrals
 For citations please refer to: http://libint.valeyev.net

 This ORCA versions uses:
   CBLAS   interface :  Fast vector & matrix operations
   LAPACKE interface :  Fast linear algebra routines
   SCALAPACK package :  Parallel linear algebra routines


Your calculation utilizes the atom-pairwise dispersion correction
with the zero-damping scheme (D30)
Cite in your paper:
S.Grimme, J.Antony, S.Ehrlich and H.Krieg, J.Chem.Phys., 132, (2010), 154104 
   

XCFun DFT library Copyright 2009-2010 Ulf Ekstrom and contributors.
See http://admol.org/xcfun for more information. This is free soft-
ware; see the source code for copying conditions. There is ABSOLUTELY
NO WARRANTY; not even for MERCHANTABILITY or FITNESS FOR A PARTICULAR
PURPOSE. For details see the documentation. Scientific users of this 
library should cite U. Ekstrom, L. Visscher, R. Bast, A. J. Thorvald-
sen and K. Ruud; J.Chem.Theor.Comp. 2010, DOI: 10.1021/ct100117s
XCFun Version 0.99 
Your calculation utilizes the basis: 6-31G(d)
   H-He, Li-Ne : W. J. Hehre, R. Ditchfield and J.A. Pople, J. Chem. Phys. 56, 2257 (1972).
                 Note: He and Ne are unpublished basis sets taken from the Gaussian program.
                 Note: Li and B from J. D. Dill and J. A. Pople, J. Chem. Phys. 62, 2921 (1975).
   Na - Ar     : M. M. Francl, W. J. Pietro, W. J. Hehre, J. S. Binkley, M. S. Gordon, 
                 D. J. DeFrees and J. A. Pople, J. Chem. Phys. 77, 3654 (1982).
   K - Zn      : V. A. Rassolov, J. A. Pople, M. A. Ratner, and T. L. Windus, J. Chem. Phys. 109, 1223 (1998).

================================================================================
                                        WARNINGS
                       Please study these warnings very carefully!
================================================================================

Warning: TCutStore was < 0. Adjusted to Thresh (uncritical)

INFO   : the flag for use of LIBINT has been found!

================================================================================
                                       INPUT FILE
================================================================================
NAME = initial24.inp
|  1> ! WB97X-D3 6-31G(d) VerySlowConv
|  2> ! KDIIS NOSOSCF
|  3> %base "Scan_24"
|  4> 
|  5> %scf
|  6> maxiter 999
|  7> end
|  8> 
|  9> * xyz 0 1
| 10> C         -4.059296402171    0.383718271273    0.000000000000
| 11> N         -1.212048259437    0.467852685078    0.000000000000
| 12> H         -5.168435338393    0.350959043649   -0.000000000000
| 13> **                         ****END OF INPUT****
================================================================================

                       ****************************
                       * Single Point Calculation *
                       ****************************

---------------------------------
CARTESIAN COORDINATES (ANGSTROEM)
---------------------------------
  C     -4.059296    0.383718    0.000000
  N     -1.212048    0.467853    0.000000
  H     -5.168435    0.350959   -0.000000

----------------------------
CARTESIAN COORDINATES (A.U.)
----------------------------
  NO LB      ZA    FRAG     MASS         X           Y           Z
   0 C     6.0000    0    12.011   -7.670958    0.725122    0.000000
   1 N     7.0000    0    14.007   -2.290439    0.884113    0.000000
   2 H     1.0000    0     1.008   -9.766927    0.663216   -0.000000

--------------------------------
INTERNAL COORDINATES (ANGSTROEM)
--------------------------------
 C      0   0   0     0.000000000000     0.00000000     0.00000000
 N      1   0   0     2.848490931333     0.00000000     0.00000000
 H      1   2   0     1.109622614603   179.99921864     0.00000000

---------------------------
INTERNAL COORDINATES (A.U.)
---------------------------
 C      0   0   0     0.000000000000     0.00000000     0.00000000
 N      1   0   0     5.382867755178     0.00000000     0.00000000
 H      1   2   0     2.096882853605   179.99921864     0.00000000

---------------------
BASIS SET INFORMATION
---------------------
There are 3 groups of distinct atoms

 Group   1 Type C   : 10s4p1d contracted to 3s2p1d pattern {631/31/1}
 Group   2 Type N   : 10s4p1d contracted to 3s2p1d pattern {631/31/1}
 Group   3 Type H   : 4s contracted to 2s pattern {31}

Atom   0C    basis set group =>   1
Atom   1N    basis set group =>   2
Atom   2H    basis set group =>   3
------------------------------------------------------------------------------
                           ORCA GTO INTEGRAL CALCULATION
------------------------------------------------------------------------------

                         BASIS SET STATISTICS AND STARTUP INFO

 # of primitive gaussian shells          ...   34
 # of primitive gaussian functions       ...   58
 # of contracted shells                  ...   14
 # of contracted basis functions         ...   30
 Highest angular momentum                ...    2
 Maximum contraction depth               ...    6
 Integral package used                   ... LIBINT
 Integral threshhold            Thresh   ...  1.000e-10
 Primitive cut-off              TCut     ...  1.000e-11


------------------------------ INTEGRAL EVALUATION ----------------------------


 * One electron integrals 
 Pre-screening matrix                    ... done
 Shell pair data                         ... done (   0.000 sec)

-------------------------------------------------------------------------------
                                 ORCA SCF
-------------------------------------------------------------------------------

------------
SCF SETTINGS
------------
Hamiltonian:
 Density Functional     Method          .... DFT(GTOs)
 Exchange Functional    Exchange        .... WB97X-D3
 Correlation Functional Correlation     .... WB97X-D3
 Gradients option       PostSCFGGA      .... off
 Hybrid DFT is turned on
   Fraction HF Exchange ScalHFX         ....  0.195728
   Scaling of DF-GGA-X  ScalDFX         ....  0.000000
   Scaling of DF-GGA-C  ScalDFC         ....  1.000000
   Scaling of DF-LDA-C  ScalLDAC        ....  1.000000
   Perturbative correction              ....  0.000000
 Long-range corrected/Screened/Range-Separated Hybrid DFT is turned on
   Amount of maximum screened exact exchange              ....  0.804272
   Range separation parameter mu (erf(mu*r12)/r12)        ....  0.250000


General Settings:
 Integral files         IntName         .... Scan_24
 Hartree-Fock type      HFTyp           .... RHF
 Total Charge           Charge          ....    0
 Multiplicity           Mult            ....    1
 Number of Electrons    NEL             ....   14
 Basis Dimension        Dim             ....   30
 Nuclear Repulsion      ENuc            ....     11.5997826448 Eh

Convergence Acceleration:
 DIIS                   CNVDIIS         .... on
   Start iteration      DIISMaxIt       ....     0
   Startup error        DIISStart       ....  0.200000
   # of expansion vecs  DIISMaxEq       ....     5
   Bias factor          DIISBfac        ....   1.050
   Max. coefficient     DIISMaxC        ....  10.000
 Newton-Raphson         CNVNR           .... off
 SOSCF                  CNVSOSCF        .... off
 Level Shifting         CNVShift        .... off
 Zerner damping         CNVZerner       .... off
 Static damping         CNVDamp         .... off
 Fernandez-Rico         CNVRico         .... off

SCF Procedure:
 Maximum # iterations   MaxIter         ....   999
 SCF integral mode      SCFMode         .... Direct
   Integral package                     .... LIBINT
 Reset frequeny         DirectResetFreq ....    20
 Integral Threshold     Thresh          ....  1.000e-10 Eh
 Primitive CutOff       TCut            ....  1.000e-11 Eh

Convergence Tolerance:
 Convergence Check Mode ConvCheckMode   .... All-Criteria
 Convergence forced     ConvForced      .... 0
 Energy Change          TolE            ....  1.000e-06 Eh
 Max Density Change     TolMaxP         ....  1.000e-05
 RMS Density Change     TolRMSP         ....  1.000e-06
 DIIS Error             TolErr          ....  1.000e-06


Diagonalization of the overlap matrix:
Smallest eigenvalue                        ... 4.495e-02
Time for diagonalization                   ...    0.001 sec
Threshold for overlap eigenvalues          ... 1.000e-08
Number of eigenvalues below threshold      ... 0
Time for construction of square roots      ...    0.004 sec
Total time needed                          ...    0.005 sec

-------------------
DFT GRID GENERATION
-------------------

General Integration Accuracy     IntAcc      ...  4.340
Radial Grid Type                 RadialGrid  ... Gauss-Chebyshev
Angular Grid (max. acc.)         AngularGrid ... Lebedev-110
Angular grid pruning method      GridPruning ... 3 (G Style)
Weight generation scheme         WeightScheme... Becke
Basis function cutoff            BFCut       ...    1.0000e-10
Integration weight cutoff        WCut        ...    1.0000e-14
Grids for H and He will be reduced by one unit

# of grid points (after initial pruning)     ...   4152 (   0.0 sec)
# of grid points (after weights+screening)   ...   4113 (   0.0 sec)
nearest neighbour list constructed           ...    0.0 sec
Grid point re-assignment to atoms done       ...    0.0 sec
Grid point division into batches done        ...    0.0 sec
Reduced shell lists constructed in    0.0 sec

Total number of grid points                  ...     4113
Total number of batches                      ...       66
Average number of points per batch           ...       62
Average number of grid points per atom       ...     1371
Average number of shells per batch           ...    11.03 (78.78%)
Average number of basis functions per batch  ...    24.19 (80.65%)
Average number of large shells per batch     ...     9.31 (84.44%)
Average number of large basis fcns per batch ...    20.18 (83.41%)
Maximum spatial batch extension              ...  17.96, 25.60, 31.36 au
Average spatial batch extension              ...   4.58,  7.10,  7.41 au

Time for grid setup =    0.026 sec

------------------------------
INITIAL GUESS: MODEL POTENTIAL
------------------------------
Loading Hartree-Fock densities                     ... done
Calculating cut-offs                               ... done
Setting up the integral package                    ... done
Initializing the effective Hamiltonian             ... done
Starting the Coulomb interaction                   ... done (   0.0 sec)
Reading the grid                                   ... done
Mapping shells                                     ... done
Starting the XC term evaluation                    ... done (   0.0 sec)
  promolecular density results
     # of electrons  =     13.997653432
     EX              =    -11.616403238
     EC              =     -0.390699359
     EX+EC           =    -12.007102597
Transforming the Hamiltonian                       ... done (   0.0 sec)
Diagonalizing the Hamiltonian                      ... done (   0.0 sec)
Back transforming the eigenvectors                 ... done (   0.0 sec)
Now organizing SCF variables                       ... done
                      ------------------
                      INITIAL GUESS DONE (   0.1 sec)
                      ------------------
--------------
SCF ITERATIONS
--------------
ITER       Energy         Delta-E        Max-DP      RMS-DP      [F,P]   Gradient Norm
               ***  Starting incremental Fock matrix formation  ***
                             ****Resetting KDIIS****
                             ****Turning on KDIIS(Cayley)****
  0    -92.4393876593   0.000000000000 0.05348342  0.00415362  0.2644429   0.165370091
  1    -92.5095407906  -0.070153131308 0.04833473  0.00510227  0.2310503   0.139825311
  2    -92.6097136146  -0.100172824061 0.11775463  0.01184036  0.1695401   0.106615765
  3    -92.7763638013  -0.166650186688 0.14809715  0.01601726  0.0729607   0.044564322
  4    -92.7641744911   0.012189310239 0.14919464  0.01553255  0.1213999   0.091987152
  5    -92.7799082626  -0.015733771469 0.10992899  0.01150338  0.0736612   0.049091779
  6    -92.8065363498  -0.026628087226 0.08473186  0.00935324  0.0433765   0.028284764
  7    -92.8224357028  -0.015899352977 0.02570890  0.00253817  0.0142471   0.009366406
  8    -92.8236670418  -0.001231338989 0.01116570  0.00082462  0.0071484   0.004661172
  9    -92.8234755054   0.000191536327 0.00528687  0.00068279  0.0106598   0.005842366
 10    -92.8239109150  -0.000435409583 0.00776060  0.00080371  0.0061493   0.003363011
 11    -92.8241231765  -0.000212261470 0.00063176  0.00005658  0.0003343   0.000317084
                          ***Energy convergence achieved***
 12    -92.8241241529  -0.000000976387 0.00015637  0.00001093  0.0000661   0.000060505

            ***Energy convergence in two consecutive cycles with***
                    ***'reasonable' density convergence***
                       *** signaling convergence ***

                    *** KDIIS BlockDiag ( 0.000 sec) ***

               *****************************************************
               *                     SUCCESS                       *
               *           SCF CONVERGED AFTER  13 CYCLES          *
               *****************************************************

Setting up the final grid:

General Integration Accuracy     IntAcc      ...  4.670
Radial Grid Type                 RadialGrid  ... Gauss-Chebyshev
Angular Grid (max. acc.)         AngularGrid ... Lebedev-302
Angular grid pruning method      GridPruning ... 3 (G Style)
Weight generation scheme         WeightScheme... Becke
Basis function cutoff            BFCut       ...    1.0000e-10
Integration weight cutoff        WCut        ...    1.0000e-14
Grids for H and He will be reduced by one unit

# of grid points (after initial pruning)     ...  15818 (   0.0 sec)
# of grid points (after weights+screening)   ...  15727 (   0.0 sec)
nearest neighbour list constructed           ...    0.0 sec
Grid point re-assignment to atoms done       ...    0.0 sec
Grid point division into batches done        ...    0.1 sec
Reduced shell lists constructed in    0.1 sec

Total number of grid points                  ...    15727
Total number of batches                      ...      247
Average number of points per batch           ...       63
Average number of grid points per atom       ...     5242
Average number of shells per batch           ...     9.83 (70.22%)
Average number of basis functions per batch  ...    21.66 (72.20%)
Average number of large shells per batch     ...     8.15 (82.94%)
Average number of large basis fcns per batch ...    17.60 (81.24%)
Maximum spatial batch extension              ...  19.22, 20.64, 20.64 au
Average spatial batch extension              ...   3.40,  4.26,  4.21 au

Final grid set up in    0.1 sec
Final integration                            ... done (   0.1 sec)
Change in XC energy                          ...    -0.000094799
Integrated number of electrons               ...    14.000009887
Previous integrated no of electrons          ...    13.997171069

----------------
TOTAL SCF ENERGY
----------------

Total Energy       :          -92.82421899 Eh           -2525.87541 eV

Components:
Nuclear Repulsion  :           11.59978264 Eh             315.64613 eV
Electronic Energy  :         -104.42400164 Eh           -2841.52154 eV
One Electron Energy:         -147.96594703 Eh           -4026.35811 eV
Two Electron Energy:           43.54194539 Eh            1184.83657 eV

Virial components:
Potential Energy   :         -184.99256120 Eh           -5033.90351 eV
Kinetic Energy     :           92.16834221 Eh            2508.02810 eV
Virial Ratio       :            2.00711607


DFT components:
N(Alpha)           :        7.000004943268 electrons
N(Beta)            :        7.000004943268 electrons
N(Total)           :       14.000009886535 electrons
E(XC)              :       -8.428893362135 Eh       

---------------
SCF CONVERGENCE
---------------

  Last Energy change         ...   -4.2951e-08  Tolerance :   1.0000e-06
  Last MAX-Density change    ...    7.9820e-05  Tolerance :   1.0000e-05
  Last RMS-Density change    ...    7.7282e-06  Tolerance :   1.0000e-06
  Last DIIS Error            ...    3.8271e-05  Tolerance :   1.0000e-06

             **** THE GBW FILE WAS UPDATED (Scan_24.gbw) ****
             **** DENSITY FILE WAS UPDATED (Scan_24.scfp.tmp) ****
             **** ENERGY FILE WAS UPDATED (Scan_24.en.tmp) ****
----------------
ORBITAL ENERGIES
----------------

  NO   OCC          E(Eh)            E(eV) 
   0   2.0000     -14.504306      -394.6822 
   1   2.0000     -10.473697      -285.0038 
   2   2.0000      -0.803280       -21.8584 
   3   2.0000      -0.768615       -20.9151 
   4   2.0000      -0.457892       -12.4599 
   5   2.0000      -0.290792        -7.9129 
   6   2.0000      -0.290769        -7.9122 
   7   0.0000      -0.104004        -2.8301 
   8   0.0000      -0.103970        -2.8292 
   9   0.0000      -0.029816        -0.8113 
  10   0.0000       0.189462         5.1555 
  11   0.0000       0.600041        16.3279 
  12   0.0000       0.600078        16.3290 
  13   0.0000       0.623681        16.9712 
  14   0.0000       0.698739        19.0137 
  15   0.0000       0.835730        22.7414 
  16   0.0000       0.835765        22.7423 
  17   0.0000       0.864482        23.5238 
  18   0.0000       0.930210        25.3123 
  19   0.0000       1.125527        30.6272 
  20   0.0000       1.698512        46.2188 
  21   0.0000       1.698524        46.2192 
  22   0.0000       1.714908        46.6650 
  23   0.0000       1.715932        46.6929 
  24   0.0000       1.856643        50.5218 
  25   0.0000       1.856666        50.5224 
  26   0.0000       1.881311        51.1931 
  27   0.0000       1.881792        51.2062 
  28   0.0000       1.890099        51.4322 
  29   0.0000       2.150458        58.5169 

                    ********************************
                    * MULLIKEN POPULATION ANALYSIS *
                    ********************************

-----------------------
MULLIKEN ATOMIC CHARGES
-----------------------
   0 C :   -0.011990
   1 N :   -0.182466
   2 H :    0.194455
Sum of atomic charges:   -0.0000000

--------------------------------
MULLIKEN REDUCED ORBITAL CHARGES
--------------------------------
  0 C s       :     3.925726  s :     3.925726
      pz      :     0.423856  p :     2.071573
      px      :     1.222324
      py      :     0.425392
      dz2     :     0.003658  d :     0.014691
      dxz     :     0.000033
      dyz     :     0.000000
      dx2y2   :     0.010929
      dxy     :     0.000071
  1 N s       :     3.999148  s :     3.999148
      pz      :     1.576093  p :     3.183066
      px      :     0.032963
      py      :     1.574010
      dz2     :     0.000054  d :     0.000252
      dxz     :     0.000018
      dyz     :    -0.000000
      dx2y2   :     0.000162
      dxy     :     0.000018
  2 H s       :     0.805545  s :     0.805545


                     *******************************
                     * LOEWDIN POPULATION ANALYSIS *
                     *******************************

----------------------
LOEWDIN ATOMIC CHARGES
----------------------
   0 C :    0.051997
   1 N :   -0.184741
   2 H :    0.132744

-------------------------------
LOEWDIN REDUCED ORBITAL CHARGES
-------------------------------
  0 C s       :     3.749165  s :     3.749165
      pz      :     0.423951  p :     2.178858
      px      :     1.329326
      py      :     0.425580
      dz2     :     0.004973  d :     0.019980
      dxz     :     0.000047
      dyz     :     0.000000
      dx2y2   :     0.014860
      dxy     :     0.000099
  1 N s       :     3.994730  s :     3.994730
      pz      :     1.575981  p :     3.189696
      px      :     0.039812
      py      :     1.573903
      dz2     :     0.000069  d :     0.000315
      dxz     :     0.000020
      dyz     :     0.000000
      dx2y2   :     0.000205
      dxy     :     0.000021
  2 H s       :     0.867256  s :     0.867256


                      *****************************
                      * MAYER POPULATION ANALYSIS *
                      *****************************

  NA   - Mulliken gross atomic population
  ZA   - Total nuclear charge
  QA   - Mulliken gross atomic charge
  VA   - Mayer's total valence
  BVA  - Mayer's bonded valence
  FA   - Mayer's free valence

  ATOM       NA         ZA         QA         VA         BVA        FA
  0 C      6.0120     6.0000    -0.0120     2.2820     2.2820    -0.0000
  1 N      7.1825     7.0000    -0.1825     1.4033     1.4033    -0.0000
  2 H      0.8055     1.0000     0.1945     0.8911     0.8911    -0.0000

  Mayer bond orders larger than 0.1
B(  0-C ,  1-N ) :   1.3971 B(  0-C ,  2-H ) :   0.8849 

-------
TIMINGS
-------

Total SCF time: 0 days 0 hours 0 min 4 sec 

Total time                  ....       4.519 sec
Sum of individual times     ....       4.347 sec  ( 96.2%)

Fock matrix formation       ....       4.053 sec  ( 89.7%)
  XC integration            ....       0.833 sec  ( 20.6% of F)
    Basis function eval.    ....       0.231 sec  ( 27.7% of XC)
    Density eval.           ....       0.039 sec  (  4.6% of XC)
    XC-Functional eval.     ....       0.248 sec  ( 29.7% of XC)
    XC-Potential eval.      ....       0.029 sec  (  3.5% of XC)
Diagonalization             ....       0.008 sec  (  0.2%)
Density matrix formation    ....       0.000 sec  (  0.0%)
Population analysis         ....       0.011 sec  (  0.2%)
Initial guess               ....       0.119 sec  (  2.6%)
Orbital Transformation      ....       0.000 sec  (  0.0%)
Orbital Orthonormalization  ....       0.000 sec  (  0.0%)
DIIS solution               ....       0.000 sec  (  0.0%)
Grid generation             ....       0.157 sec  (  3.5%)


-------------------------------------------------------------------------------
                          DFT DISPERSION CORRECTION                            
                                                                               
                              DFTD3 V3.1  Rev 1                                
                              USING zero damping                               
-------------------------------------------------------------------------------
The omegaB97X-D3 functional is recognized. Fit by Chai et al.
Active option DFTDOPT                   ...         3   

molecular C6(AA) [au] = 177.195488 


            DFT-D V3
 parameters
 s6 scaling factor         :     1.0000 
 rs6 scaling factor        :     1.2810 
 s8 scaling factor         :     1.0000 
 rs8 scaling factor        :     1.0940 
 Damping factor alpha6     :    14.0000 
 Damping factor alpha8     :    16.0000 
 ad hoc parameters k1-k3   :    16.0000     1.3333    -4.0000 

 Edisp/kcal,au: -0.106063935768  -0.000169023622 
 E6   /kcal   :  -0.036451474 
 E8   /kcal   :  -0.069612462 
 % E8         :  65.632546536 

-------------------------   ----------------
Dispersion correction           -0.000169024
-------------------------   ----------------


-------------------------   --------------------
FINAL SINGLE POINT ENERGY       -92.824388017943
-------------------------   --------------------


                            ***************************************
                            *     ORCA property calculations      *
                            ***************************************

                                    ---------------------
                                    Active property flags
                                    ---------------------
   (+) Dipole Moment


------------------------------------------------------------------------------
                       ORCA ELECTRIC PROPERTIES CALCULATION
------------------------------------------------------------------------------

Dipole Moment Calculation                       ... on
Quadrupole Moment Calculation                   ... off
Polarizability Calculation                      ... off
GBWName                                         ... Scan_24.gbw
Electron density file                           ... Scan_24.scfp.tmp

-------------
DIPOLE MOMENT
-------------
                                X             Y             Z
Electronic contribution:      0.70777       0.02093       0.00000
Nuclear contribution   :     -2.37841      -0.07027       0.00000
                        -----------------------------------------
Total Dipole Moment    :     -1.67065      -0.04934       0.00000
                        -----------------------------------------
Magnitude (a.u.)       :      1.67138
Magnitude (Debye)      :      4.24830


Timings for individual modules:

Sum of individual times         ...        4.857 sec (=   0.081 min)
GTO integral calculation        ...        0.315 sec (=   0.005 min)   6.5 %
SCF iterations                  ...        4.542 sec (=   0.076 min)  93.5 %
                             ****ORCA TERMINATED NORMALLY****
TOTAL RUN TIME: 0 days 0 hours 0 minutes 5 seconds 187 msec
