
                                 *****************
                                 * O   R   C   A *
                                 *****************

           --- An Ab Initio, DFT and Semiempirical electronic structure package ---

                  #######################################################
                  #                        -***-                        #
                  #  Department of molecular theory and spectroscopy    #
                  #              Directorship: Frank Neese              #
                  # Max Planck Institute for Chemical Energy Conversion #
                  #                  D-45470 Muelheim/Ruhr              #
                  #                       Germany                       #
                  #                                                     #
                  #                  All rights reserved                #
                  #                        -***-                        #
                  #######################################################


                         Program Version 4.0.0.2 - RELEASE -


 With contributions from (in alphabetic order):
   Daniel Aravena         : Magnetic Properties
   Michael Atanasov       : Ab Initio Ligand Field Theory
   Ute Becker             : Parallelization
   Martin Brehm           : Molecular dynamics
   Dmytro Bykov           : SCF Hessian
   Vijay G. Chilkuri      : MRCI spin determinant printing
   Dipayan Datta          : RHF DLPNO-CCSD density
   Achintya Kumar Dutta   : EOM-CC, STEOM-CC
   Dmitry Ganyushin       : Spin-Orbit,Spin-Spin,Magnetic field MRCI
   Yang Guo               : DLPNO-NEVPT2, CIM, IAO-localization
   Andreas Hansen         : Spin unrestricted coupled pair/coupled cluster methods
   Lee Huntington         : MR-EOM, pCC
   Robert Izsak           : Overlap fitted RIJCOSX, COSX-SCS-MP3, EOM
   Christian Kollmar      : KDIIS, OOCD, Brueckner-CCSD(T), CCSD density
   Simone Kossmann        : Meta GGA functionals, TD-DFT gradient, OOMP2, MP2 Hessian
   Martin Krupicka        : AUTO-CI
   Dagmar Lenk            : GEPOL surface
   Dimitrios Liakos       : Extrapolation schemes; parallel MDCI
   Dimitrios Manganas     : ROCIS; embedding schemes
   Dimitrios Pantazis     : SARC Basis sets
   Taras Petrenko         : DFT Hessian,TD-DFT gradient, ASA, ECA, R-Raman, ABS, FL, XAS/XES, NRVS
   Peter Pinski           : DLPNO-MP2
   Christoph Reimann      : Effective Core Potentials
   Marius Retegan         : Local ZFS, SOC
   Christoph Riplinger    : Optimizer, TS searches, QM/MM, DLPNO-CCSD(T), (RO)-DLPNO pert. Triples
   Tobias Risthaus        : Range-separated hybrids, TD-DFT gradient, RPA, STAB
   Michael Roemelt        : Restricted open shell CIS
   Masaaki Saitow         : Open-shell DLPNO
   Barbara Sandhoefer     : DKH picture change effects
   Kantharuban Sivalingam : CASSCF convergence, NEVPT2, FIC-MRCI
   Georgi Stoychev        : AutoAux
   Boris Wezisla          : Elementary symmetry handling
   Frank Wennmohs         : Technical directorship


 We gratefully acknowledge several colleagues who have allowed us to
 interface, adapt or use parts of their codes:
   Stefan Grimme, W. Hujo, H. Kruse,             : VdW corrections, initial TS optimization,
                  C. Bannwarth                     DFT functionals, gCP, sTDA/sTD-DF
   Ed Valeev                                     : LibInt (2-el integral package), F12 methods
   Garnet Chan, S. Sharma, J. Yang, R. Olivares  : DMRG
   Ulf Ekstrom                                   : XCFun DFT Library
   Mihaly Kallay                                 : mrcc  (arbitrary order and MRCC methods)
   Jiri Pittner, Ondrej Demel                    : Mk-CCSD
   Frank Weinhold                                : gennbo (NPA and NBO analysis)
   Christopher J. Cramer and Donald G. Truhlar   : smd solvation model


 Your calculation uses the libint2 library for the computation of 2-el integrals
 For citations please refer to: http://libint.valeyev.net

 This ORCA versions uses:
   CBLAS   interface :  Fast vector & matrix operations
   LAPACKE interface :  Fast linear algebra routines
   SCALAPACK package :  Parallel linear algebra routines


Your calculation utilizes the atom-pairwise dispersion correction
with the zero-damping scheme (D30)
Cite in your paper:
S.Grimme, J.Antony, S.Ehrlich and H.Krieg, J.Chem.Phys., 132, (2010), 154104 
   

XCFun DFT library Copyright 2009-2010 Ulf Ekstrom and contributors.
See http://admol.org/xcfun for more information. This is free soft-
ware; see the source code for copying conditions. There is ABSOLUTELY
NO WARRANTY; not even for MERCHANTABILITY or FITNESS FOR A PARTICULAR
PURPOSE. For details see the documentation. Scientific users of this 
library should cite U. Ekstrom, L. Visscher, R. Bast, A. J. Thorvald-
sen and K. Ruud; J.Chem.Theor.Comp. 2010, DOI: 10.1021/ct100117s
XCFun Version 0.99 
Your calculation utilizes the basis: 6-31G(d)
   H-He, Li-Ne : W. J. Hehre, R. Ditchfield and J.A. Pople, J. Chem. Phys. 56, 2257 (1972).
                 Note: He and Ne are unpublished basis sets taken from the Gaussian program.
                 Note: Li and B from J. D. Dill and J. A. Pople, J. Chem. Phys. 62, 2921 (1975).
   Na - Ar     : M. M. Francl, W. J. Pietro, W. J. Hehre, J. S. Binkley, M. S. Gordon, 
                 D. J. DeFrees and J. A. Pople, J. Chem. Phys. 77, 3654 (1982).
   K - Zn      : V. A. Rassolov, J. A. Pople, M. A. Ratner, and T. L. Windus, J. Chem. Phys. 109, 1223 (1998).

================================================================================
                                        WARNINGS
                       Please study these warnings very carefully!
================================================================================

Warning: TCutStore was < 0. Adjusted to Thresh (uncritical)

INFO   : the flag for use of LIBINT has been found!

================================================================================
                                       INPUT FILE
================================================================================
NAME = initial25.inp
|  1> ! WB97X-D3 6-31G(d) VerySlowConv
|  2> ! KDIIS NOSOSCF
|  3> %base "Scan_25"
|  4> 
|  5> %scf
|  6> maxiter 999
|  7> end
|  8> 
|  9> * xyz 0 1
| 10> C         -4.093735932664    0.382699064973    0.000000000000
| 11> N         -1.142611998577    0.469903387440    0.000000000000
| 12> H         -5.203432068760    0.349927547587    0.000000000000
| 13> **                         ****END OF INPUT****
================================================================================

                       ****************************
                       * Single Point Calculation *
                       ****************************

---------------------------------
CARTESIAN COORDINATES (ANGSTROEM)
---------------------------------
  C     -4.093736    0.382699    0.000000
  N     -1.142612    0.469903    0.000000
  H     -5.203432    0.349928    0.000000

----------------------------
CARTESIAN COORDINATES (A.U.)
----------------------------
  NO LB      ZA    FRAG     MASS         X           Y           Z
   0 C     6.0000    0    12.011   -7.736040    0.723196    0.000000
   1 N     7.0000    0    14.007   -2.159224    0.887989    0.000000
   2 H     1.0000    0     1.008   -9.833062    0.661267    0.000000

--------------------------------
INTERNAL COORDINATES (ANGSTROEM)
--------------------------------
 C      0   0   0     0.000000000000     0.00000000     0.00000000
 N      1   0   0     2.952412076286     0.00000000     0.00000000
 H      1   2   0     1.110179934433   179.99899504     0.00000000

---------------------------
INTERNAL COORDINATES (A.U.)
---------------------------
 C      0   0   0     0.000000000000     0.00000000     0.00000000
 N      1   0   0     5.579250258662     0.00000000     0.00000000
 H      1   2   0     2.097936035453   179.99899504     0.00000000

---------------------
BASIS SET INFORMATION
---------------------
There are 3 groups of distinct atoms

 Group   1 Type C   : 10s4p1d contracted to 3s2p1d pattern {631/31/1}
 Group   2 Type N   : 10s4p1d contracted to 3s2p1d pattern {631/31/1}
 Group   3 Type H   : 4s contracted to 2s pattern {31}

Atom   0C    basis set group =>   1
Atom   1N    basis set group =>   2
Atom   2H    basis set group =>   3
------------------------------------------------------------------------------
                           ORCA GTO INTEGRAL CALCULATION
------------------------------------------------------------------------------

                         BASIS SET STATISTICS AND STARTUP INFO

 # of primitive gaussian shells          ...   34
 # of primitive gaussian functions       ...   58
 # of contracted shells                  ...   14
 # of contracted basis functions         ...   30
 Highest angular momentum                ...    2
 Maximum contraction depth               ...    6
 Integral package used                   ... LIBINT
 Integral threshhold            Thresh   ...  1.000e-10
 Primitive cut-off              TCut     ...  1.000e-11


------------------------------ INTEGRAL EVALUATION ----------------------------


 * One electron integrals 
 Pre-screening matrix                    ... done
 Shell pair data                         ... done (   0.000 sec)

-------------------------------------------------------------------------------
                                 ORCA SCF
-------------------------------------------------------------------------------

------------
SCF SETTINGS
------------
Hamiltonian:
 Density Functional     Method          .... DFT(GTOs)
 Exchange Functional    Exchange        .... WB97X-D3
 Correlation Functional Correlation     .... WB97X-D3
 Gradients option       PostSCFGGA      .... off
 Hybrid DFT is turned on
   Fraction HF Exchange ScalHFX         ....  0.195728
   Scaling of DF-GGA-X  ScalDFX         ....  0.000000
   Scaling of DF-GGA-C  ScalDFC         ....  1.000000
   Scaling of DF-LDA-C  ScalLDAC        ....  1.000000
   Perturbative correction              ....  0.000000
 Long-range corrected/Screened/Range-Separated Hybrid DFT is turned on
   Amount of maximum screened exact exchange              ....  0.804272
   Range separation parameter mu (erf(mu*r12)/r12)        ....  0.250000


General Settings:
 Integral files         IntName         .... Scan_25
 Hartree-Fock type      HFTyp           .... RHF
 Total Charge           Charge          ....    0
 Multiplicity           Mult            ....    1
 Number of Electrons    NEL             ....   14
 Basis Dimension        Dim             ....   30
 Nuclear Repulsion      ENuc            ....     11.2996393048 Eh

Convergence Acceleration:
 DIIS                   CNVDIIS         .... on
   Start iteration      DIISMaxIt       ....     0
   Startup error        DIISStart       ....  0.200000
   # of expansion vecs  DIISMaxEq       ....     5
   Bias factor          DIISBfac        ....   1.050
   Max. coefficient     DIISMaxC        ....  10.000
 Newton-Raphson         CNVNR           .... off
 SOSCF                  CNVSOSCF        .... off
 Level Shifting         CNVShift        .... off
 Zerner damping         CNVZerner       .... off
 Static damping         CNVDamp         .... off
 Fernandez-Rico         CNVRico         .... off

SCF Procedure:
 Maximum # iterations   MaxIter         ....   999
 SCF integral mode      SCFMode         .... Direct
   Integral package                     .... LIBINT
 Reset frequeny         DirectResetFreq ....    20
 Integral Threshold     Thresh          ....  1.000e-10 Eh
 Primitive CutOff       TCut            ....  1.000e-11 Eh

Convergence Tolerance:
 Convergence Check Mode ConvCheckMode   .... All-Criteria
 Convergence forced     ConvForced      .... 0
 Energy Change          TolE            ....  1.000e-06 Eh
 Max Density Change     TolMaxP         ....  1.000e-05
 RMS Density Change     TolRMSP         ....  1.000e-06
 DIIS Error             TolErr          ....  1.000e-06


Diagonalization of the overlap matrix:
Smallest eigenvalue                        ... 4.567e-02
Time for diagonalization                   ...    0.001 sec
Threshold for overlap eigenvalues          ... 1.000e-08
Number of eigenvalues below threshold      ... 0
Time for construction of square roots      ...    0.006 sec
Total time needed                          ...    0.007 sec

-------------------
DFT GRID GENERATION
-------------------

General Integration Accuracy     IntAcc      ...  4.340
Radial Grid Type                 RadialGrid  ... Gauss-Chebyshev
Angular Grid (max. acc.)         AngularGrid ... Lebedev-110
Angular grid pruning method      GridPruning ... 3 (G Style)
Weight generation scheme         WeightScheme... Becke
Basis function cutoff            BFCut       ...    1.0000e-10
Integration weight cutoff        WCut        ...    1.0000e-14
Grids for H and He will be reduced by one unit

# of grid points (after initial pruning)     ...   4152 (   0.0 sec)
# of grid points (after weights+screening)   ...   4113 (   0.0 sec)
nearest neighbour list constructed           ...    0.0 sec
Grid point re-assignment to atoms done       ...    0.0 sec
Grid point division into batches done        ...    0.0 sec
Reduced shell lists constructed in    0.0 sec

Total number of grid points                  ...     4113
Total number of batches                      ...       66
Average number of points per batch           ...       62
Average number of grid points per atom       ...     1371
Average number of shells per batch           ...    10.93 (78.04%)
Average number of basis functions per batch  ...    24.06 (80.20%)
Average number of large shells per batch     ...     9.24 (84.56%)
Average number of large basis fcns per batch ...    19.99 (83.06%)
Maximum spatial batch extension              ...  17.96, 25.60, 31.36 au
Average spatial batch extension              ...   4.55,  7.11,  7.38 au

Time for grid setup =    0.025 sec

------------------------------
INITIAL GUESS: MODEL POTENTIAL
------------------------------
Loading Hartree-Fock densities                     ... done
Calculating cut-offs                               ... done
Setting up the integral package                    ... done
Initializing the effective Hamiltonian             ... done
Starting the Coulomb interaction                   ... done (   0.0 sec)
Reading the grid                                   ... done
Mapping shells                                     ... done
Starting the XC term evaluation                    ... done (   0.0 sec)
  promolecular density results
     # of electrons  =     13.997626661
     EX              =    -11.615732341
     EC              =     -0.390198612
     EX+EC           =    -12.005930953
Transforming the Hamiltonian                       ... done (   0.0 sec)
Diagonalizing the Hamiltonian                      ... done (   0.0 sec)
Back transforming the eigenvectors                 ... done (   0.0 sec)
Now organizing SCF variables                       ... done
                      ------------------
                      INITIAL GUESS DONE (   0.1 sec)
                      ------------------
--------------
SCF ITERATIONS
--------------
ITER       Energy         Delta-E        Max-DP      RMS-DP      [F,P]   Gradient Norm
               ***  Starting incremental Fock matrix formation  ***
                             ****Resetting KDIIS****
                             ****Turning on KDIIS(Cayley)****
  0    -92.4521920304   0.000000000000 0.05120982  0.00404437  0.2382979   0.155823774
  1    -92.5165384200  -0.064346389580 0.04746457  0.00511794  0.2073491   0.131415982
  2    -92.6085233832  -0.091984963218 0.12640887  0.01091723  0.1490307   0.099812688
  3    -92.7562300186  -0.147706635398 0.18711361  0.01896356  0.0796499   0.051998552
  4    -92.7210770055   0.035153013138 0.19250870  0.01835004  0.1551498   0.115812558
  5    -92.7698004048  -0.048723399288 0.04910672  0.00376069  0.0708006   0.041191862
  6    -92.7517666404   0.018033764412 0.03635068  0.00369358  0.0759239   0.045173433
  7    -92.7492839540   0.002482686384 0.03582673  0.00287730  0.0734163   0.045705859
  8    -92.7657538796  -0.016469925652 0.09895298  0.01026724  0.0711434   0.043301151
  9    -92.8134923239  -0.047738444214 0.06024427  0.00585481  0.0156917   0.013419380
 10    -92.8104057173   0.003086606577 0.05157257  0.00534828  0.0356644   0.020185453
 11    -92.8151074534  -0.004701736100 0.01297453  0.00131190  0.0127656   0.007099682
 12    -92.8160040019  -0.000896548479 0.00605774  0.00069556  0.0044263   0.002631467
 13    -92.8160781029  -0.000074101019 0.00192784  0.00023182  0.0022013   0.001219211
 14    -92.8161019444  -0.000023841572 0.00067564  0.00007844  0.0007331   0.000434962
 15    -92.8161049629  -0.000003018450 0.00009072  0.00000981  0.0000799   0.000043934
                          ***Energy convergence achieved***
 16    -92.8161050013  -0.000000038436 0.00001633  0.00000163  0.0000174   0.000009871
 17    -92.8161049982   0.000000003158 0.00016959  0.00001627  0.0000160   0.000009905

            ***Energy convergence in two consecutive cycles with***
                    ***'reasonable' density convergence***
                       *** signaling convergence ***

                    *** KDIIS BlockDiag ( 0.000 sec) ***

               *****************************************************
               *                     SUCCESS                       *
               *           SCF CONVERGED AFTER  18 CYCLES          *
               *****************************************************

Setting up the final grid:

General Integration Accuracy     IntAcc      ...  4.670
Radial Grid Type                 RadialGrid  ... Gauss-Chebyshev
Angular Grid (max. acc.)         AngularGrid ... Lebedev-302
Angular grid pruning method      GridPruning ... 3 (G Style)
Weight generation scheme         WeightScheme... Becke
Basis function cutoff            BFCut       ...    1.0000e-10
Integration weight cutoff        WCut        ...    1.0000e-14
Grids for H and He will be reduced by one unit

# of grid points (after initial pruning)     ...  15818 (   0.0 sec)
# of grid points (after weights+screening)   ...  15731 (   0.0 sec)
nearest neighbour list constructed           ...    0.0 sec
Grid point re-assignment to atoms done       ...    0.0 sec
Grid point division into batches done        ...    0.1 sec
Reduced shell lists constructed in    0.1 sec

Total number of grid points                  ...    15731
Total number of batches                      ...      247
Average number of points per batch           ...       63
Average number of grid points per atom       ...     5244
Average number of shells per batch           ...     9.77 (69.76%)
Average number of basis functions per batch  ...    21.60 (71.99%)
Average number of large shells per batch     ...     8.04 (82.33%)
Average number of large basis fcns per batch ...    17.34 (80.28%)
Maximum spatial batch extension              ...  19.22, 20.64, 20.64 au
Average spatial batch extension              ...   3.42,  4.28,  4.18 au

Final grid set up in    0.1 sec
Final integration                            ... done (   0.1 sec)
Change in XC energy                          ...    -0.000101445
Integrated number of electrons               ...    14.000003042
Previous integrated no of electrons          ...    13.997100694

----------------
TOTAL SCF ENERGY
----------------

Total Energy       :          -92.81620642 Eh           -2525.65738 eV

Components:
Nuclear Repulsion  :           11.29963930 Eh             307.47882 eV
Electronic Energy  :         -104.11584573 Eh           -2833.13620 eV
One Electron Energy:         -147.37314284 Eh           -4010.22709 eV
Two Electron Energy:           43.25729711 Eh            1177.09090 eV

Virial components:
Potential Energy   :         -185.00546077 Eh           -5034.25452 eV
Kinetic Energy     :           92.18925435 Eh            2508.59715 eV
Virial Ratio       :            2.00680071


DFT components:
N(Alpha)           :        7.000001521040 electrons
N(Beta)            :        7.000001521040 electrons
N(Total)           :       14.000003042079 electrons
E(XC)              :       -8.431467137475 Eh       

---------------
SCF CONVERGENCE
---------------

  Last Energy change         ...    1.9750e-08  Tolerance :   1.0000e-06
  Last MAX-Density change    ...    4.7853e-05  Tolerance :   1.0000e-05
  Last RMS-Density change    ...    4.2959e-06  Tolerance :   1.0000e-06
  Last DIIS Error            ...    9.4763e-06  Tolerance :   1.0000e-06

             **** THE GBW FILE WAS UPDATED (Scan_25.gbw) ****
             **** DENSITY FILE WAS UPDATED (Scan_25.scfp.tmp) ****
             **** ENERGY FILE WAS UPDATED (Scan_25.en.tmp) ****
----------------
ORBITAL ENERGIES
----------------

  NO   OCC          E(Eh)            E(eV) 
   0   2.0000     -14.499107      -394.5408 
   1   2.0000     -10.475241      -285.0458 
   2   2.0000      -0.804324       -21.8868 
   3   2.0000      -0.765590       -20.8328 
   4   2.0000      -0.459424       -12.5016 
   5   2.0000      -0.286500        -7.7961 
   6   2.0000      -0.286499        -7.7960 
   7   0.0000      -0.107028        -2.9124 
   8   0.0000      -0.107021        -2.9122 
   9   0.0000      -0.028198        -0.7673 
  10   0.0000       0.186719         5.0809 
  11   0.0000       0.598970        16.2988 
  12   0.0000       0.599002        16.2997 
  13   0.0000       0.609208        16.5774 
  14   0.0000       0.696792        18.9607 
  15   0.0000       0.836537        22.7633 
  16   0.0000       0.836554        22.7638 
  17   0.0000       0.870034        23.6748 
  18   0.0000       0.926611        25.2144 
  19   0.0000       1.101728        29.9796 
  20   0.0000       1.696379        46.1608 
  21   0.0000       1.696417        46.1619 
  22   0.0000       1.712741        46.6061 
  23   0.0000       1.713855        46.6364 
  24   0.0000       1.858904        50.5833 
  25   0.0000       1.858916        50.5837 
  26   0.0000       1.881358        51.1944 
  27   0.0000       1.884663        51.2843 
  28   0.0000       1.884959        51.2923 
  29   0.0000       2.148799        58.4718 

                    ********************************
                    * MULLIKEN POPULATION ANALYSIS *
                    ********************************

-----------------------
MULLIKEN ATOMIC CHARGES
-----------------------
   0 C :   -0.002083
   1 N :   -0.191081
   2 H :    0.193164
Sum of atomic charges:   -0.0000000

--------------------------------
MULLIKEN REDUCED ORBITAL CHARGES
--------------------------------
  0 C s       :     3.930569  s :     3.930569
      pz      :     0.415238  p :     2.056647
      px      :     1.225485
      py      :     0.415924
      dz2     :     0.003690  d :     0.014868
      dxz     :     0.000056
      dyz     :     0.000000
      dx2y2   :     0.011026
      dxy     :     0.000095
  1 N s       :     3.999314  s :     3.999314
      pz      :     1.584693  p :     3.191561
      px      :     0.023152
      py      :     1.583716
      dz2     :     0.000045  d :     0.000206
      dxz     :     0.000012
      dyz     :    -0.000000
      dx2y2   :     0.000136
      dxy     :     0.000013
  2 H s       :     0.806836  s :     0.806836


                     *******************************
                     * LOEWDIN POPULATION ANALYSIS *
                     *******************************

----------------------
LOEWDIN ATOMIC CHARGES
----------------------
   0 C :    0.060350
   1 N :   -0.192369
   2 H :    0.132018

-------------------------------
LOEWDIN REDUCED ORBITAL CHARGES
-------------------------------
  0 C s       :     3.755036  s :     3.755036
      pz      :     0.415286  p :     2.164468
      px      :     1.333113
      py      :     0.416068
      dz2     :     0.005004  d :     0.020146
      dxz     :     0.000066
      dyz     :     0.000000
      dx2y2   :     0.014956
      dxy     :     0.000118
  1 N s       :     3.996235  s :     3.996235
      pz      :     1.584634  p :     3.195895
      px      :     0.027600
      py      :     1.583661
      dz2     :     0.000053  d :     0.000239
      dxz     :     0.000014
      dyz     :     0.000000
      dx2y2   :     0.000158
      dxy     :     0.000014
  2 H s       :     0.867982  s :     0.867982


                      *****************************
                      * MAYER POPULATION ANALYSIS *
                      *****************************

  NA   - Mulliken gross atomic population
  ZA   - Total nuclear charge
  QA   - Mulliken gross atomic charge
  VA   - Mayer's total valence
  BVA  - Mayer's bonded valence
  FA   - Mayer's free valence

  ATOM       NA         ZA         QA         VA         BVA        FA
  0 C      6.0021     6.0000    -0.0021     2.2460     2.2460    -0.0000
  1 N      7.1911     7.0000    -0.1911     1.3637     1.3637    -0.0000
  2 H      0.8068     1.0000     0.1932     0.8912     0.8912    -0.0000

  Mayer bond orders larger than 0.1
B(  0-C ,  1-N ) :   1.3592 B(  0-C ,  2-H ) :   0.8867 

-------
TIMINGS
-------

Total SCF time: 0 days 0 hours 0 min 5 sec 

Total time                  ....       5.540 sec
Sum of individual times     ....       5.333 sec  ( 96.3%)

Fock matrix formation       ....       5.045 sec  ( 91.1%)
  XC integration            ....       1.004 sec  ( 19.9% of F)
    Basis function eval.    ....       0.251 sec  ( 25.0% of XC)
    Density eval.           ....       0.046 sec  (  4.6% of XC)
    XC-Functional eval.     ....       0.275 sec  ( 27.4% of XC)
    XC-Potential eval.      ....       0.030 sec  (  3.0% of XC)
Diagonalization             ....       0.021 sec  (  0.4%)
Density matrix formation    ....       0.000 sec  (  0.0%)
Population analysis         ....       0.010 sec  (  0.2%)
Initial guess               ....       0.108 sec  (  2.0%)
Orbital Transformation      ....       0.000 sec  (  0.0%)
Orbital Orthonormalization  ....       0.000 sec  (  0.0%)
DIIS solution               ....       0.000 sec  (  0.0%)
Grid generation             ....       0.148 sec  (  2.7%)


-------------------------------------------------------------------------------
                          DFT DISPERSION CORRECTION                            
                                                                               
                              DFTD3 V3.1  Rev 1                                
                              USING zero damping                               
-------------------------------------------------------------------------------
The omegaB97X-D3 functional is recognized. Fit by Chai et al.
Active option DFTDOPT                   ...         3   

molecular C6(AA) [au] = 177.210932 


            DFT-D V3
 parameters
 s6 scaling factor         :     1.0000 
 rs6 scaling factor        :     1.2810 
 s8 scaling factor         :     1.0000 
 rs8 scaling factor        :     1.0940 
 Damping factor alpha6     :    14.0000 
 Damping factor alpha8     :    16.0000 
 ad hoc parameters k1-k3   :    16.0000     1.3333    -4.0000 

 Edisp/kcal,au: -0.119413543283  -0.000190297574 
 E6   /kcal   :  -0.036265534 
 E8   /kcal   :  -0.083148010 
 % E8         :  69.630301119 

-------------------------   ----------------
Dispersion correction           -0.000190298
-------------------------   ----------------


-------------------------   --------------------
FINAL SINGLE POINT ENERGY       -92.816396721133
-------------------------   --------------------


                            ***************************************
                            *     ORCA property calculations      *
                            ***************************************

                                    ---------------------
                                    Active property flags
                                    ---------------------
   (+) Dipole Moment


------------------------------------------------------------------------------
                       ORCA ELECTRIC PROPERTIES CALCULATION
------------------------------------------------------------------------------

Dipole Moment Calculation                       ... on
Quadrupole Moment Calculation                   ... off
Polarizability Calculation                      ... off
GBWName                                         ... Scan_25.gbw
Electron density file                           ... Scan_25.scfp.tmp

-------------
DIPOLE MOMENT
-------------
                                X             Y             Z
Electronic contribution:      0.68186       0.01978       0.00000
Nuclear contribution   :     -2.42915      -0.07176       0.00000
                        -----------------------------------------
Total Dipole Moment    :     -1.74729      -0.05199       0.00000
                        -----------------------------------------
Magnitude (a.u.)       :      1.74807
Magnitude (Debye)      :      4.44323


Timings for individual modules:

Sum of individual times         ...        5.857 sec (=   0.098 min)
GTO integral calculation        ...        0.295 sec (=   0.005 min)   5.0 %
SCF iterations                  ...        5.562 sec (=   0.093 min)  95.0 %
                             ****ORCA TERMINATED NORMALLY****
TOTAL RUN TIME: 0 days 0 hours 0 minutes 6 seconds 187 msec
