
                                 *****************
                                 * O   R   C   A *
                                 *****************

           --- An Ab Initio, DFT and Semiempirical electronic structure package ---

                  #######################################################
                  #                        -***-                        #
                  #  Department of molecular theory and spectroscopy    #
                  #              Directorship: Frank Neese              #
                  # Max Planck Institute for Chemical Energy Conversion #
                  #                  D-45470 Muelheim/Ruhr              #
                  #                       Germany                       #
                  #                                                     #
                  #                  All rights reserved                #
                  #                        -***-                        #
                  #######################################################


                         Program Version 4.0.0.2 - RELEASE -


 With contributions from (in alphabetic order):
   Daniel Aravena         : Magnetic Properties
   Michael Atanasov       : Ab Initio Ligand Field Theory
   Ute Becker             : Parallelization
   Martin Brehm           : Molecular dynamics
   Dmytro Bykov           : SCF Hessian
   Vijay G. Chilkuri      : MRCI spin determinant printing
   Dipayan Datta          : RHF DLPNO-CCSD density
   Achintya Kumar Dutta   : EOM-CC, STEOM-CC
   Dmitry Ganyushin       : Spin-Orbit,Spin-Spin,Magnetic field MRCI
   Yang Guo               : DLPNO-NEVPT2, CIM, IAO-localization
   Andreas Hansen         : Spin unrestricted coupled pair/coupled cluster methods
   Lee Huntington         : MR-EOM, pCC
   Robert Izsak           : Overlap fitted RIJCOSX, COSX-SCS-MP3, EOM
   Christian Kollmar      : KDIIS, OOCD, Brueckner-CCSD(T), CCSD density
   Simone Kossmann        : Meta GGA functionals, TD-DFT gradient, OOMP2, MP2 Hessian
   Martin Krupicka        : AUTO-CI
   Dagmar Lenk            : GEPOL surface
   Dimitrios Liakos       : Extrapolation schemes; parallel MDCI
   Dimitrios Manganas     : ROCIS; embedding schemes
   Dimitrios Pantazis     : SARC Basis sets
   Taras Petrenko         : DFT Hessian,TD-DFT gradient, ASA, ECA, R-Raman, ABS, FL, XAS/XES, NRVS
   Peter Pinski           : DLPNO-MP2
   Christoph Reimann      : Effective Core Potentials
   Marius Retegan         : Local ZFS, SOC
   Christoph Riplinger    : Optimizer, TS searches, QM/MM, DLPNO-CCSD(T), (RO)-DLPNO pert. Triples
   Tobias Risthaus        : Range-separated hybrids, TD-DFT gradient, RPA, STAB
   Michael Roemelt        : Restricted open shell CIS
   Masaaki Saitow         : Open-shell DLPNO
   Barbara Sandhoefer     : DKH picture change effects
   Kantharuban Sivalingam : CASSCF convergence, NEVPT2, FIC-MRCI
   Georgi Stoychev        : AutoAux
   Boris Wezisla          : Elementary symmetry handling
   Frank Wennmohs         : Technical directorship


 We gratefully acknowledge several colleagues who have allowed us to
 interface, adapt or use parts of their codes:
   Stefan Grimme, W. Hujo, H. Kruse,             : VdW corrections, initial TS optimization,
                  C. Bannwarth                     DFT functionals, gCP, sTDA/sTD-DF
   Ed Valeev                                     : LibInt (2-el integral package), F12 methods
   Garnet Chan, S. Sharma, J. Yang, R. Olivares  : DMRG
   Ulf Ekstrom                                   : XCFun DFT Library
   Mihaly Kallay                                 : mrcc  (arbitrary order and MRCC methods)
   Jiri Pittner, Ondrej Demel                    : Mk-CCSD
   Frank Weinhold                                : gennbo (NPA and NBO analysis)
   Christopher J. Cramer and Donald G. Truhlar   : smd solvation model


 Your calculation uses the libint2 library for the computation of 2-el integrals
 For citations please refer to: http://libint.valeyev.net

 This ORCA versions uses:
   CBLAS   interface :  Fast vector & matrix operations
   LAPACKE interface :  Fast linear algebra routines
   SCALAPACK package :  Parallel linear algebra routines


Your calculation utilizes the atom-pairwise dispersion correction
with the zero-damping scheme (D30)
Cite in your paper:
S.Grimme, J.Antony, S.Ehrlich and H.Krieg, J.Chem.Phys., 132, (2010), 154104 
   

XCFun DFT library Copyright 2009-2010 Ulf Ekstrom and contributors.
See http://admol.org/xcfun for more information. This is free soft-
ware; see the source code for copying conditions. There is ABSOLUTELY
NO WARRANTY; not even for MERCHANTABILITY or FITNESS FOR A PARTICULAR
PURPOSE. For details see the documentation. Scientific users of this 
library should cite U. Ekstrom, L. Visscher, R. Bast, A. J. Thorvald-
sen and K. Ruud; J.Chem.Theor.Comp. 2010, DOI: 10.1021/ct100117s
XCFun Version 0.99 
Your calculation utilizes the basis: 6-31G(d)
   H-He, Li-Ne : W. J. Hehre, R. Ditchfield and J.A. Pople, J. Chem. Phys. 56, 2257 (1972).
                 Note: He and Ne are unpublished basis sets taken from the Gaussian program.
                 Note: Li and B from J. D. Dill and J. A. Pople, J. Chem. Phys. 62, 2921 (1975).
   Na - Ar     : M. M. Francl, W. J. Pietro, W. J. Hehre, J. S. Binkley, M. S. Gordon, 
                 D. J. DeFrees and J. A. Pople, J. Chem. Phys. 77, 3654 (1982).
   K - Zn      : V. A. Rassolov, J. A. Pople, M. A. Ratner, and T. L. Windus, J. Chem. Phys. 109, 1223 (1998).

================================================================================
                                        WARNINGS
                       Please study these warnings very carefully!
================================================================================

Warning: TCutStore was < 0. Adjusted to Thresh (uncritical)

INFO   : the flag for use of LIBINT has been found!

================================================================================
                                       INPUT FILE
================================================================================
NAME = initial27.inp
|  1> ! WB97X-D3 6-31G(d) VerySlowConv
|  2> ! KDIIS NOSOSCF
|  3> %base "Scan_27"
|  4> 
|  5> %scf
|  6> maxiter 999
|  7> end
|  8> 
|  9> * xyz 0 1
| 10> C         -4.162233940620    0.380671879147   -0.000000000000
| 11> N         -1.005131333089    0.473964019591    0.000000000000
| 12> H         -5.272414726292    0.347894101263    0.000000000000
| 13> **                         ****END OF INPUT****
================================================================================

                       ****************************
                       * Single Point Calculation *
                       ****************************

---------------------------------
CARTESIAN COORDINATES (ANGSTROEM)
---------------------------------
  C     -4.162234    0.380672   -0.000000
  N     -1.005131    0.473964    0.000000
  H     -5.272415    0.347894    0.000000

----------------------------
CARTESIAN COORDINATES (A.U.)
----------------------------
  NO LB      ZA    FRAG     MASS         X           Y           Z
   0 C     6.0000    0    12.011   -7.865482    0.719366   -0.000000
   1 N     7.0000    0    14.007   -1.899423    0.895662    0.000000
   2 H     1.0000    0     1.008   -9.963420    0.657425    0.000000

--------------------------------
INTERNAL COORDINATES (ANGSTROEM)
--------------------------------
 C      0   0   0     0.000000000000     0.00000000     0.00000000
 N      1   0   0     3.158480694566     0.00000000     0.00000000
 H      1   2   0     1.110664557640   179.99855726     0.00000000

---------------------------
INTERNAL COORDINATES (A.U.)
---------------------------
 C      0   0   0     0.000000000000     0.00000000     0.00000000
 N      1   0   0     5.968663512008     0.00000000     0.00000000
 H      1   2   0     2.098851840593   179.99855726     0.00000000

---------------------
BASIS SET INFORMATION
---------------------
There are 3 groups of distinct atoms

 Group   1 Type C   : 10s4p1d contracted to 3s2p1d pattern {631/31/1}
 Group   2 Type N   : 10s4p1d contracted to 3s2p1d pattern {631/31/1}
 Group   3 Type H   : 4s contracted to 2s pattern {31}

Atom   0C    basis set group =>   1
Atom   1N    basis set group =>   2
Atom   2H    basis set group =>   3
------------------------------------------------------------------------------
                           ORCA GTO INTEGRAL CALCULATION
------------------------------------------------------------------------------

                         BASIS SET STATISTICS AND STARTUP INFO

 # of primitive gaussian shells          ...   34
 # of primitive gaussian functions       ...   58
 # of contracted shells                  ...   14
 # of contracted basis functions         ...   30
 Highest angular momentum                ...    2
 Maximum contraction depth               ...    6
 Integral package used                   ... LIBINT
 Integral threshhold            Thresh   ...  1.000e-10
 Primitive cut-off              TCut     ...  1.000e-11


------------------------------ INTEGRAL EVALUATION ----------------------------


 * One electron integrals 
 Pre-screening matrix                    ... done
 Shell pair data                         ... done (   0.000 sec)

-------------------------------------------------------------------------------
                                 ORCA SCF
-------------------------------------------------------------------------------

------------
SCF SETTINGS
------------
Hamiltonian:
 Density Functional     Method          .... DFT(GTOs)
 Exchange Functional    Exchange        .... WB97X-D3
 Correlation Functional Correlation     .... WB97X-D3
 Gradients option       PostSCFGGA      .... off
 Hybrid DFT is turned on
   Fraction HF Exchange ScalHFX         ....  0.195728
   Scaling of DF-GGA-X  ScalDFX         ....  0.000000
   Scaling of DF-GGA-C  ScalDFC         ....  1.000000
   Scaling of DF-LDA-C  ScalLDAC        ....  1.000000
   Perturbative correction              ....  0.000000
 Long-range corrected/Screened/Range-Separated Hybrid DFT is turned on
   Amount of maximum screened exact exchange              ....  0.804272
   Range separation parameter mu (erf(mu*r12)/r12)        ....  0.250000


General Settings:
 Integral files         IntName         .... Scan_27
 Hartree-Fock type      HFTyp           .... RHF
 Total Charge           Charge          ....    0
 Multiplicity           Mult            ....    1
 Number of Electrons    NEL             ....   14
 Basis Dimension        Dim             ....   30
 Nuclear Repulsion      ENuc            ....     10.7631343191 Eh

Convergence Acceleration:
 DIIS                   CNVDIIS         .... on
   Start iteration      DIISMaxIt       ....     0
   Startup error        DIISStart       ....  0.200000
   # of expansion vecs  DIISMaxEq       ....     5
   Bias factor          DIISBfac        ....   1.050
   Max. coefficient     DIISMaxC        ....  10.000
 Newton-Raphson         CNVNR           .... off
 SOSCF                  CNVSOSCF        .... off
 Level Shifting         CNVShift        .... off
 Zerner damping         CNVZerner       .... off
 Static damping         CNVDamp         .... off
 Fernandez-Rico         CNVRico         .... off

SCF Procedure:
 Maximum # iterations   MaxIter         ....   999
 SCF integral mode      SCFMode         .... Direct
   Integral package                     .... LIBINT
 Reset frequeny         DirectResetFreq ....    20
 Integral Threshold     Thresh          ....  1.000e-10 Eh
 Primitive CutOff       TCut            ....  1.000e-11 Eh

Convergence Tolerance:
 Convergence Check Mode ConvCheckMode   .... All-Criteria
 Convergence forced     ConvForced      .... 0
 Energy Change          TolE            ....  1.000e-06 Eh
 Max Density Change     TolMaxP         ....  1.000e-05
 RMS Density Change     TolRMSP         ....  1.000e-06
 DIIS Error             TolErr          ....  1.000e-06


Diagonalization of the overlap matrix:
Smallest eigenvalue                        ... 4.675e-02
Time for diagonalization                   ...    0.001 sec
Threshold for overlap eigenvalues          ... 1.000e-08
Number of eigenvalues below threshold      ... 0
Time for construction of square roots      ...    0.018 sec
Total time needed                          ...    0.019 sec

-------------------
DFT GRID GENERATION
-------------------

General Integration Accuracy     IntAcc      ...  4.340
Radial Grid Type                 RadialGrid  ... Gauss-Chebyshev
Angular Grid (max. acc.)         AngularGrid ... Lebedev-110
Angular grid pruning method      GridPruning ... 3 (G Style)
Weight generation scheme         WeightScheme... Becke
Basis function cutoff            BFCut       ...    1.0000e-10
Integration weight cutoff        WCut        ...    1.0000e-14
Grids for H and He will be reduced by one unit

# of grid points (after initial pruning)     ...   4152 (   0.0 sec)
# of grid points (after weights+screening)   ...   4115 (   0.0 sec)
nearest neighbour list constructed           ...    0.0 sec
Grid point re-assignment to atoms done       ...    0.0 sec
Grid point division into batches done        ...    0.0 sec
Reduced shell lists constructed in    0.0 sec

Total number of grid points                  ...     4115
Total number of batches                      ...       66
Average number of points per batch           ...       62
Average number of grid points per atom       ...     1372
Average number of shells per batch           ...    10.85 (77.51%)
Average number of basis functions per batch  ...    23.93 (79.75%)
Average number of large shells per batch     ...     8.91 (82.12%)
Average number of large basis fcns per batch ...    19.18 (80.16%)
Maximum spatial batch extension              ...  18.98, 25.60, 31.36 au
Average spatial batch extension              ...   4.71,  7.02,  7.40 au

Time for grid setup =    0.221 sec

------------------------------
INITIAL GUESS: MODEL POTENTIAL
------------------------------
Loading Hartree-Fock densities                     ... done
Calculating cut-offs                               ... done
Setting up the integral package                    ... done
Initializing the effective Hamiltonian             ... done
Starting the Coulomb interaction                   ... done (   0.0 sec)
Reading the grid                                   ... done
Mapping shells                                     ... done
Starting the XC term evaluation                    ... done (   0.0 sec)
  promolecular density results
     # of electrons  =     13.997336066
     EX              =    -11.614802848
     EC              =     -0.389534359
     EX+EC           =    -12.004337207
Transforming the Hamiltonian                       ... done (   0.0 sec)
Diagonalizing the Hamiltonian                      ... done (   0.0 sec)
Back transforming the eigenvectors                 ... done (   0.0 sec)
Now organizing SCF variables                       ... done
                      ------------------
                      INITIAL GUESS DONE (   0.4 sec)
                      ------------------
--------------
SCF ITERATIONS
--------------
ITER       Energy         Delta-E        Max-DP      RMS-DP      [F,P]   Gradient Norm
               ***  Starting incremental Fock matrix formation  ***
                             ****Resetting KDIIS****
                             ****Turning on KDIIS(Cayley)****
  0    -92.4773920260   0.000000000000 0.04656956  0.00379682  0.1870139   0.139599298
  1    -92.5303035880  -0.052911561919 0.04803344  0.00482984  0.1616526   0.117579519
  2    -92.5992944315  -0.068990843500 0.14690019  0.01182438  0.1227518   0.093494493
  3    -92.7410046376  -0.141710206117 0.20885142  0.01931670  0.0776391   0.050416065
  4    -92.6931439255   0.047860712132 0.23816927  0.02175709  0.1579942   0.126494919
  5    -92.7272623206  -0.034118395160 0.06366765  0.00486975  0.0761645   0.045506970
  6    -92.6990934816   0.028168838970 0.13811318  0.00972321  0.0714349   0.043318648
  7    -92.6505070323   0.048586449346 0.12456541  0.01225303  0.0394994   0.029225148
  8    -92.7031286351  -0.052621602831 0.08668528  0.00862930  0.0817623   0.058534043
  9    -92.7709777943  -0.067849159181 0.44682348  0.04295393  0.0657040   0.044468059
 10    -92.6617336370   0.109244157335 0.22416025  0.02567226  0.0933222   0.084588489
 11    -92.2172736604   0.444459976607 0.48456264  0.05123157  0.3168640   0.284515793
 12    -92.6615827231  -0.444309062745 0.17548738  0.01712187  0.0611817   0.048568932
 13    -92.6477963654   0.013786357746 0.01672698  0.00160521  0.0266600   0.020221241
 14    -92.6529512844  -0.005154919052 0.07394718  0.00738914  0.0326243   0.024997154
 15    -92.6392653453   0.013685939162 0.02167124  0.00174584  0.0148066   0.013058047
 16    -92.6419908182  -0.002725472926 0.01583370  0.00145694  0.0156322   0.012886606
 17    -92.6404217942   0.001569023996 0.01908653  0.00203827  0.0098690   0.009342646
 18    -92.6404130797   0.000008714537 0.01049713  0.00078594  0.0028949   0.001349627
 19    -92.6405137231  -0.000100643475 0.00978155  0.00076864  0.0055020   0.003180757
               *** Restarting incremental Fock matrix formation ***
                             ****Resetting KDIIS****
 20    -92.6403722548   0.000141468361 0.00046518  0.00003465  0.0007885   0.000720184
 21    -92.6403749628  -0.000002708062 0.00030965  0.00003171  0.0009102   0.000694560
                          ***Energy convergence achieved***
 22    -92.6403755481  -0.000000585284 0.00153704  0.00010862  0.0007991   0.000585290
 23    -92.6403771937  -0.000001645612 0.00409431  0.00026368  0.0006029   0.000446031
 24    -92.6403838568  -0.000006663110 0.02332375  0.00139996  0.0006728   0.000308238
 25    -92.6403573452   0.000026511645 0.00986427  0.00059523  0.0002788   0.000279106
 26    -92.6403545744   0.000002770748 0.00029468  0.00001896  0.0003253   0.000171331
                          ***Energy convergence achieved***
 27    -92.6403545104   0.000000064008 0.00082212  0.00006106  0.0002926   0.000174835
 28    -92.6403541371   0.000000373306 0.00286340  0.00017832  0.0002560   0.000201714
 29    -92.6403540350   0.000000102097 0.00017806  0.00001506  0.0000679   0.000046254
 30    -92.6403541679  -0.000000132909 0.00049935  0.00002982  0.0000605   0.000042705
 31    -92.6403542136  -0.000000045656 0.00147470  0.00008932  0.0000719   0.000046031

            ***Energy convergence in two consecutive cycles with***
                    ***'reasonable' density convergence***
                       *** signaling convergence ***

                    *** KDIIS BlockDiag ( 0.000 sec) ***

               *****************************************************
               *                     SUCCESS                       *
               *           SCF CONVERGED AFTER  32 CYCLES          *
               *****************************************************

Setting up the final grid:

General Integration Accuracy     IntAcc      ...  4.670
Radial Grid Type                 RadialGrid  ... Gauss-Chebyshev
Angular Grid (max. acc.)         AngularGrid ... Lebedev-302
Angular grid pruning method      GridPruning ... 3 (G Style)
Weight generation scheme         WeightScheme... Becke
Basis function cutoff            BFCut       ...    1.0000e-10
Integration weight cutoff        WCut        ...    1.0000e-14
Grids for H and He will be reduced by one unit

# of grid points (after initial pruning)     ...  15818 (   0.0 sec)
# of grid points (after weights+screening)   ...  15738 (   0.0 sec)
nearest neighbour list constructed           ...    0.0 sec
Grid point re-assignment to atoms done       ...    0.0 sec
Grid point division into batches done        ...    0.1 sec
Reduced shell lists constructed in    0.3 sec

Total number of grid points                  ...    15738
Total number of batches                      ...      247
Average number of points per batch           ...       63
Average number of grid points per atom       ...     5246
Average number of shells per batch           ...     9.48 (67.74%)
Average number of basis functions per batch  ...    20.68 (68.92%)
Average number of large shells per batch     ...     7.78 (82.02%)
Average number of large basis fcns per batch ...    16.79 (81.18%)
Maximum spatial batch extension              ...  19.22, 20.64, 20.64 au
Average spatial batch extension              ...   3.47,  4.24,  4.23 au

Final grid set up in    0.4 sec
Final integration                            ... done (   0.2 sec)
Change in XC energy                          ...     0.000192268
Integrated number of electrons               ...    13.999986400
Previous integrated no of electrons          ...    13.999016202

----------------
TOTAL SCF ENERGY
----------------

Total Energy       :          -92.64016199 Eh           -2520.86697 eV

Components:
Nuclear Repulsion  :           10.76313432 Eh             292.87977 eV
Electronic Energy  :         -103.40329631 Eh           -2813.74674 eV
One Electron Energy:         -146.53605176 Eh           -3987.44869 eV
Two Electron Energy:           43.13275545 Eh            1173.70195 eV

Virial components:
Potential Energy   :         -184.83213560 Eh           -5029.53811 eV
Kinetic Energy     :           92.19197361 Eh            2508.67114 eV
Virial Ratio       :            2.00486147


DFT components:
N(Alpha)           :        6.999993200247 electrons
N(Beta)            :        6.999993200247 electrons
N(Total)           :       13.999986400494 electrons
E(XC)              :       -8.499114916462 Eh       

---------------
SCF CONVERGENCE
---------------

  Last Energy change         ...   -4.5019e-08  Tolerance :   1.0000e-06
  Last MAX-Density change    ...    4.0879e-05  Tolerance :   1.0000e-05
  Last RMS-Density change    ...    3.0648e-06  Tolerance :   1.0000e-06
  Last DIIS Error            ...    7.1857e-05  Tolerance :   1.0000e-06

             **** THE GBW FILE WAS UPDATED (Scan_27.gbw) ****
             **** DENSITY FILE WAS UPDATED (Scan_27.scfp.tmp) ****
             **** ENERGY FILE WAS UPDATED (Scan_27.en.tmp) ****
----------------
ORBITAL ENERGIES
----------------

  NO   OCC          E(Eh)            E(eV) 
   0   2.0000     -14.188989      -386.1020 
   1   2.0000     -10.759010      -292.7675 
   2   2.0000      -1.018023       -27.7018 
   3   2.0000      -0.653366       -17.7790 
   4   2.0000      -0.513526       -13.9738 
   5   2.0000      -0.061421        -1.6713 
   6   2.0000      -0.061391        -1.6705 
   7   0.0000      -0.282346        -7.6830 
   8   0.0000      -0.282343        -7.6829 
   9   0.0000       0.034163         0.9296 
  10   0.0000       0.192314         5.2331 
  11   0.0000       0.453670        12.3450 
  12   0.0000       0.453671        12.3450 
  13   0.0000       0.524037        14.2598 
  14   0.0000       0.554348        15.0846 
  15   0.0000       0.752641        20.4804 
  16   0.0000       1.042337        28.3634 
  17   0.0000       1.042341        28.3636 
  18   0.0000       1.085331        29.5334 
  19   0.0000       1.197003        32.5721 
  20   0.0000       1.475589        40.1528 
  21   0.0000       1.475622        40.1537 
  22   0.0000       1.490797        40.5667 
  23   0.0000       1.491471        40.5850 
  24   0.0000       1.938026        52.7364 
  25   0.0000       2.104208        57.2584 
  26   0.0000       2.104241        57.2593 
  27   0.0000       2.112918        57.4954 
  28   0.0000       2.143540        58.3287 
  29   0.0000       2.143649        58.3317 

                    ********************************
                    * MULLIKEN POPULATION ANALYSIS *
                    ********************************

-----------------------
MULLIKEN ATOMIC CHARGES
-----------------------
   0 C :    0.695478
   1 N :   -0.989072
   2 H :    0.293594
Sum of atomic charges:   -0.0000000

--------------------------------
MULLIKEN REDUCED ORBITAL CHARGES
--------------------------------
  0 C s       :     3.983903  s :     3.983903
      pz      :     0.002576  p :     1.301413
      px      :     1.295104
      py      :     0.003734
      dz2     :     0.004789  d :     0.019205
      dxz     :     0.000025
      dyz     :     0.000000
      dx2y2   :     0.014314
      dxy     :     0.000077
  1 N s       :     3.993291  s :     3.993291
      pz      :     1.997386  p :     3.995484
      px      :     0.001217
      py      :     1.996881
      dz2     :     0.000068  d :     0.000297
      dxz     :     0.000012
      dyz     :     0.000000
      dx2y2   :     0.000204
      dxy     :     0.000013
  2 H s       :     0.706406  s :     0.706406


                     *******************************
                     * LOEWDIN POPULATION ANALYSIS *
                     *******************************

----------------------
LOEWDIN ATOMIC CHARGES
----------------------
   0 C :    0.791002
   1 N :   -0.990522
   2 H :    0.199520

-------------------------------
LOEWDIN REDUCED ORBITAL CHARGES
-------------------------------
  0 C s       :     3.797888  s :     3.797888
      pz      :     0.002417  p :     1.386954
      px      :     1.380896
      py      :     0.003641
      dz2     :     0.006026  d :     0.024156
      dxz     :     0.000026
      dyz     :     0.000000
      dx2y2   :     0.018013
      dxy     :     0.000091
  1 N s       :     3.992875  s :     3.992875
      pz      :     1.997545  p :     3.997349
      px      :     0.002789
      py      :     1.997015
      dz2     :     0.000068  d :     0.000298
      dxz     :     0.000013
      dyz     :     0.000000
      dx2y2   :     0.000204
      dxy     :     0.000013
  2 H s       :     0.800480  s :     0.800480


                      *****************************
                      * MAYER POPULATION ANALYSIS *
                      *****************************

  NA   - Mulliken gross atomic population
  ZA   - Total nuclear charge
  QA   - Mulliken gross atomic charge
  VA   - Mayer's total valence
  BVA  - Mayer's bonded valence
  FA   - Mayer's free valence

  ATOM       NA         ZA         QA         VA         BVA        FA
  0 C      5.3045     6.0000     0.6955     0.8538     0.8538     0.0000
  1 N      7.9891     7.0000    -0.9891     0.0220     0.0220    -0.0000
  2 H      0.7064     1.0000     0.2936     0.8356     0.8356    -0.0000

  Mayer bond orders larger than 0.1
B(  0-C ,  2-H ) :   0.8337 

-------
TIMINGS
-------

Total SCF time: 0 days 0 hours 0 min 37 sec 

Total time                  ....      37.068 sec
Sum of individual times     ....      35.190 sec  ( 94.9%)

Fock matrix formation       ....      34.212 sec  ( 92.3%)
  XC integration            ....       5.769 sec  ( 16.9% of F)
    Basis function eval.    ....       1.061 sec  ( 18.4% of XC)
    Density eval.           ....       0.242 sec  (  4.2% of XC)
    XC-Functional eval.     ....       0.902 sec  ( 15.6% of XC)
    XC-Potential eval.      ....       0.139 sec  (  2.4% of XC)
Diagonalization             ....       0.145 sec  (  0.4%)
Density matrix formation    ....       0.000 sec  (  0.0%)
Population analysis         ....       0.009 sec  (  0.0%)
Initial guess               ....       0.239 sec  (  0.6%)
Orbital Transformation      ....       0.000 sec  (  0.0%)
Orbital Orthonormalization  ....       0.000 sec  (  0.0%)
DIIS solution               ....       0.000 sec  (  0.0%)
Grid generation             ....       0.585 sec  (  1.6%)


-------------------------------------------------------------------------------
                          DFT DISPERSION CORRECTION                            
                                                                               
                              DFTD3 V3.1  Rev 1                                
                              USING zero damping                               
-------------------------------------------------------------------------------
The omegaB97X-D3 functional is recognized. Fit by Chai et al.
Active option DFTDOPT                   ...         3   

molecular C6(AA) [au] = 177.227048 


            DFT-D V3
 parameters
 s6 scaling factor         :     1.0000 
 rs6 scaling factor        :     1.2810 
 s8 scaling factor         :     1.0000 
 rs8 scaling factor        :     1.0940 
 Damping factor alpha6     :    14.0000 
 Damping factor alpha8     :    16.0000 
 ad hoc parameters k1-k3   :    16.0000     1.3333    -4.0000 

 Edisp/kcal,au: -0.146192873542  -0.000232973149 
 E6   /kcal   :  -0.038680684 
 E8   /kcal   :  -0.107512189 
 % E8         :  73.541333892 

-------------------------   ----------------
Dispersion correction           -0.000232973
-------------------------   ----------------


-------------------------   --------------------
FINAL SINGLE POINT ENERGY       -92.640394963811
-------------------------   --------------------


                            ***************************************
                            *     ORCA property calculations      *
                            ***************************************

                                    ---------------------
                                    Active property flags
                                    ---------------------
   (+) Dipole Moment


------------------------------------------------------------------------------
                       ORCA ELECTRIC PROPERTIES CALCULATION
------------------------------------------------------------------------------

Dipole Moment Calculation                       ... on
Quadrupole Moment Calculation                   ... off
Polarizability Calculation                      ... off
GBWName                                         ... Scan_27.gbw
Electron density file                           ... Scan_27.scfp.tmp

-------------
DIPOLE MOMENT
-------------
                                X             Y             Z
Electronic contribution:     -4.02001      -0.12137       0.00000
Nuclear contribution   :     -2.52920      -0.07471       0.00000
                        -----------------------------------------
Total Dipole Moment    :     -6.54921      -0.19609       0.00000
                        -----------------------------------------
Magnitude (a.u.)       :      6.55214
Magnitude (Debye)      :     16.65422


Timings for individual modules:

Sum of individual times         ...       38.526 sec (=   0.642 min)
GTO integral calculation        ...        1.416 sec (=   0.024 min)   3.7 %
SCF iterations                  ...       37.110 sec (=   0.618 min)  96.3 %
                             ****ORCA TERMINATED NORMALLY****
TOTAL RUN TIME: 0 days 0 hours 0 minutes 40 seconds 385 msec
