
                                 *****************
                                 * O   R   C   A *
                                 *****************

           --- An Ab Initio, DFT and Semiempirical electronic structure package ---

                  #######################################################
                  #                        -***-                        #
                  #  Department of molecular theory and spectroscopy    #
                  #              Directorship: Frank Neese              #
                  # Max Planck Institute for Chemical Energy Conversion #
                  #                  D-45470 Muelheim/Ruhr              #
                  #                       Germany                       #
                  #                                                     #
                  #                  All rights reserved                #
                  #                        -***-                        #
                  #######################################################


                         Program Version 4.0.0.2 - RELEASE -


 With contributions from (in alphabetic order):
   Daniel Aravena         : Magnetic Properties
   Michael Atanasov       : Ab Initio Ligand Field Theory
   Ute Becker             : Parallelization
   Martin Brehm           : Molecular dynamics
   Dmytro Bykov           : SCF Hessian
   Vijay G. Chilkuri      : MRCI spin determinant printing
   Dipayan Datta          : RHF DLPNO-CCSD density
   Achintya Kumar Dutta   : EOM-CC, STEOM-CC
   Dmitry Ganyushin       : Spin-Orbit,Spin-Spin,Magnetic field MRCI
   Yang Guo               : DLPNO-NEVPT2, CIM, IAO-localization
   Andreas Hansen         : Spin unrestricted coupled pair/coupled cluster methods
   Lee Huntington         : MR-EOM, pCC
   Robert Izsak           : Overlap fitted RIJCOSX, COSX-SCS-MP3, EOM
   Christian Kollmar      : KDIIS, OOCD, Brueckner-CCSD(T), CCSD density
   Simone Kossmann        : Meta GGA functionals, TD-DFT gradient, OOMP2, MP2 Hessian
   Martin Krupicka        : AUTO-CI
   Dagmar Lenk            : GEPOL surface
   Dimitrios Liakos       : Extrapolation schemes; parallel MDCI
   Dimitrios Manganas     : ROCIS; embedding schemes
   Dimitrios Pantazis     : SARC Basis sets
   Taras Petrenko         : DFT Hessian,TD-DFT gradient, ASA, ECA, R-Raman, ABS, FL, XAS/XES, NRVS
   Peter Pinski           : DLPNO-MP2
   Christoph Reimann      : Effective Core Potentials
   Marius Retegan         : Local ZFS, SOC
   Christoph Riplinger    : Optimizer, TS searches, QM/MM, DLPNO-CCSD(T), (RO)-DLPNO pert. Triples
   Tobias Risthaus        : Range-separated hybrids, TD-DFT gradient, RPA, STAB
   Michael Roemelt        : Restricted open shell CIS
   Masaaki Saitow         : Open-shell DLPNO
   Barbara Sandhoefer     : DKH picture change effects
   Kantharuban Sivalingam : CASSCF convergence, NEVPT2, FIC-MRCI
   Georgi Stoychev        : AutoAux
   Boris Wezisla          : Elementary symmetry handling
   Frank Wennmohs         : Technical directorship


 We gratefully acknowledge several colleagues who have allowed us to
 interface, adapt or use parts of their codes:
   Stefan Grimme, W. Hujo, H. Kruse,             : VdW corrections, initial TS optimization,
                  C. Bannwarth                     DFT functionals, gCP, sTDA/sTD-DF
   Ed Valeev                                     : LibInt (2-el integral package), F12 methods
   Garnet Chan, S. Sharma, J. Yang, R. Olivares  : DMRG
   Ulf Ekstrom                                   : XCFun DFT Library
   Mihaly Kallay                                 : mrcc  (arbitrary order and MRCC methods)
   Jiri Pittner, Ondrej Demel                    : Mk-CCSD
   Frank Weinhold                                : gennbo (NPA and NBO analysis)
   Christopher J. Cramer and Donald G. Truhlar   : smd solvation model


 Your calculation uses the libint2 library for the computation of 2-el integrals
 For citations please refer to: http://libint.valeyev.net

 This ORCA versions uses:
   CBLAS   interface :  Fast vector & matrix operations
   LAPACKE interface :  Fast linear algebra routines
   SCALAPACK package :  Parallel linear algebra routines


Your calculation utilizes the atom-pairwise dispersion correction
with the zero-damping scheme (D30)
Cite in your paper:
S.Grimme, J.Antony, S.Ehrlich and H.Krieg, J.Chem.Phys., 132, (2010), 154104 
   

XCFun DFT library Copyright 2009-2010 Ulf Ekstrom and contributors.
See http://admol.org/xcfun for more information. This is free soft-
ware; see the source code for copying conditions. There is ABSOLUTELY
NO WARRANTY; not even for MERCHANTABILITY or FITNESS FOR A PARTICULAR
PURPOSE. For details see the documentation. Scientific users of this 
library should cite U. Ekstrom, L. Visscher, R. Bast, A. J. Thorvald-
sen and K. Ruud; J.Chem.Theor.Comp. 2010, DOI: 10.1021/ct100117s
XCFun Version 0.99 
Your calculation utilizes the basis: 6-31G(d)
   H-He, Li-Ne : W. J. Hehre, R. Ditchfield and J.A. Pople, J. Chem. Phys. 56, 2257 (1972).
                 Note: He and Ne are unpublished basis sets taken from the Gaussian program.
                 Note: Li and B from J. D. Dill and J. A. Pople, J. Chem. Phys. 62, 2921 (1975).
   Na - Ar     : M. M. Francl, W. J. Pietro, W. J. Hehre, J. S. Binkley, M. S. Gordon, 
                 D. J. DeFrees and J. A. Pople, J. Chem. Phys. 77, 3654 (1982).
   K - Zn      : V. A. Rassolov, J. A. Pople, M. A. Ratner, and T. L. Windus, J. Chem. Phys. 109, 1223 (1998).

================================================================================
                                        WARNINGS
                       Please study these warnings very carefully!
================================================================================

Warning: TCutStore was < 0. Adjusted to Thresh (uncritical)

INFO   : the flag for use of LIBINT has been found!

================================================================================
                                       INPUT FILE
================================================================================
NAME = initial28.inp
|  1> ! WB97X-D3 6-31G(d) VerySlowConv
|  2> ! KDIIS NOSOSCF
|  3> %base "Scan_28"
|  4> 
|  5> %scf
|  6> maxiter 999
|  7> end
|  8> 
|  9> * xyz 0 1
| 10> C         -4.196388579289    0.379661036919    0.000000000000
| 11> N         -0.936729929120    0.475984487395    0.000000000000
| 12> H         -5.306661491592    0.346884475687    0.000000000000
| 13> **                         ****END OF INPUT****
================================================================================

                       ****************************
                       * Single Point Calculation *
                       ****************************

---------------------------------
CARTESIAN COORDINATES (ANGSTROEM)
---------------------------------
  C     -4.196389    0.379661    0.000000
  N     -0.936730    0.475984    0.000000
  H     -5.306661    0.346884    0.000000

----------------------------
CARTESIAN COORDINATES (A.U.)
----------------------------
  NO LB      ZA    FRAG     MASS         X           Y           Z
   0 C     6.0000    0    12.011   -7.930025    0.717455    0.000000
   1 N     7.0000    0    14.007   -1.770163    0.899480    0.000000
   2 H     1.0000    0     1.008  -10.028137    0.655517    0.000000

--------------------------------
INTERNAL COORDINATES (ANGSTROEM)
--------------------------------
 C      0   0   0     0.000000000000     0.00000000     0.00000000
 N      1   0   0     3.261081526539     0.00000000     0.00000000
 H      1   2   0     1.110756608245   179.99834047     0.00000000

---------------------------
INTERNAL COORDINATES (A.U.)
---------------------------
 C      0   0   0     0.000000000000     0.00000000     0.00000000
 N      1   0   0     6.162550985548     0.00000000     0.00000000
 H      1   2   0     2.099025791026   179.99834047     0.00000000

---------------------
BASIS SET INFORMATION
---------------------
There are 3 groups of distinct atoms

 Group   1 Type C   : 10s4p1d contracted to 3s2p1d pattern {631/31/1}
 Group   2 Type N   : 10s4p1d contracted to 3s2p1d pattern {631/31/1}
 Group   3 Type H   : 4s contracted to 2s pattern {31}

Atom   0C    basis set group =>   1
Atom   1N    basis set group =>   2
Atom   2H    basis set group =>   3
------------------------------------------------------------------------------
                           ORCA GTO INTEGRAL CALCULATION
------------------------------------------------------------------------------

                         BASIS SET STATISTICS AND STARTUP INFO

 # of primitive gaussian shells          ...   34
 # of primitive gaussian functions       ...   58
 # of contracted shells                  ...   14
 # of contracted basis functions         ...   30
 Highest angular momentum                ...    2
 Maximum contraction depth               ...    6
 Integral package used                   ... LIBINT
 Integral threshhold            Thresh   ...  1.000e-10
 Primitive cut-off              TCut     ...  1.000e-11


------------------------------ INTEGRAL EVALUATION ----------------------------


 * One electron integrals 
 Pre-screening matrix                    ... done
 Shell pair data                         ... done (   0.000 sec)

-------------------------------------------------------------------------------
                                 ORCA SCF
-------------------------------------------------------------------------------

------------
SCF SETTINGS
------------
Hamiltonian:
 Density Functional     Method          .... DFT(GTOs)
 Exchange Functional    Exchange        .... WB97X-D3
 Correlation Functional Correlation     .... WB97X-D3
 Gradients option       PostSCFGGA      .... off
 Hybrid DFT is turned on
   Fraction HF Exchange ScalHFX         ....  0.195728
   Scaling of DF-GGA-X  ScalDFX         ....  0.000000
   Scaling of DF-GGA-C  ScalDFC         ....  1.000000
   Scaling of DF-LDA-C  ScalLDAC        ....  1.000000
   Perturbative correction              ....  0.000000
 Long-range corrected/Screened/Range-Separated Hybrid DFT is turned on
   Amount of maximum screened exact exchange              ....  0.804272
   Range separation parameter mu (erf(mu*r12)/r12)        ....  0.250000


General Settings:
 Integral files         IntName         .... Scan_28
 Hartree-Fock type      HFTyp           .... RHF
 Total Charge           Charge          ....    0
 Multiplicity           Mult            ....    1
 Number of Electrons    NEL             ....   14
 Basis Dimension        Dim             ....   30
 Nuclear Repulsion      ENuc            ....     10.5211242455 Eh

Convergence Acceleration:
 DIIS                   CNVDIIS         .... on
   Start iteration      DIISMaxIt       ....     0
   Startup error        DIISStart       ....  0.200000
   # of expansion vecs  DIISMaxEq       ....     5
   Bias factor          DIISBfac        ....   1.050
   Max. coefficient     DIISMaxC        ....  10.000
 Newton-Raphson         CNVNR           .... off
 SOSCF                  CNVSOSCF        .... off
 Level Shifting         CNVShift        .... off
 Zerner damping         CNVZerner       .... off
 Static damping         CNVDamp         .... off
 Fernandez-Rico         CNVRico         .... off

SCF Procedure:
 Maximum # iterations   MaxIter         ....   999
 SCF integral mode      SCFMode         .... Direct
   Integral package                     .... LIBINT
 Reset frequeny         DirectResetFreq ....    20
 Integral Threshold     Thresh          ....  1.000e-10 Eh
 Primitive CutOff       TCut            ....  1.000e-11 Eh

Convergence Tolerance:
 Convergence Check Mode ConvCheckMode   .... All-Criteria
 Convergence forced     ConvForced      .... 0
 Energy Change          TolE            ....  1.000e-06 Eh
 Max Density Change     TolMaxP         ....  1.000e-05
 RMS Density Change     TolRMSP         ....  1.000e-06
 DIIS Error             TolErr          ....  1.000e-06


Diagonalization of the overlap matrix:
Smallest eigenvalue                        ... 4.715e-02
Time for diagonalization                   ...    0.001 sec
Threshold for overlap eigenvalues          ... 1.000e-08
Number of eigenvalues below threshold      ... 0
Time for construction of square roots      ...    0.004 sec
Total time needed                          ...    0.005 sec

-------------------
DFT GRID GENERATION
-------------------

General Integration Accuracy     IntAcc      ...  4.340
Radial Grid Type                 RadialGrid  ... Gauss-Chebyshev
Angular Grid (max. acc.)         AngularGrid ... Lebedev-110
Angular grid pruning method      GridPruning ... 3 (G Style)
Weight generation scheme         WeightScheme... Becke
Basis function cutoff            BFCut       ...    1.0000e-10
Integration weight cutoff        WCut        ...    1.0000e-14
Grids for H and He will be reduced by one unit

# of grid points (after initial pruning)     ...   4152 (   0.0 sec)
# of grid points (after weights+screening)   ...   4115 (   0.0 sec)
nearest neighbour list constructed           ...    0.0 sec
Grid point re-assignment to atoms done       ...    0.0 sec
Grid point division into batches done        ...    0.0 sec
Reduced shell lists constructed in    0.0 sec

Total number of grid points                  ...     4115
Total number of batches                      ...       66
Average number of points per batch           ...       62
Average number of grid points per atom       ...     1372
Average number of shells per batch           ...    10.73 (76.65%)
Average number of basis functions per batch  ...    23.60 (78.66%)
Average number of large shells per batch     ...     8.78 (81.78%)
Average number of large basis fcns per batch ...    18.99 (80.46%)
Maximum spatial batch extension              ...  19.17, 25.60, 31.36 au
Average spatial batch extension              ...   4.62,  7.10,  7.52 au

Time for grid setup =    0.061 sec

------------------------------
INITIAL GUESS: MODEL POTENTIAL
------------------------------
Loading Hartree-Fock densities                     ... done
Calculating cut-offs                               ... done
Setting up the integral package                    ... done
Initializing the effective Hamiltonian             ... done
Starting the Coulomb interaction                   ... done (   0.0 sec)
Reading the grid                                   ... done
Mapping shells                                     ... done
Starting the XC term evaluation                    ... done (   0.1 sec)
  promolecular density results
     # of electrons  =     13.997193419
     EX              =    -11.614501554
     EC              =     -0.389350808
     EX+EC           =    -12.003852363
Transforming the Hamiltonian                       ... done (   0.0 sec)
Diagonalizing the Hamiltonian                      ... done (   0.0 sec)
Back transforming the eigenvectors                 ... done (   0.0 sec)
Now organizing SCF variables                       ... done
                      ------------------
                      INITIAL GUESS DONE (   0.4 sec)
                      ------------------
--------------
SCF ITERATIONS
--------------
ITER       Energy         Delta-E        Max-DP      RMS-DP      [F,P]   Gradient Norm
               ***  Starting incremental Fock matrix formation  ***
                             ****Resetting KDIIS****
                             ****Turning on KDIIS(Cayley)****
  0    -92.4875002364   0.000000000000 0.04404938  0.00360474  0.1636281   0.133297885
  1    -92.5334891555  -0.045988919080 0.05908698  0.00539029  0.1425030   0.112618414
  2    -92.6001227745  -0.066633619018 0.11987191  0.01036314  0.1075624   0.084363473
  3    -92.7230037799  -0.122881005354 0.15205228  0.01393490  0.0815474   0.054153226
  4    -92.7115279360   0.011475843822 0.36933291  0.03693900  0.0586972   0.051729140
  5    -92.3184350339   0.393092902153 0.29298186  0.02606994  0.4093444   0.263862638
  6    -92.7624187488  -0.443983714939 0.09585144  0.01009106  0.0652254   0.047474209
  7    -92.6931932365   0.069225512296 0.12160762  0.01280966  0.1577042   0.085910687
  8    -92.7907350361  -0.097541799545 0.11110780  0.01116263  0.0179101   0.014439851
  9    -92.7851538416   0.005581194496 0.08415953  0.00860962  0.0375773   0.022358526
 10    -92.7950087623  -0.009854920779 0.00304609  0.00030322  0.0126832   0.007552085
 11    -92.7949536927   0.000055069679 0.00654177  0.00071315  0.0117034   0.007950726
 12    -92.7937802927   0.001173399964 0.04576371  0.00452230  0.0142439   0.009483664
 13    -92.7977438806  -0.003963587889 0.00314800  0.00031763  0.0011184   0.001008296
 14    -92.7977578531  -0.000013972492 0.00078807  0.00008269  0.0010400   0.000612297
 15    -92.7977625982  -0.000004745159 0.00026470  0.00002204  0.0001924   0.000098835
                          ***Energy convergence achieved***
 16    -92.7977628243  -0.000000226056 0.00028124  0.00002733  0.0000695   0.000036712
 17    -92.7977626501   0.000000174161 0.00037739  0.00003470  0.0000420   0.000032166
 18    -92.7977625495   0.000000100603 0.00011041  0.00001079  0.0000258   0.000018771
 19    -92.7977625622  -0.000000012620 0.00012604  0.00000851  0.0000248   0.000012256
               *** Restarting incremental Fock matrix formation ***
                             ****Resetting KDIIS****
                           ***RMSP convergence achieved***
                           ***MAXP convergence achieved***
                    *** KDIIS BlockDiag ( 0.000 sec) ***

               *****************************************************
               *                     SUCCESS                       *
               *           SCF CONVERGED AFTER  20 CYCLES          *
               *****************************************************

Setting up the final grid:

General Integration Accuracy     IntAcc      ...  4.670
Radial Grid Type                 RadialGrid  ... Gauss-Chebyshev
Angular Grid (max. acc.)         AngularGrid ... Lebedev-302
Angular grid pruning method      GridPruning ... 3 (G Style)
Weight generation scheme         WeightScheme... Becke
Basis function cutoff            BFCut       ...    1.0000e-10
Integration weight cutoff        WCut        ...    1.0000e-14
Grids for H and He will be reduced by one unit

# of grid points (after initial pruning)     ...  15818 (   0.0 sec)
# of grid points (after weights+screening)   ...  15738 (   0.0 sec)
nearest neighbour list constructed           ...    0.0 sec
Grid point re-assignment to atoms done       ...    0.0 sec
Grid point division into batches done        ...    0.1 sec
Reduced shell lists constructed in    0.3 sec

Total number of grid points                  ...    15738
Total number of batches                      ...      247
Average number of points per batch           ...       63
Average number of grid points per atom       ...     5246
Average number of shells per batch           ...     9.38 (67.02%)
Average number of basis functions per batch  ...    20.36 (67.86%)
Average number of large shells per batch     ...     7.59 (80.92%)
Average number of large basis fcns per batch ...    16.35 (80.31%)
Maximum spatial batch extension              ...  19.22, 20.64, 20.64 au
Average spatial batch extension              ...   3.45,  4.22,  4.26 au

Final grid set up in    0.4 sec
Final integration                            ... done (   0.2 sec)
Change in XC energy                          ...    -0.000074610
Integrated number of electrons               ...    13.999982780
Previous integrated no of electrons          ...    13.997483774

----------------
TOTAL SCF ENERGY
----------------

Total Energy       :          -92.79783719 Eh           -2525.15753 eV

Components:
Nuclear Repulsion  :           10.52112425 Eh             286.29435 eV
Electronic Energy  :         -103.31896144 Eh           -2811.45187 eV
One Electron Energy:         -145.83778481 Eh           -3968.44788 eV
Two Electron Energy:           42.51882337 Eh            1156.99600 eV

Virial components:
Potential Energy   :         -185.03587307 Eh           -5035.08208 eV
Kinetic Energy     :           92.23803588 Eh            2509.92456 eV
Virial Ratio       :            2.00606909


DFT components:
N(Alpha)           :        6.999991389985 electrons
N(Beta)            :        6.999991389985 electrons
N(Total)           :       13.999982779970 electrons
E(XC)              :       -8.438277028218 Eh       

---------------
SCF CONVERGENCE
---------------

  Last Energy change         ...   -1.8062e-08  Tolerance :   1.0000e-06
  Last MAX-Density change    ...    6.7641e-06  Tolerance :   1.0000e-05
  Last RMS-Density change    ...    4.0726e-07  Tolerance :   1.0000e-06
  Last DIIS Error            ...    2.3601e-05  Tolerance :   1.0000e-06

             **** THE GBW FILE WAS UPDATED (Scan_28.gbw) ****
             **** DENSITY FILE WAS UPDATED (Scan_28.scfp.tmp) ****
             **** ENERGY FILE WAS UPDATED (Scan_28.en.tmp) ****
----------------
ORBITAL ENERGIES
----------------

  NO   OCC          E(Eh)            E(eV) 
   0   2.0000     -14.486169      -394.1887 
   1   2.0000     -10.478721      -285.1405 
   2   2.0000      -0.807864       -21.9831 
   3   2.0000      -0.757517       -20.6131 
   4   2.0000      -0.463617       -12.6157 
   5   2.0000      -0.275555        -7.4982 
   6   2.0000      -0.275551        -7.4981 
   7   0.0000      -0.114673        -3.1204 
   8   0.0000      -0.114672        -3.1204 
   9   0.0000      -0.022505        -0.6124 
  10   0.0000       0.180480         4.9111 
  11   0.0000       0.588247        16.0070 
  12   0.0000       0.596525        16.2323 
  13   0.0000       0.596541        16.2327 
  14   0.0000       0.692896        18.8547 
  15   0.0000       0.839580        22.8461 
  16   0.0000       0.839597        22.8466 
  17   0.0000       0.881965        23.9995 
  18   0.0000       0.915760        24.9191 
  19   0.0000       1.032562        28.0974 
  20   0.0000       1.691087        46.0168 
  21   0.0000       1.691142        46.0183 
  22   0.0000       1.707472        46.4627 
  23   0.0000       1.708703        46.4962 
  24   0.0000       1.864867        50.7456 
  25   0.0000       1.864898        50.7464 
  26   0.0000       1.869668        50.8763 
  27   0.0000       1.892924        51.5091 
  28   0.0000       1.892990        51.5109 
  29   0.0000       2.143349        58.3235 

                    ********************************
                    * MULLIKEN POPULATION ANALYSIS *
                    ********************************

-----------------------
MULLIKEN ATOMIC CHARGES
-----------------------
   0 C :    0.020603
   1 N :   -0.211991
   2 H :    0.191387
Sum of atomic charges:    0.0000000

--------------------------------
MULLIKEN REDUCED ORBITAL CHARGES
--------------------------------
  0 C s       :     3.938249  s :     3.938249
      pz      :     0.397633  p :     2.025987
      px      :     1.230149
      py      :     0.398204
      dz2     :     0.003736  d :     0.015161
      dxz     :     0.000110
      dyz     :     0.000000
      dx2y2   :     0.011166
      dxy     :     0.000149
  1 N s       :     3.999573  s :     3.999573
      pz      :     1.602252  p :     3.212271
      px      :     0.008083
      py      :     1.601936
      dz2     :     0.000034  d :     0.000147
      dxz     :     0.000005
      dyz     :     0.000000
      dx2y2   :     0.000102
      dxy     :     0.000005
  2 H s       :     0.808613  s :     0.808613


                     *******************************
                     * LOEWDIN POPULATION ANALYSIS *
                     *******************************

----------------------
LOEWDIN ATOMIC CHARGES
----------------------
   0 C :    0.081129
   1 N :   -0.212022
   2 H :    0.130893

-------------------------------
LOEWDIN REDUCED ORBITAL CHARGES
-------------------------------
  0 C s       :     3.764127  s :     3.764127
      pz      :     0.397631  p :     2.134295
      px      :     1.338360
      py      :     0.398304
      dz2     :     0.005057  d :     0.020449
      dxz     :     0.000113
      dyz     :     0.000000
      dx2y2   :     0.015114
      dxy     :     0.000166
  1 N s       :     3.998610  s :     3.998610
      pz      :     1.602251  p :     3.213265
      px      :     0.009078
      py      :     1.601936
      dz2     :     0.000034  d :     0.000147
      dxz     :     0.000005
      dyz     :     0.000000
      dx2y2   :     0.000102
      dxy     :     0.000005
  2 H s       :     0.869107  s :     0.869107


                      *****************************
                      * MAYER POPULATION ANALYSIS *
                      *****************************

  NA   - Mulliken gross atomic population
  ZA   - Total nuclear charge
  QA   - Mulliken gross atomic charge
  VA   - Mayer's total valence
  BVA  - Mayer's bonded valence
  FA   - Mayer's free valence

  ATOM       NA         ZA         QA         VA         BVA        FA
  0 C      5.9794     6.0000     0.0206     2.1797     2.1797    -0.0000
  1 N      7.2120     7.0000    -0.2120     1.2919     1.2919     0.0000
  2 H      0.8086     1.0000     0.1914     0.8910     0.8910    -0.0000

  Mayer bond orders larger than 0.1
B(  0-C ,  1-N ) :   1.2903 B(  0-C ,  2-H ) :   0.8894 

-------
TIMINGS
-------

Total SCF time: 0 days 0 hours 0 min 24 sec 

Total time                  ....      24.381 sec
Sum of individual times     ....      23.238 sec  ( 95.3%)

Fock matrix formation       ....      22.182 sec  ( 91.0%)
  XC integration            ....       3.938 sec  ( 17.8% of F)
    Basis function eval.    ....       0.498 sec  ( 12.7% of XC)
    Density eval.           ....       0.137 sec  (  3.5% of XC)
    XC-Functional eval.     ....       0.662 sec  ( 16.8% of XC)
    XC-Potential eval.      ....       0.129 sec  (  3.3% of XC)
Diagonalization             ....       0.193 sec  (  0.8%)
Density matrix formation    ....       0.000 sec  (  0.0%)
Population analysis         ....       0.051 sec  (  0.2%)
Initial guess               ....       0.381 sec  (  1.6%)
Orbital Transformation      ....       0.000 sec  (  0.0%)
Orbital Orthonormalization  ....       0.000 sec  (  0.0%)
DIIS solution               ....       0.000 sec  (  0.0%)
Grid generation             ....       0.431 sec  (  1.8%)


-------------------------------------------------------------------------------
                          DFT DISPERSION CORRECTION                            
                                                                               
                              DFTD3 V3.1  Rev 1                                
                              USING zero damping                               
-------------------------------------------------------------------------------
The omegaB97X-D3 functional is recognized. Fit by Chai et al.
Active option DFTDOPT                   ...         3   

molecular C6(AA) [au] = 177.231309 


            DFT-D V3
 parameters
 s6 scaling factor         :     1.0000 
 rs6 scaling factor        :     1.2810 
 s8 scaling factor         :     1.0000 
 rs8 scaling factor        :     1.0940 
 Damping factor alpha6     :    14.0000 
 Damping factor alpha8     :    16.0000 
 ad hoc parameters k1-k3   :    16.0000     1.3333    -4.0000 

 Edisp/kcal,au: -0.154729379674  -0.000246576936 
 E6   /kcal   :  -0.041475650 
 E8   /kcal   :  -0.113253729 
 % E8         :  73.194715625 

-------------------------   ----------------
Dispersion correction           -0.000246577
-------------------------   ----------------


-------------------------   --------------------
FINAL SINGLE POINT ENERGY       -92.798083767358
-------------------------   --------------------


                            ***************************************
                            *     ORCA property calculations      *
                            ***************************************

                                    ---------------------
                                    Active property flags
                                    ---------------------
   (+) Dipole Moment


------------------------------------------------------------------------------
                       ORCA ELECTRIC PROPERTIES CALCULATION
------------------------------------------------------------------------------

Dipole Moment Calculation                       ... on
Quadrupole Moment Calculation                   ... off
Polarizability Calculation                      ... off
GBWName                                         ... Scan_28.gbw
Electron density file                           ... Scan_28.scfp.tmp

-------------
DIPOLE MOMENT
-------------
                                X             Y             Z
Electronic contribution:      0.60902       0.01716       0.00000
Nuclear contribution   :     -2.57887      -0.07618       0.00000
                        -----------------------------------------
Total Dipole Moment    :     -1.96985      -0.05902       0.00000
                        -----------------------------------------
Magnitude (a.u.)       :      1.97073
Magnitude (Debye)      :      5.00921


Timings for individual modules:

Sum of individual times         ...       25.603 sec (=   0.427 min)
GTO integral calculation        ...        1.106 sec (=   0.018 min)   4.3 %
SCF iterations                  ...       24.498 sec (=   0.408 min)  95.7 %
                             ****ORCA TERMINATED NORMALLY****
TOTAL RUN TIME: 0 days 0 hours 0 minutes 27 seconds 173 msec
