
                                 *****************
                                 * O   R   C   A *
                                 *****************

           --- An Ab Initio, DFT and Semiempirical electronic structure package ---

                  #######################################################
                  #                        -***-                        #
                  #  Department of molecular theory and spectroscopy    #
                  #              Directorship: Frank Neese              #
                  # Max Planck Institute for Chemical Energy Conversion #
                  #                  D-45470 Muelheim/Ruhr              #
                  #                       Germany                       #
                  #                                                     #
                  #                  All rights reserved                #
                  #                        -***-                        #
                  #######################################################


                         Program Version 4.0.0.2 - RELEASE -


 With contributions from (in alphabetic order):
   Daniel Aravena         : Magnetic Properties
   Michael Atanasov       : Ab Initio Ligand Field Theory
   Ute Becker             : Parallelization
   Martin Brehm           : Molecular dynamics
   Dmytro Bykov           : SCF Hessian
   Vijay G. Chilkuri      : MRCI spin determinant printing
   Dipayan Datta          : RHF DLPNO-CCSD density
   Achintya Kumar Dutta   : EOM-CC, STEOM-CC
   Dmitry Ganyushin       : Spin-Orbit,Spin-Spin,Magnetic field MRCI
   Yang Guo               : DLPNO-NEVPT2, CIM, IAO-localization
   Andreas Hansen         : Spin unrestricted coupled pair/coupled cluster methods
   Lee Huntington         : MR-EOM, pCC
   Robert Izsak           : Overlap fitted RIJCOSX, COSX-SCS-MP3, EOM
   Christian Kollmar      : KDIIS, OOCD, Brueckner-CCSD(T), CCSD density
   Simone Kossmann        : Meta GGA functionals, TD-DFT gradient, OOMP2, MP2 Hessian
   Martin Krupicka        : AUTO-CI
   Dagmar Lenk            : GEPOL surface
   Dimitrios Liakos       : Extrapolation schemes; parallel MDCI
   Dimitrios Manganas     : ROCIS; embedding schemes
   Dimitrios Pantazis     : SARC Basis sets
   Taras Petrenko         : DFT Hessian,TD-DFT gradient, ASA, ECA, R-Raman, ABS, FL, XAS/XES, NRVS
   Peter Pinski           : DLPNO-MP2
   Christoph Reimann      : Effective Core Potentials
   Marius Retegan         : Local ZFS, SOC
   Christoph Riplinger    : Optimizer, TS searches, QM/MM, DLPNO-CCSD(T), (RO)-DLPNO pert. Triples
   Tobias Risthaus        : Range-separated hybrids, TD-DFT gradient, RPA, STAB
   Michael Roemelt        : Restricted open shell CIS
   Masaaki Saitow         : Open-shell DLPNO
   Barbara Sandhoefer     : DKH picture change effects
   Kantharuban Sivalingam : CASSCF convergence, NEVPT2, FIC-MRCI
   Georgi Stoychev        : AutoAux
   Boris Wezisla          : Elementary symmetry handling
   Frank Wennmohs         : Technical directorship


 We gratefully acknowledge several colleagues who have allowed us to
 interface, adapt or use parts of their codes:
   Stefan Grimme, W. Hujo, H. Kruse,             : VdW corrections, initial TS optimization,
                  C. Bannwarth                     DFT functionals, gCP, sTDA/sTD-DF
   Ed Valeev                                     : LibInt (2-el integral package), F12 methods
   Garnet Chan, S. Sharma, J. Yang, R. Olivares  : DMRG
   Ulf Ekstrom                                   : XCFun DFT Library
   Mihaly Kallay                                 : mrcc  (arbitrary order and MRCC methods)
   Jiri Pittner, Ondrej Demel                    : Mk-CCSD
   Frank Weinhold                                : gennbo (NPA and NBO analysis)
   Christopher J. Cramer and Donald G. Truhlar   : smd solvation model


 Your calculation uses the libint2 library for the computation of 2-el integrals
 For citations please refer to: http://libint.valeyev.net

 This ORCA versions uses:
   CBLAS   interface :  Fast vector & matrix operations
   LAPACKE interface :  Fast linear algebra routines
   SCALAPACK package :  Parallel linear algebra routines


Your calculation utilizes the atom-pairwise dispersion correction
with the zero-damping scheme (D30)
Cite in your paper:
S.Grimme, J.Antony, S.Ehrlich and H.Krieg, J.Chem.Phys., 132, (2010), 154104 
   

XCFun DFT library Copyright 2009-2010 Ulf Ekstrom and contributors.
See http://admol.org/xcfun for more information. This is free soft-
ware; see the source code for copying conditions. There is ABSOLUTELY
NO WARRANTY; not even for MERCHANTABILITY or FITNESS FOR A PARTICULAR
PURPOSE. For details see the documentation. Scientific users of this 
library should cite U. Ekstrom, L. Visscher, R. Bast, A. J. Thorvald-
sen and K. Ruud; J.Chem.Theor.Comp. 2010, DOI: 10.1021/ct100117s
XCFun Version 0.99 
Your calculation utilizes the basis: 6-31G(d)
   H-He, Li-Ne : W. J. Hehre, R. Ditchfield and J.A. Pople, J. Chem. Phys. 56, 2257 (1972).
                 Note: He and Ne are unpublished basis sets taken from the Gaussian program.
                 Note: Li and B from J. D. Dill and J. A. Pople, J. Chem. Phys. 62, 2921 (1975).
   Na - Ar     : M. M. Francl, W. J. Pietro, W. J. Hehre, J. S. Binkley, M. S. Gordon, 
                 D. J. DeFrees and J. A. Pople, J. Chem. Phys. 77, 3654 (1982).
   K - Zn      : V. A. Rassolov, J. A. Pople, M. A. Ratner, and T. L. Windus, J. Chem. Phys. 109, 1223 (1998).

================================================================================
                                        WARNINGS
                       Please study these warnings very carefully!
================================================================================

Warning: TCutStore was < 0. Adjusted to Thresh (uncritical)

INFO   : the flag for use of LIBINT has been found!

================================================================================
                                       INPUT FILE
================================================================================
NAME = initial29.inp
|  1> ! WB97X-D3 6-31G(d) VerySlowConv
|  2> ! KDIIS NOSOSCF
|  3> %base "Scan_29"
|  4> 
|  5> %scf
|  6> maxiter 999
|  7> end
|  8> 
|  9> * xyz 0 1
| 10> C         -4.230513562230    0.378651006267    0.000000000000
| 11> N         -0.868434694466    0.478001895776    0.000000000000
| 12> H         -5.340831743304    0.345877097957   -0.000000000000
| 13> **                         ****END OF INPUT****
================================================================================

                       ****************************
                       * Single Point Calculation *
                       ****************************

---------------------------------
CARTESIAN COORDINATES (ANGSTROEM)
---------------------------------
  C     -4.230514    0.378651    0.000000
  N     -0.868435    0.478002    0.000000
  H     -5.340832    0.345877   -0.000000

----------------------------
CARTESIAN COORDINATES (A.U.)
----------------------------
  NO LB      ZA    FRAG     MASS         X           Y           Z
   0 C     6.0000    0    12.011   -7.994512    0.715547    0.000000
   1 N     7.0000    0    14.007   -1.641104    0.903293    0.000000
   2 H     1.0000    0     1.008  -10.092709    0.653613   -0.000000

--------------------------------
INTERNAL COORDINATES (ANGSTROEM)
--------------------------------
 C      0   0   0     0.000000000000     0.00000000     0.00000000
 N      1   0   0     3.363546478393     0.00000000     0.00000000
 H      1   2   0     1.110801779027   179.99811938     0.00000000

---------------------------
INTERNAL COORDINATES (A.U.)
---------------------------
 C      0   0   0     0.000000000000     0.00000000     0.00000000
 N      1   0   0     6.356181682878     0.00000000     0.00000000
 H      1   2   0     2.099111151433   179.99811938     0.00000000

---------------------
BASIS SET INFORMATION
---------------------
There are 3 groups of distinct atoms

 Group   1 Type C   : 10s4p1d contracted to 3s2p1d pattern {631/31/1}
 Group   2 Type N   : 10s4p1d contracted to 3s2p1d pattern {631/31/1}
 Group   3 Type H   : 4s contracted to 2s pattern {31}

Atom   0C    basis set group =>   1
Atom   1N    basis set group =>   2
Atom   2H    basis set group =>   3
------------------------------------------------------------------------------
                           ORCA GTO INTEGRAL CALCULATION
------------------------------------------------------------------------------

                         BASIS SET STATISTICS AND STARTUP INFO

 # of primitive gaussian shells          ...   34
 # of primitive gaussian functions       ...   58
 # of contracted shells                  ...   14
 # of contracted basis functions         ...   30
 Highest angular momentum                ...    2
 Maximum contraction depth               ...    6
 Integral package used                   ... LIBINT
 Integral threshhold            Thresh   ...  1.000e-10
 Primitive cut-off              TCut     ...  1.000e-11


------------------------------ INTEGRAL EVALUATION ----------------------------


 * One electron integrals 
 Pre-screening matrix                    ... done
 Shell pair data                         ... done (   0.000 sec)

-------------------------------------------------------------------------------
                                 ORCA SCF
-------------------------------------------------------------------------------

------------
SCF SETTINGS
------------
Hamiltonian:
 Density Functional     Method          .... DFT(GTOs)
 Exchange Functional    Exchange        .... WB97X-D3
 Correlation Functional Correlation     .... WB97X-D3
 Gradients option       PostSCFGGA      .... off
 Hybrid DFT is turned on
   Fraction HF Exchange ScalHFX         ....  0.195728
   Scaling of DF-GGA-X  ScalDFX         ....  0.000000
   Scaling of DF-GGA-C  ScalDFC         ....  1.000000
   Scaling of DF-LDA-C  ScalLDAC        ....  1.000000
   Perturbative correction              ....  0.000000
 Long-range corrected/Screened/Range-Separated Hybrid DFT is turned on
   Amount of maximum screened exact exchange              ....  0.804272
   Range separation parameter mu (erf(mu*r12)/r12)        ....  0.250000


General Settings:
 Integral files         IntName         .... Scan_29
 Hartree-Fock type      HFTyp           .... RHF
 Total Charge           Charge          ....    0
 Multiplicity           Mult            ....    1
 Number of Electrons    NEL             ....   14
 Basis Dimension        Dim             ....   30
 Nuclear Repulsion      ENuc            ....     10.2939771283 Eh

Convergence Acceleration:
 DIIS                   CNVDIIS         .... on
   Start iteration      DIISMaxIt       ....     0
   Startup error        DIISStart       ....  0.200000
   # of expansion vecs  DIISMaxEq       ....     5
   Bias factor          DIISBfac        ....   1.050
   Max. coefficient     DIISMaxC        ....  10.000
 Newton-Raphson         CNVNR           .... off
 SOSCF                  CNVSOSCF        .... off
 Level Shifting         CNVShift        .... off
 Zerner damping         CNVZerner       .... off
 Static damping         CNVDamp         .... off
 Fernandez-Rico         CNVRico         .... off

SCF Procedure:
 Maximum # iterations   MaxIter         ....   999
 SCF integral mode      SCFMode         .... Direct
   Integral package                     .... LIBINT
 Reset frequeny         DirectResetFreq ....    20
 Integral Threshold     Thresh          ....  1.000e-10 Eh
 Primitive CutOff       TCut            ....  1.000e-11 Eh

Convergence Tolerance:
 Convergence Check Mode ConvCheckMode   .... All-Criteria
 Convergence forced     ConvForced      .... 0
 Energy Change          TolE            ....  1.000e-06 Eh
 Max Density Change     TolMaxP         ....  1.000e-05
 RMS Density Change     TolRMSP         ....  1.000e-06
 DIIS Error             TolErr          ....  1.000e-06


Diagonalization of the overlap matrix:
Smallest eigenvalue                        ... 4.748e-02
Time for diagonalization                   ...    0.001 sec
Threshold for overlap eigenvalues          ... 1.000e-08
Number of eigenvalues below threshold      ... 0
Time for construction of square roots      ...    0.006 sec
Total time needed                          ...    0.007 sec

-------------------
DFT GRID GENERATION
-------------------

General Integration Accuracy     IntAcc      ...  4.340
Radial Grid Type                 RadialGrid  ... Gauss-Chebyshev
Angular Grid (max. acc.)         AngularGrid ... Lebedev-110
Angular grid pruning method      GridPruning ... 3 (G Style)
Weight generation scheme         WeightScheme... Becke
Basis function cutoff            BFCut       ...    1.0000e-10
Integration weight cutoff        WCut        ...    1.0000e-14
Grids for H and He will be reduced by one unit

# of grid points (after initial pruning)     ...   4152 (   0.0 sec)
# of grid points (after weights+screening)   ...   4115 (   0.0 sec)
nearest neighbour list constructed           ...    0.0 sec
Grid point re-assignment to atoms done       ...    0.0 sec
Grid point division into batches done        ...    0.0 sec
Reduced shell lists constructed in    0.0 sec

Total number of grid points                  ...     4115
Total number of batches                      ...       66
Average number of points per batch           ...       62
Average number of grid points per atom       ...     1372
Average number of shells per batch           ...    10.54 (75.27%)
Average number of basis functions per batch  ...    23.22 (77.41%)
Average number of large shells per batch     ...     8.63 (81.87%)
Average number of large basis fcns per batch ...    18.78 (80.85%)
Maximum spatial batch extension              ...  19.37, 25.60, 31.36 au
Average spatial batch extension              ...   4.69,  7.06,  7.52 au

Time for grid setup =    0.026 sec

------------------------------
INITIAL GUESS: MODEL POTENTIAL
------------------------------
Loading Hartree-Fock densities                     ... done
Calculating cut-offs                               ... done
Setting up the integral package                    ... done
Initializing the effective Hamiltonian             ... done
Starting the Coulomb interaction                   ... done (   0.0 sec)
Reading the grid                                   ... done
Mapping shells                                     ... done
Starting the XC term evaluation                    ... done (   0.0 sec)
  promolecular density results
     # of electrons  =     13.997135860
     EX              =    -11.614321724
     EC              =     -0.389189702
     EX+EC           =    -12.003511426
Transforming the Hamiltonian                       ... done (   0.0 sec)
Diagonalizing the Hamiltonian                      ... done (   0.0 sec)
Back transforming the eigenvectors                 ... done (   0.0 sec)
Now organizing SCF variables                       ... done
                      ------------------
                      INITIAL GUESS DONE (   0.1 sec)
                      ------------------
--------------
SCF ITERATIONS
--------------
ITER       Energy         Delta-E        Max-DP      RMS-DP      [F,P]   Gradient Norm
               ***  Starting incremental Fock matrix formation  ***
                             ****Resetting KDIIS****
                             ****Turning on KDIIS(Cayley)****
  0    -92.4954906041   0.000000000000 0.04208113  0.00343754  0.1549211   0.128153911
  1    -92.5362633304  -0.040772726294 0.05414766  0.00499293  0.1261949   0.108509187
  2    -92.5931697241  -0.056906393765 0.06960472  0.00721103  0.0955469   0.082423945
  3    -92.6214392463  -0.028269522152 0.07830289  0.00858950  0.0619216   0.043997819
  4    -92.6330682270  -0.011628980740 0.01602987  0.00128939  0.0073375   0.004570236
  5    -92.6332862096  -0.000217982544 0.00557026  0.00045030  0.0015519   0.001791657
  6    -92.6333201273  -0.000033917709 0.00161839  0.00015394  0.0011160   0.000774759
  7    -92.6333246321  -0.000004504821 0.00235111  0.00020065  0.0009831   0.000687279
  8    -92.6333137995   0.000010832597 0.00512846  0.00031963  0.0009432   0.000547083
  9    -92.6333271557  -0.000013356242 0.01652331  0.00099525  0.0010472   0.000470324
 10    -92.6332929574   0.000034198340 0.01348489  0.00080966  0.0006939   0.000443437
 11    -92.6332774422   0.000015515182 0.00833833  0.00050620  0.0004798   0.000404126
 12    -92.6332928118  -0.000015369537 0.02052501  0.00123738  0.0008896   0.000560253
 13    -92.6332669528   0.000025858984 0.00670916  0.00040648  0.0003301   0.000291775
 14    -92.6332658882   0.000001064580 0.00119026  0.00007479  0.0002291   0.000159207
                          ***Energy convergence achieved***
 15    -92.6332661319  -0.000000243729 0.00174781  0.00010552  0.0001391   0.000073324
 16    -92.6332660883   0.000000043646 0.00078370  0.00004723  0.0000983   0.000065454
 17    -92.6332661848  -0.000000096536 0.00038670  0.00002514  0.0001049   0.000059486
 18    -92.6332660940   0.000000090825 0.00018326  0.00001354  0.0000539   0.000048580

            ***Energy convergence in two consecutive cycles with***
                    ***'reasonable' density convergence***
                       *** signaling convergence ***

                    *** KDIIS BlockDiag ( 0.000 sec) ***

               *****************************************************
               *                     SUCCESS                       *
               *           SCF CONVERGED AFTER  19 CYCLES          *
               *****************************************************

Setting up the final grid:

General Integration Accuracy     IntAcc      ...  4.670
Radial Grid Type                 RadialGrid  ... Gauss-Chebyshev
Angular Grid (max. acc.)         AngularGrid ... Lebedev-302
Angular grid pruning method      GridPruning ... 3 (G Style)
Weight generation scheme         WeightScheme... Becke
Basis function cutoff            BFCut       ...    1.0000e-10
Integration weight cutoff        WCut        ...    1.0000e-14
Grids for H and He will be reduced by one unit

# of grid points (after initial pruning)     ...  15818 (   0.0 sec)
# of grid points (after weights+screening)   ...  15738 (   0.0 sec)
nearest neighbour list constructed           ...    0.0 sec
Grid point re-assignment to atoms done       ...    0.0 sec
Grid point division into batches done        ...    0.1 sec
Reduced shell lists constructed in    0.1 sec

Total number of grid points                  ...    15738
Total number of batches                      ...      248
Average number of points per batch           ...       63
Average number of grid points per atom       ...     5246
Average number of shells per batch           ...     9.23 (65.95%)
Average number of basis functions per batch  ...    19.91 (66.36%)
Average number of large shells per batch     ...     7.56 (81.86%)
Average number of large basis fcns per batch ...    16.17 (81.22%)
Maximum spatial batch extension              ...  19.22, 20.64, 24.37 au
Average spatial batch extension              ...   3.49,  4.23,  4.24 au

Final grid set up in    0.1 sec
Final integration                            ... done (   0.1 sec)
Change in XC energy                          ...     0.000232486
Integrated number of electrons               ...    13.999972516
Previous integrated no of electrons          ...    13.999719864

----------------
TOTAL SCF ENERGY
----------------

Total Energy       :          -92.63303360 Eh           -2520.67299 eV

Components:
Nuclear Repulsion  :           10.29397713 Eh             280.11336 eV
Electronic Energy  :         -102.92701073 Eh           -2800.78635 eV
One Electron Energy:         -145.59981982 Eh           -3961.97252 eV
Two Electron Energy:           42.67280909 Eh            1161.18617 eV

Virial components:
Potential Energy   :         -184.82357724 Eh           -5029.30522 eV
Kinetic Energy     :           92.19054364 Eh            2508.63223 eV
Virial Ratio       :            2.00479973


DFT components:
N(Alpha)           :        6.999986258129 electrons
N(Beta)            :        6.999986258129 electrons
N(Total)           :       13.999972516257 electrons
E(XC)              :       -8.499604645645 Eh       

---------------
SCF CONVERGENCE
---------------

  Last Energy change         ...    6.4507e-09  Tolerance :   1.0000e-06
  Last MAX-Density change    ...    3.5646e-05  Tolerance :   1.0000e-05
  Last RMS-Density change    ...    4.1053e-06  Tolerance :   1.0000e-06
  Last DIIS Error            ...    5.4923e-05  Tolerance :   1.0000e-06

             **** THE GBW FILE WAS UPDATED (Scan_29.gbw) ****
             **** DENSITY FILE WAS UPDATED (Scan_29.scfp.tmp) ****
             **** ENERGY FILE WAS UPDATED (Scan_29.en.tmp) ****
----------------
ORBITAL ENERGIES
----------------

  NO   OCC          E(Eh)            E(eV) 
   0   2.0000     -14.180074      -385.8594 
   1   2.0000     -10.767805      -293.0069 
   2   2.0000      -1.025890       -27.9159 
   3   2.0000      -0.662544       -18.0287 
   4   2.0000      -0.505216       -13.7476 
   5   2.0000      -0.052888        -1.4391 
   6   2.0000      -0.052868        -1.4386 
   7   0.0000      -0.290862        -7.9148 
   8   0.0000      -0.290856        -7.9146 
   9   0.0000       0.027981         0.7614 
  10   0.0000       0.200425         5.4538 
  11   0.0000       0.445449        12.1213 
  12   0.0000       0.445454        12.1214 
  13   0.0000       0.508189        13.8285 
  14   0.0000       0.541056        14.7229 
  15   0.0000       0.745288        20.2803 
  16   0.0000       1.049680        28.5632 
  17   0.0000       1.049690        28.5635 
  18   0.0000       1.087812        29.6009 
  19   0.0000       1.168669        31.8011 
  20   0.0000       1.466132        39.8955 
  21   0.0000       1.466166        39.8964 
  22   0.0000       1.482097        40.3299 
  23   0.0000       1.482798        40.3490 
  24   0.0000       1.930598        52.5342 
  25   0.0000       2.112624        57.4874 
  26   0.0000       2.112672        57.4887 
  27   0.0000       2.114428        57.5365 
  28   0.0000       2.152120        58.5622 
  29   0.0000       2.152152        58.5630 

                    ********************************
                    * MULLIKEN POPULATION ANALYSIS *
                    ********************************

-----------------------
MULLIKEN ATOMIC CHARGES
-----------------------
   0 C :    0.695628
   1 N :   -0.993727
   2 H :    0.298099
Sum of atomic charges:   -0.0000000

--------------------------------
MULLIKEN REDUCED ORBITAL CHARGES
--------------------------------
  0 C s       :     3.981694  s :     3.981694
      pz      :     0.001380  p :     1.303790
      px      :     1.299864
      py      :     0.002546
      dz2     :     0.004718  d :     0.018888
      dxz     :     0.000008
      dyz     :     0.000000
      dx2y2   :     0.014103
      dxy     :     0.000059
  1 N s       :     3.995583  s :     3.995583
      pz      :     1.998602  p :     3.997862
      px      :     0.000908
      py      :     1.998352
      dz2     :     0.000066  d :     0.000283
      dxz     :     0.000010
      dyz     :     0.000000
      dx2y2   :     0.000197
      dxy     :     0.000010
  2 H s       :     0.701901  s :     0.701901


                     *******************************
                     * LOEWDIN POPULATION ANALYSIS *
                     *******************************

----------------------
LOEWDIN ATOMIC CHARGES
----------------------
   0 C :    0.791683
   1 N :   -0.994558
   2 H :    0.202875

-------------------------------
LOEWDIN REDUCED ORBITAL CHARGES
-------------------------------
  0 C s       :     3.796549  s :     3.796549
      pz      :     0.001285  p :     1.388062
      px      :     1.384253
      py      :     0.002523
      dz2     :     0.005923  d :     0.023706
      dxz     :     0.000008
      dyz     :     0.000000
      dx2y2   :     0.017704
      dxy     :     0.000071
  1 N s       :     3.995602  s :     3.995602
      pz      :     1.998697  p :     3.998673
      px      :     0.001543
      py      :     1.998433
      dz2     :     0.000066  d :     0.000283
      dxz     :     0.000010
      dyz     :     0.000000
      dx2y2   :     0.000197
      dxy     :     0.000010
  2 H s       :     0.797125  s :     0.797125


                      *****************************
                      * MAYER POPULATION ANALYSIS *
                      *****************************

  NA   - Mulliken gross atomic population
  ZA   - Total nuclear charge
  QA   - Mulliken gross atomic charge
  VA   - Mayer's total valence
  BVA  - Mayer's bonded valence
  FA   - Mayer's free valence

  ATOM       NA         ZA         QA         VA         BVA        FA
  0 C      5.3044     6.0000     0.6956     0.8450     0.8450    -0.0000
  1 N      7.9937     7.0000    -0.9937     0.0127     0.0127    -0.0000
  2 H      0.7019     1.0000     0.2981     0.8347     0.8347    -0.0000

  Mayer bond orders larger than 0.1
B(  0-C ,  2-H ) :   0.8335 

-------
TIMINGS
-------

Total SCF time: 0 days 0 hours 0 min 5 sec 

Total time                  ....       5.872 sec
Sum of individual times     ....       5.654 sec  ( 96.3%)

Fock matrix formation       ....       5.375 sec  ( 91.5%)
  XC integration            ....       1.065 sec  ( 19.8% of F)
    Basis function eval.    ....       0.255 sec  ( 23.9% of XC)
    Density eval.           ....       0.048 sec  (  4.5% of XC)
    XC-Functional eval.     ....       0.292 sec  ( 27.4% of XC)
    XC-Potential eval.      ....       0.029 sec  (  2.7% of XC)
Diagonalization             ....       0.010 sec  (  0.2%)
Density matrix formation    ....       0.000 sec  (  0.0%)
Population analysis         ....       0.009 sec  (  0.2%)
Initial guess               ....       0.111 sec  (  1.9%)
Orbital Transformation      ....       0.000 sec  (  0.0%)
Orbital Orthonormalization  ....       0.000 sec  (  0.0%)
DIIS solution               ....       0.000 sec  (  0.0%)
Grid generation             ....       0.149 sec  (  2.5%)


-------------------------------------------------------------------------------
                          DFT DISPERSION CORRECTION                            
                                                                               
                              DFTD3 V3.1  Rev 1                                
                              USING zero damping                               
-------------------------------------------------------------------------------
The omegaB97X-D3 functional is recognized. Fit by Chai et al.
Active option DFTDOPT                   ...         3   

molecular C6(AA) [au] = 177.234231 


            DFT-D V3
 parameters
 s6 scaling factor         :     1.0000 
 rs6 scaling factor        :     1.2810 
 s8 scaling factor         :     1.0000 
 rs8 scaling factor        :     1.0940 
 Damping factor alpha6     :    14.0000 
 Damping factor alpha8     :    16.0000 
 ad hoc parameters k1-k3   :    16.0000     1.3333    -4.0000 

 Edisp/kcal,au: -0.157809347112  -0.000251485176 
 E6   /kcal   :  -0.045280333 
 E8   /kcal   :  -0.112529014 
 % E8         :  71.306938461 

-------------------------   ----------------
Dispersion correction           -0.000251485
-------------------------   ----------------


-------------------------   --------------------
FINAL SINGLE POINT ENERGY       -92.633285086716
-------------------------   --------------------


                            ***************************************
                            *     ORCA property calculations      *
                            ***************************************

                                    ---------------------
                                    Active property flags
                                    ---------------------
   (+) Dipole Moment


------------------------------------------------------------------------------
                       ORCA ELECTRIC PROPERTIES CALCULATION
------------------------------------------------------------------------------

Dipole Moment Calculation                       ... on
Quadrupole Moment Calculation                   ... off
Polarizability Calculation                      ... off
GBWName                                         ... Scan_29.gbw
Electron density file                           ... Scan_29.scfp.tmp

-------------
DIPOLE MOMENT
-------------
                                X             Y             Z
Electronic contribution:     -4.34768      -0.13108      -0.00000
Nuclear contribution   :     -2.62844      -0.07764       0.00000
                        -----------------------------------------
Total Dipole Moment    :     -6.97613      -0.20872      -0.00000
                        -----------------------------------------
Magnitude (a.u.)       :      6.97925
Magnitude (Debye)      :     17.73984


Timings for individual modules:

Sum of individual times         ...        6.199 sec (=   0.103 min)
GTO integral calculation        ...        0.303 sec (=   0.005 min)   4.9 %
SCF iterations                  ...        5.896 sec (=   0.098 min)  95.1 %
                             ****ORCA TERMINATED NORMALLY****
TOTAL RUN TIME: 0 days 0 hours 0 minutes 6 seconds 524 msec
