
                                 *****************
                                 * O   R   C   A *
                                 *****************

           --- An Ab Initio, DFT and Semiempirical electronic structure package ---

                  #######################################################
                  #                        -***-                        #
                  #  Department of molecular theory and spectroscopy    #
                  #              Directorship: Frank Neese              #
                  # Max Planck Institute for Chemical Energy Conversion #
                  #                  D-45470 Muelheim/Ruhr              #
                  #                       Germany                       #
                  #                                                     #
                  #                  All rights reserved                #
                  #                        -***-                        #
                  #######################################################


                         Program Version 4.0.0.2 - RELEASE -


 With contributions from (in alphabetic order):
   Daniel Aravena         : Magnetic Properties
   Michael Atanasov       : Ab Initio Ligand Field Theory
   Ute Becker             : Parallelization
   Martin Brehm           : Molecular dynamics
   Dmytro Bykov           : SCF Hessian
   Vijay G. Chilkuri      : MRCI spin determinant printing
   Dipayan Datta          : RHF DLPNO-CCSD density
   Achintya Kumar Dutta   : EOM-CC, STEOM-CC
   Dmitry Ganyushin       : Spin-Orbit,Spin-Spin,Magnetic field MRCI
   Yang Guo               : DLPNO-NEVPT2, CIM, IAO-localization
   Andreas Hansen         : Spin unrestricted coupled pair/coupled cluster methods
   Lee Huntington         : MR-EOM, pCC
   Robert Izsak           : Overlap fitted RIJCOSX, COSX-SCS-MP3, EOM
   Christian Kollmar      : KDIIS, OOCD, Brueckner-CCSD(T), CCSD density
   Simone Kossmann        : Meta GGA functionals, TD-DFT gradient, OOMP2, MP2 Hessian
   Martin Krupicka        : AUTO-CI
   Dagmar Lenk            : GEPOL surface
   Dimitrios Liakos       : Extrapolation schemes; parallel MDCI
   Dimitrios Manganas     : ROCIS; embedding schemes
   Dimitrios Pantazis     : SARC Basis sets
   Taras Petrenko         : DFT Hessian,TD-DFT gradient, ASA, ECA, R-Raman, ABS, FL, XAS/XES, NRVS
   Peter Pinski           : DLPNO-MP2
   Christoph Reimann      : Effective Core Potentials
   Marius Retegan         : Local ZFS, SOC
   Christoph Riplinger    : Optimizer, TS searches, QM/MM, DLPNO-CCSD(T), (RO)-DLPNO pert. Triples
   Tobias Risthaus        : Range-separated hybrids, TD-DFT gradient, RPA, STAB
   Michael Roemelt        : Restricted open shell CIS
   Masaaki Saitow         : Open-shell DLPNO
   Barbara Sandhoefer     : DKH picture change effects
   Kantharuban Sivalingam : CASSCF convergence, NEVPT2, FIC-MRCI
   Georgi Stoychev        : AutoAux
   Boris Wezisla          : Elementary symmetry handling
   Frank Wennmohs         : Technical directorship


 We gratefully acknowledge several colleagues who have allowed us to
 interface, adapt or use parts of their codes:
   Stefan Grimme, W. Hujo, H. Kruse,             : VdW corrections, initial TS optimization,
                  C. Bannwarth                     DFT functionals, gCP, sTDA/sTD-DF
   Ed Valeev                                     : LibInt (2-el integral package), F12 methods
   Garnet Chan, S. Sharma, J. Yang, R. Olivares  : DMRG
   Ulf Ekstrom                                   : XCFun DFT Library
   Mihaly Kallay                                 : mrcc  (arbitrary order and MRCC methods)
   Jiri Pittner, Ondrej Demel                    : Mk-CCSD
   Frank Weinhold                                : gennbo (NPA and NBO analysis)
   Christopher J. Cramer and Donald G. Truhlar   : smd solvation model


 Your calculation uses the libint2 library for the computation of 2-el integrals
 For citations please refer to: http://libint.valeyev.net

 This ORCA versions uses:
   CBLAS   interface :  Fast vector & matrix operations
   LAPACKE interface :  Fast linear algebra routines
   SCALAPACK package :  Parallel linear algebra routines


Your calculation utilizes the atom-pairwise dispersion correction
with the zero-damping scheme (D30)
Cite in your paper:
S.Grimme, J.Antony, S.Ehrlich and H.Krieg, J.Chem.Phys., 132, (2010), 154104 
   

XCFun DFT library Copyright 2009-2010 Ulf Ekstrom and contributors.
See http://admol.org/xcfun for more information. This is free soft-
ware; see the source code for copying conditions. There is ABSOLUTELY
NO WARRANTY; not even for MERCHANTABILITY or FITNESS FOR A PARTICULAR
PURPOSE. For details see the documentation. Scientific users of this 
library should cite U. Ekstrom, L. Visscher, R. Bast, A. J. Thorvald-
sen and K. Ruud; J.Chem.Theor.Comp. 2010, DOI: 10.1021/ct100117s
XCFun Version 0.99 
Your calculation utilizes the basis: 6-31G(d)
   H-He, Li-Ne : W. J. Hehre, R. Ditchfield and J.A. Pople, J. Chem. Phys. 56, 2257 (1972).
                 Note: He and Ne are unpublished basis sets taken from the Gaussian program.
                 Note: Li and B from J. D. Dill and J. A. Pople, J. Chem. Phys. 62, 2921 (1975).
   Na - Ar     : M. M. Francl, W. J. Pietro, W. J. Hehre, J. S. Binkley, M. S. Gordon, 
                 D. J. DeFrees and J. A. Pople, J. Chem. Phys. 77, 3654 (1982).
   K - Zn      : V. A. Rassolov, J. A. Pople, M. A. Ratner, and T. L. Windus, J. Chem. Phys. 109, 1223 (1998).

================================================================================
                                        WARNINGS
                       Please study these warnings very carefully!
================================================================================

Warning: TCutStore was < 0. Adjusted to Thresh (uncritical)

INFO   : the flag for use of LIBINT has been found!

================================================================================
                                       INPUT FILE
================================================================================
NAME = initial3.inp
|  1> ! WB97X-D3 6-31G(d) VerySlowConv
|  2> ! KDIIS NOSOSCF
|  3> %base "Scan_3"
|  4> 
|  5> %scf
|  6> maxiter 999
|  7> end
|  8> 
|  9> * xyz 0 1
| 10> C         -3.474030560880    0.401017350194   -0.000000000000
| 11> N         -2.427217509848    0.431949940380    0.000000000000
| 12> H         -4.538531929272    0.369562709426   -0.000000000000
| 13> **                         ****END OF INPUT****
================================================================================

                       ****************************
                       * Single Point Calculation *
                       ****************************

---------------------------------
CARTESIAN COORDINATES (ANGSTROEM)
---------------------------------
  C     -3.474031    0.401017   -0.000000
  N     -2.427218    0.431950    0.000000
  H     -4.538532    0.369563   -0.000000

----------------------------
CARTESIAN COORDINATES (A.U.)
----------------------------
  NO LB      ZA    FRAG     MASS         X           Y           Z
   0 C     6.0000    0    12.011   -6.564966    0.757813   -0.000000
   1 N     7.0000    0    14.007   -4.586776    0.816267    0.000000
   2 H     1.0000    0     1.008   -8.576582    0.698372   -0.000000

--------------------------------
INTERNAL COORDINATES (ANGSTROEM)
--------------------------------
 C      0   0   0     0.000000000000     0.00000000     0.00000000
 N      1   0   0     1.047269969467     0.00000000     0.00000000
 H      1   2   0     1.064965989004   179.99996631     0.00000000

---------------------------
INTERNAL COORDINATES (A.U.)
---------------------------
 C      0   0   0     0.000000000000     0.00000000     0.00000000
 N      1   0   0     1.979053430572     0.00000000     0.00000000
 H      1   2   0     2.012494061157   179.99996631     0.00000000

---------------------
BASIS SET INFORMATION
---------------------
There are 3 groups of distinct atoms

 Group   1 Type C   : 10s4p1d contracted to 3s2p1d pattern {631/31/1}
 Group   2 Type N   : 10s4p1d contracted to 3s2p1d pattern {631/31/1}
 Group   3 Type H   : 4s contracted to 2s pattern {31}

Atom   0C    basis set group =>   1
Atom   1N    basis set group =>   2
Atom   2H    basis set group =>   3
------------------------------------------------------------------------------
                           ORCA GTO INTEGRAL CALCULATION
------------------------------------------------------------------------------

                         BASIS SET STATISTICS AND STARTUP INFO

 # of primitive gaussian shells          ...   34
 # of primitive gaussian functions       ...   58
 # of contracted shells                  ...   14
 # of contracted basis functions         ...   30
 Highest angular momentum                ...    2
 Maximum contraction depth               ...    6
 Integral package used                   ... LIBINT
 Integral threshhold            Thresh   ...  1.000e-10
 Primitive cut-off              TCut     ...  1.000e-11


------------------------------ INTEGRAL EVALUATION ----------------------------


 * One electron integrals 
 Pre-screening matrix                    ... done
 Shell pair data                         ... done (   0.000 sec)

-------------------------------------------------------------------------------
                                 ORCA SCF
-------------------------------------------------------------------------------

------------
SCF SETTINGS
------------
Hamiltonian:
 Density Functional     Method          .... DFT(GTOs)
 Exchange Functional    Exchange        .... WB97X-D3
 Correlation Functional Correlation     .... WB97X-D3
 Gradients option       PostSCFGGA      .... off
 Hybrid DFT is turned on
   Fraction HF Exchange ScalHFX         ....  0.195728
   Scaling of DF-GGA-X  ScalDFX         ....  0.000000
   Scaling of DF-GGA-C  ScalDFC         ....  1.000000
   Scaling of DF-LDA-C  ScalLDAC        ....  1.000000
   Perturbative correction              ....  0.000000
 Long-range corrected/Screened/Range-Separated Hybrid DFT is turned on
   Amount of maximum screened exact exchange              ....  0.804272
   Range separation parameter mu (erf(mu*r12)/r12)        ....  0.250000


General Settings:
 Integral files         IntName         .... Scan_3
 Hartree-Fock type      HFTyp           .... RHF
 Total Charge           Charge          ....    0
 Multiplicity           Mult            ....    1
 Number of Electrons    NEL             ....   14
 Basis Dimension        Dim             ....   30
 Nuclear Repulsion      ENuc            ....     25.9573479037 Eh

Convergence Acceleration:
 DIIS                   CNVDIIS         .... on
   Start iteration      DIISMaxIt       ....     0
   Startup error        DIISStart       ....  0.200000
   # of expansion vecs  DIISMaxEq       ....     5
   Bias factor          DIISBfac        ....   1.050
   Max. coefficient     DIISMaxC        ....  10.000
 Newton-Raphson         CNVNR           .... off
 SOSCF                  CNVSOSCF        .... off
 Level Shifting         CNVShift        .... off
 Zerner damping         CNVZerner       .... off
 Static damping         CNVDamp         .... off
 Fernandez-Rico         CNVRico         .... off

SCF Procedure:
 Maximum # iterations   MaxIter         ....   999
 SCF integral mode      SCFMode         .... Direct
   Integral package                     .... LIBINT
 Reset frequeny         DirectResetFreq ....    20
 Integral Threshold     Thresh          ....  1.000e-10 Eh
 Primitive CutOff       TCut            ....  1.000e-11 Eh

Convergence Tolerance:
 Convergence Check Mode ConvCheckMode   .... All-Criteria
 Convergence forced     ConvForced      .... 0
 Energy Change          TolE            ....  1.000e-06 Eh
 Max Density Change     TolMaxP         ....  1.000e-05
 RMS Density Change     TolRMSP         ....  1.000e-06
 DIIS Error             TolErr          ....  1.000e-06


Diagonalization of the overlap matrix:
Smallest eigenvalue                        ... 3.254e-03
Time for diagonalization                   ...    0.001 sec
Threshold for overlap eigenvalues          ... 1.000e-08
Number of eigenvalues below threshold      ... 0
Time for construction of square roots      ...    0.005 sec
Total time needed                          ...    0.005 sec

-------------------
DFT GRID GENERATION
-------------------

General Integration Accuracy     IntAcc      ...  4.340
Radial Grid Type                 RadialGrid  ... Gauss-Chebyshev
Angular Grid (max. acc.)         AngularGrid ... Lebedev-110
Angular grid pruning method      GridPruning ... 3 (G Style)
Weight generation scheme         WeightScheme... Becke
Basis function cutoff            BFCut       ...    1.0000e-10
Integration weight cutoff        WCut        ...    1.0000e-14
Grids for H and He will be reduced by one unit

# of grid points (after initial pruning)     ...   4152 (   0.0 sec)
# of grid points (after weights+screening)   ...   4100 (   0.0 sec)
nearest neighbour list constructed           ...    0.0 sec
Grid point re-assignment to atoms done       ...    0.0 sec
Grid point division into batches done        ...    0.0 sec
Reduced shell lists constructed in    0.0 sec

Total number of grid points                  ...     4100
Total number of batches                      ...       65
Average number of points per batch           ...       63
Average number of grid points per atom       ...     1367
Average number of shells per batch           ...    12.18 (87.01%)
Average number of basis functions per batch  ...    26.48 (88.28%)
Average number of large shells per batch     ...    11.64 (95.52%)
Average number of large basis fcns per batch ...    25.85 (97.60%)
Maximum spatial batch extension              ...  18.08, 25.60, 31.36 au
Average spatial batch extension              ...   4.33,  6.74,  6.20 au

Time for grid setup =    0.027 sec

------------------------------
INITIAL GUESS: MODEL POTENTIAL
------------------------------
Loading Hartree-Fock densities                     ... done
Calculating cut-offs                               ... done
Setting up the integral package                    ... done
Initializing the effective Hamiltonian             ... done
Starting the Coulomb interaction                   ... done (   0.0 sec)
Reading the grid                                   ... done
Mapping shells                                     ... done
Starting the XC term evaluation                    ... done (   0.0 sec)
  promolecular density results
     # of electrons  =     13.999935212
     EX              =    -11.898404135
     EC              =     -0.437141505
     EX+EC           =    -12.335545640
Transforming the Hamiltonian                       ... done (   0.0 sec)
Diagonalizing the Hamiltonian                      ... done (   0.0 sec)
Back transforming the eigenvectors                 ... done (   0.0 sec)
Now organizing SCF variables                       ... done
                      ------------------
                      INITIAL GUESS DONE (   0.2 sec)
                      ------------------
--------------
SCF ITERATIONS
--------------
ITER       Energy         Delta-E        Max-DP      RMS-DP      [F,P]   Gradient Norm
               ***  Starting incremental Fock matrix formation  ***
                             ****Resetting KDIIS****
                             ****Turning on KDIIS(Cayley)****
  0    -93.2549099734   0.000000000000 0.03628600  0.00301780  0.1115408   0.120190898
  1    -93.2907036492  -0.035793675835 0.02329146  0.00252654  0.0834341   0.094506223
  2    -93.3124192670  -0.021715617785 0.04029126  0.00380872  0.0727150   0.077031932
  3    -93.3371608524  -0.024741585397 0.06698847  0.00616738  0.0478179   0.048974263
  4    -93.3539187666  -0.016757914178 0.01036334  0.00086209  0.0038855   0.003387588
  5    -93.3540141257  -0.000095359156 0.00322918  0.00028897  0.0008240   0.000595606
  6    -93.3540160922  -0.000001966486 0.00187402  0.00016024  0.0005773   0.000597985
  7    -93.3540190937  -0.000003001485 0.00029933  0.00002133  0.0000661   0.000068658
                          ***Energy convergence achieved***
  8    -93.3540191317  -0.000000038050 0.00003022  0.00000169  0.0000012   0.000001458
                           ***RMSP convergence achieved***
                           ***MAXP convergence achieved***
                    *** KDIIS BlockDiag ( 0.000 sec) ***

               *****************************************************
               *                     SUCCESS                       *
               *           SCF CONVERGED AFTER   9 CYCLES          *
               *****************************************************

Setting up the final grid:

General Integration Accuracy     IntAcc      ...  4.670
Radial Grid Type                 RadialGrid  ... Gauss-Chebyshev
Angular Grid (max. acc.)         AngularGrid ... Lebedev-302
Angular grid pruning method      GridPruning ... 3 (G Style)
Weight generation scheme         WeightScheme... Becke
Basis function cutoff            BFCut       ...    1.0000e-10
Integration weight cutoff        WCut        ...    1.0000e-14
Grids for H and He will be reduced by one unit

# of grid points (after initial pruning)     ...  15818 (   0.0 sec)
# of grid points (after weights+screening)   ...  15660 (   0.0 sec)
nearest neighbour list constructed           ...    0.0 sec
Grid point re-assignment to atoms done       ...    0.0 sec
Grid point division into batches done        ...    0.1 sec
Reduced shell lists constructed in    0.1 sec

Total number of grid points                  ...    15660
Total number of batches                      ...      246
Average number of points per batch           ...       63
Average number of grid points per atom       ...     5220
Average number of shells per batch           ...    11.21 (80.05%)
Average number of basis functions per batch  ...    24.57 (81.89%)
Average number of large shells per batch     ...    10.36 (92.45%)
Average number of large basis fcns per batch ...    22.86 (93.06%)
Maximum spatial batch extension              ...  20.13, 18.05, 25.05 au
Average spatial batch extension              ...   3.19,  4.06,  4.15 au

Final grid set up in    0.3 sec
Final integration                            ... done (   0.2 sec)
Change in XC energy                          ...     0.000100213
Integrated number of electrons               ...    14.000000361
Previous integrated no of electrons          ...    13.998765855

----------------
TOTAL SCF ENERGY
----------------

Total Energy       :          -93.35391892 Eh           -2540.28928 eV

Components:
Nuclear Repulsion  :           25.95734790 Eh             706.33535 eV
Electronic Energy  :         -119.31126682 Eh           -3246.62463 eV
One Electron Energy:         -176.78738725 Eh           -4810.62937 eV
Two Electron Energy:           57.47612043 Eh            1564.00475 eV

Virial components:
Potential Energy   :         -186.80118425 Eh           -5083.11864 eV
Kinetic Energy     :           93.44726534 Eh            2542.82936 eV
Virial Ratio       :            1.99900108


DFT components:
N(Alpha)           :        7.000000180503 electrons
N(Beta)            :        7.000000180503 electrons
N(Total)           :       14.000000361005 electrons
E(XC)              :       -8.817356643935 Eh       

---------------
SCF CONVERGENCE
---------------

  Last Energy change         ...    2.2595e-12  Tolerance :   1.0000e-06
  Last MAX-Density change    ...    3.3538e-07  Tolerance :   1.0000e-05
  Last RMS-Density change    ...    3.5245e-08  Tolerance :   1.0000e-06
  Last DIIS Error            ...    1.4372e-07  Tolerance :   1.0000e-06

             **** THE GBW FILE WAS UPDATED (Scan_3.gbw) ****
             **** DENSITY FILE WAS UPDATED (Scan_3.scfp.tmp) ****
             **** ENERGY FILE WAS UPDATED (Scan_3.en.tmp) ****
----------------
ORBITAL ENERGIES
----------------

  NO   OCC          E(Eh)            E(eV) 
   0   2.0000     -14.430182      -392.6652 
   1   2.0000     -10.311158      -280.5809 
   2   2.0000      -1.070173       -29.1209 
   3   2.0000      -0.702221       -19.1084 
   4   2.0000      -0.482793       -13.1375 
   5   2.0000      -0.482787       -13.1373 
   6   2.0000      -0.468568       -12.7504 
   7   0.0000       0.156867         4.2686 
   8   0.0000       0.156877         4.2688 
   9   0.0000       0.191160         5.2017 
  10   0.0000       0.365857         9.9555 
  11   0.0000       0.614325        16.7166 
  12   0.0000       0.614335        16.7169 
  13   0.0000       0.735905        20.0250 
  14   0.0000       0.830005        22.5856 
  15   0.0000       0.896811        24.4035 
  16   0.0000       0.896816        24.4036 
  17   0.0000       0.960171        26.1276 
  18   0.0000       1.391503        37.8647 
  19   0.0000       1.570583        42.7377 
  20   0.0000       1.570781        42.7431 
  21   0.0000       1.633838        44.4590 
  22   0.0000       1.726399        46.9777 
  23   0.0000       1.726417        46.9782 
  24   0.0000       2.118460        57.6462 
  25   0.0000       2.118494        57.6472 
  26   0.0000       2.775595        75.5278 
  27   0.0000       2.775614        75.5283 
  28   0.0000       2.888875        78.6103 
  29   0.0000       3.462446        94.2180 

                    ********************************
                    * MULLIKEN POPULATION ANALYSIS *
                    ********************************

-----------------------
MULLIKEN ATOMIC CHARGES
-----------------------
   0 C :   -0.037425
   1 N :   -0.232448
   2 H :    0.269873
Sum of atomic charges:   -0.0000000

--------------------------------
MULLIKEN REDUCED ORBITAL CHARGES
--------------------------------
  0 C s       :     3.106719  s :     3.106719
      pz      :     0.937342  p :     2.890571
      px      :     1.015787
      py      :     0.937442
      dz2     :     0.003762  d :     0.040135
      dxz     :     0.012537
      dyz     :     0.000011
      dx2y2   :     0.011288
      dxy     :     0.012537
  1 N s       :     3.674461  s :     3.674461
      pz      :     1.031649  p :     3.508172
      px      :     1.444556
      py      :     1.031967
      dz2     :     0.003223  d :     0.049815
      dxz     :     0.018445
      dyz     :     0.000016
      dx2y2   :     0.009702
      dxy     :     0.018429
  2 H s       :     0.730127  s :     0.730127


                     *******************************
                     * LOEWDIN POPULATION ANALYSIS *
                     *******************************

----------------------
LOEWDIN ATOMIC CHARGES
----------------------
   0 C :   -0.138599
   1 N :   -0.037499
   2 H :    0.176098

-------------------------------
LOEWDIN REDUCED ORBITAL CHARGES
-------------------------------
  0 C s       :     2.987884  s :     2.987884
      pz      :     0.924215  p :     3.056360
      px      :     1.207649
      py      :     0.924496
      dz2     :     0.010541  d :     0.094356
      dxz     :     0.026076
      dyz     :     0.000023
      dx2y2   :     0.031603
      dxy     :     0.026112
  1 N s       :     3.359456  s :     3.359456
      pz      :     1.021852  p :     3.585939
      px      :     1.541811
      py      :     1.022275
      dz2     :     0.009109  d :     0.092105
      dxz     :     0.027809
      dyz     :     0.000024
      dx2y2   :     0.027331
      dxy     :     0.027831
  2 H s       :     0.823902  s :     0.823902


                      *****************************
                      * MAYER POPULATION ANALYSIS *
                      *****************************

  NA   - Mulliken gross atomic population
  ZA   - Total nuclear charge
  QA   - Mulliken gross atomic charge
  VA   - Mayer's total valence
  BVA  - Mayer's bonded valence
  FA   - Mayer's free valence

  ATOM       NA         ZA         QA         VA         BVA        FA
  0 C      6.0374     6.0000    -0.0374     4.0125     4.0125    -0.0000
  1 N      7.2324     7.0000    -0.2324     3.1458     3.1458    -0.0000
  2 H      0.7301     1.0000     0.2699     0.8984     0.8984    -0.0000

  Mayer bond orders larger than 0.1
B(  0-C ,  1-N ) :   3.1300 B(  0-C ,  2-H ) :   0.8826 

-------
TIMINGS
-------

Total SCF time: 0 days 0 hours 0 min 4 sec 

Total time                  ....       4.511 sec
Sum of individual times     ....       4.358 sec  ( 96.6%)

Fock matrix formation       ....       3.881 sec  ( 86.0%)
  XC integration            ....       0.716 sec  ( 18.5% of F)
    Basis function eval.    ....       0.186 sec  ( 26.0% of XC)
    Density eval.           ....       0.031 sec  (  4.3% of XC)
    XC-Functional eval.     ....       0.172 sec  ( 24.0% of XC)
    XC-Potential eval.      ....       0.026 sec  (  3.7% of XC)
Diagonalization             ....       0.017 sec  (  0.4%)
Density matrix formation    ....       0.000 sec  (  0.0%)
Population analysis         ....       0.015 sec  (  0.3%)
Initial guess               ....       0.133 sec  (  2.9%)
Orbital Transformation      ....       0.000 sec  (  0.0%)
Orbital Orthonormalization  ....       0.000 sec  (  0.0%)
DIIS solution               ....       0.000 sec  (  0.0%)
Grid generation             ....       0.312 sec  (  6.9%)


-------------------------------------------------------------------------------
                          DFT DISPERSION CORRECTION                            
                                                                               
                              DFTD3 V3.1  Rev 1                                
                              USING zero damping                               
-------------------------------------------------------------------------------
The omegaB97X-D3 functional is recognized. Fit by Chai et al.
Active option DFTDOPT                   ...         3   

molecular C6(AA) [au] = 141.157411 


            DFT-D V3
 parameters
 s6 scaling factor         :     1.0000 
 rs6 scaling factor        :     1.2810 
 s8 scaling factor         :     1.0000 
 rs8 scaling factor        :     1.0940 
 Damping factor alpha6     :    14.0000 
 Damping factor alpha8     :    16.0000 
 ad hoc parameters k1-k3   :    16.0000     1.3333    -4.0000 

 Edisp/kcal,au: -0.009738417987  -0.000015519155 
 E6   /kcal   :  -0.001355645 
 E8   /kcal   :  -0.008382773 
 % E8         :  86.079415490 

-------------------------   ----------------
Dispersion correction           -0.000015519
-------------------------   ----------------


-------------------------   --------------------
FINAL SINGLE POINT ENERGY       -93.353934437653
-------------------------   --------------------


                            ***************************************
                            *     ORCA property calculations      *
                            ***************************************

                                    ---------------------
                                    Active property flags
                                    ---------------------
   (+) Dipole Moment


------------------------------------------------------------------------------
                       ORCA ELECTRIC PROPERTIES CALCULATION
------------------------------------------------------------------------------

Dipole Moment Calculation                       ... on
Quadrupole Moment Calculation                   ... off
Polarizability Calculation                      ... off
GBWName                                         ... Scan_3.gbw
Electron density file                           ... Scan_3.scfp.tmp

-------------
DIPOLE MOMENT
-------------
                                X             Y             Z
Electronic contribution:      0.30777       0.00904       0.00000
Nuclear contribution   :     -1.46745      -0.04336       0.00000
                        -----------------------------------------
Total Dipole Moment    :     -1.15968      -0.03432       0.00000
                        -----------------------------------------
Magnitude (a.u.)       :      1.16019
Magnitude (Debye)      :      2.94896


Timings for individual modules:

Sum of individual times         ...        4.935 sec (=   0.082 min)
GTO integral calculation        ...        0.400 sec (=   0.007 min)   8.1 %
SCF iterations                  ...        4.535 sec (=   0.076 min)  91.9 %
                             ****ORCA TERMINATED NORMALLY****
TOTAL RUN TIME: 0 days 0 hours 0 minutes 5 seconds 338 msec
