
                                 *****************
                                 * O   R   C   A *
                                 *****************

           --- An Ab Initio, DFT and Semiempirical electronic structure package ---

                  #######################################################
                  #                        -***-                        #
                  #  Department of molecular theory and spectroscopy    #
                  #              Directorship: Frank Neese              #
                  # Max Planck Institute for Chemical Energy Conversion #
                  #                  D-45470 Muelheim/Ruhr              #
                  #                       Germany                       #
                  #                                                     #
                  #                  All rights reserved                #
                  #                        -***-                        #
                  #######################################################


                         Program Version 4.0.0.2 - RELEASE -


 With contributions from (in alphabetic order):
   Daniel Aravena         : Magnetic Properties
   Michael Atanasov       : Ab Initio Ligand Field Theory
   Ute Becker             : Parallelization
   Martin Brehm           : Molecular dynamics
   Dmytro Bykov           : SCF Hessian
   Vijay G. Chilkuri      : MRCI spin determinant printing
   Dipayan Datta          : RHF DLPNO-CCSD density
   Achintya Kumar Dutta   : EOM-CC, STEOM-CC
   Dmitry Ganyushin       : Spin-Orbit,Spin-Spin,Magnetic field MRCI
   Yang Guo               : DLPNO-NEVPT2, CIM, IAO-localization
   Andreas Hansen         : Spin unrestricted coupled pair/coupled cluster methods
   Lee Huntington         : MR-EOM, pCC
   Robert Izsak           : Overlap fitted RIJCOSX, COSX-SCS-MP3, EOM
   Christian Kollmar      : KDIIS, OOCD, Brueckner-CCSD(T), CCSD density
   Simone Kossmann        : Meta GGA functionals, TD-DFT gradient, OOMP2, MP2 Hessian
   Martin Krupicka        : AUTO-CI
   Dagmar Lenk            : GEPOL surface
   Dimitrios Liakos       : Extrapolation schemes; parallel MDCI
   Dimitrios Manganas     : ROCIS; embedding schemes
   Dimitrios Pantazis     : SARC Basis sets
   Taras Petrenko         : DFT Hessian,TD-DFT gradient, ASA, ECA, R-Raman, ABS, FL, XAS/XES, NRVS
   Peter Pinski           : DLPNO-MP2
   Christoph Reimann      : Effective Core Potentials
   Marius Retegan         : Local ZFS, SOC
   Christoph Riplinger    : Optimizer, TS searches, QM/MM, DLPNO-CCSD(T), (RO)-DLPNO pert. Triples
   Tobias Risthaus        : Range-separated hybrids, TD-DFT gradient, RPA, STAB
   Michael Roemelt        : Restricted open shell CIS
   Masaaki Saitow         : Open-shell DLPNO
   Barbara Sandhoefer     : DKH picture change effects
   Kantharuban Sivalingam : CASSCF convergence, NEVPT2, FIC-MRCI
   Georgi Stoychev        : AutoAux
   Boris Wezisla          : Elementary symmetry handling
   Frank Wennmohs         : Technical directorship


 We gratefully acknowledge several colleagues who have allowed us to
 interface, adapt or use parts of their codes:
   Stefan Grimme, W. Hujo, H. Kruse,             : VdW corrections, initial TS optimization,
                  C. Bannwarth                     DFT functionals, gCP, sTDA/sTD-DF
   Ed Valeev                                     : LibInt (2-el integral package), F12 methods
   Garnet Chan, S. Sharma, J. Yang, R. Olivares  : DMRG
   Ulf Ekstrom                                   : XCFun DFT Library
   Mihaly Kallay                                 : mrcc  (arbitrary order and MRCC methods)
   Jiri Pittner, Ondrej Demel                    : Mk-CCSD
   Frank Weinhold                                : gennbo (NPA and NBO analysis)
   Christopher J. Cramer and Donald G. Truhlar   : smd solvation model


 Your calculation uses the libint2 library for the computation of 2-el integrals
 For citations please refer to: http://libint.valeyev.net

 This ORCA versions uses:
   CBLAS   interface :  Fast vector & matrix operations
   LAPACKE interface :  Fast linear algebra routines
   SCALAPACK package :  Parallel linear algebra routines


Your calculation utilizes the atom-pairwise dispersion correction
with the zero-damping scheme (D30)
Cite in your paper:
S.Grimme, J.Antony, S.Ehrlich and H.Krieg, J.Chem.Phys., 132, (2010), 154104 
   

XCFun DFT library Copyright 2009-2010 Ulf Ekstrom and contributors.
See http://admol.org/xcfun for more information. This is free soft-
ware; see the source code for copying conditions. There is ABSOLUTELY
NO WARRANTY; not even for MERCHANTABILITY or FITNESS FOR A PARTICULAR
PURPOSE. For details see the documentation. Scientific users of this 
library should cite U. Ekstrom, L. Visscher, R. Bast, A. J. Thorvald-
sen and K. Ruud; J.Chem.Theor.Comp. 2010, DOI: 10.1021/ct100117s
XCFun Version 0.99 
Your calculation utilizes the basis: 6-31G(d)
   H-He, Li-Ne : W. J. Hehre, R. Ditchfield and J.A. Pople, J. Chem. Phys. 56, 2257 (1972).
                 Note: He and Ne are unpublished basis sets taken from the Gaussian program.
                 Note: Li and B from J. D. Dill and J. A. Pople, J. Chem. Phys. 62, 2921 (1975).
   Na - Ar     : M. M. Francl, W. J. Pietro, W. J. Hehre, J. S. Binkley, M. S. Gordon, 
                 D. J. DeFrees and J. A. Pople, J. Chem. Phys. 77, 3654 (1982).
   K - Zn      : V. A. Rassolov, J. A. Pople, M. A. Ratner, and T. L. Windus, J. Chem. Phys. 109, 1223 (1998).

================================================================================
                                        WARNINGS
                       Please study these warnings very carefully!
================================================================================

Warning: TCutStore was < 0. Adjusted to Thresh (uncritical)

INFO   : the flag for use of LIBINT has been found!

================================================================================
                                       INPUT FILE
================================================================================
NAME = initial33.inp
|  1> ! WB97X-D3 6-31G(d) VerySlowConv
|  2> ! KDIIS NOSOSCF
|  3> %base "Scan_33"
|  4> 
|  5> %scf
|  6> maxiter 999
|  7> end
|  8> 
|  9> * xyz 0 1
| 10> C         -4.366885110332    0.374613390520   -0.000000000000
| 11> N         -0.595680907817    0.486059208759   -0.000000000000
| 12> H         -5.477213981852    0.341857400721    0.000000000000
| 13> **                         ****END OF INPUT****
================================================================================

                       ****************************
                       * Single Point Calculation *
                       ****************************

---------------------------------
CARTESIAN COORDINATES (ANGSTROEM)
---------------------------------
  C     -4.366885    0.374613   -0.000000
  N     -0.595681    0.486059   -0.000000
  H     -5.477214    0.341857    0.000000

----------------------------
CARTESIAN COORDINATES (A.U.)
----------------------------
  NO LB      ZA    FRAG     MASS         X           Y           Z
   0 C     6.0000    0    12.011   -8.252217    0.707917   -0.000000
   1 N     7.0000    0    14.007   -1.125674    0.918519   -0.000000
   2 H     1.0000    0     1.008  -10.350434    0.646017    0.000000

--------------------------------
INTERNAL COORDINATES (ANGSTROEM)
--------------------------------
 C      0   0   0     0.000000000000     0.00000000     0.00000000
 N      1   0   0     3.772850554616     0.00000000     0.00000000
 H      1   2   0     1.110811936287   179.99710190     0.00000000

---------------------------
INTERNAL COORDINATES (A.U.)
---------------------------
 C      0   0   0     0.000000000000     0.00000000     0.00000000
 N      1   0   0     7.129654292438     0.00000000     0.00000000
 H      1   2   0     2.099130345874   179.99710190     0.00000000

---------------------
BASIS SET INFORMATION
---------------------
There are 3 groups of distinct atoms

 Group   1 Type C   : 10s4p1d contracted to 3s2p1d pattern {631/31/1}
 Group   2 Type N   : 10s4p1d contracted to 3s2p1d pattern {631/31/1}
 Group   3 Type H   : 4s contracted to 2s pattern {31}

Atom   0C    basis set group =>   1
Atom   1N    basis set group =>   2
Atom   2H    basis set group =>   3
------------------------------------------------------------------------------
                           ORCA GTO INTEGRAL CALCULATION
------------------------------------------------------------------------------

                         BASIS SET STATISTICS AND STARTUP INFO

 # of primitive gaussian shells          ...   34
 # of primitive gaussian functions       ...   58
 # of contracted shells                  ...   14
 # of contracted basis functions         ...   30
 Highest angular momentum                ...    2
 Maximum contraction depth               ...    6
 Integral package used                   ... LIBINT
 Integral threshhold            Thresh   ...  1.000e-10
 Primitive cut-off              TCut     ...  1.000e-11


------------------------------ INTEGRAL EVALUATION ----------------------------


 * One electron integrals 
 Pre-screening matrix                    ... done
 Shell pair data                         ... done (   0.000 sec)

-------------------------------------------------------------------------------
                                 ORCA SCF
-------------------------------------------------------------------------------

------------
SCF SETTINGS
------------
Hamiltonian:
 Density Functional     Method          .... DFT(GTOs)
 Exchange Functional    Exchange        .... WB97X-D3
 Correlation Functional Correlation     .... WB97X-D3
 Gradients option       PostSCFGGA      .... off
 Hybrid DFT is turned on
   Fraction HF Exchange ScalHFX         ....  0.195728
   Scaling of DF-GGA-X  ScalDFX         ....  0.000000
   Scaling of DF-GGA-C  ScalDFC         ....  1.000000
   Scaling of DF-LDA-C  ScalLDAC        ....  1.000000
   Perturbative correction              ....  0.000000
 Long-range corrected/Screened/Range-Separated Hybrid DFT is turned on
   Amount of maximum screened exact exchange              ....  0.804272
   Range separation parameter mu (erf(mu*r12)/r12)        ....  0.250000


General Settings:
 Integral files         IntName         .... Scan_33
 Hartree-Fock type      HFTyp           .... RHF
 Total Charge           Charge          ....    0
 Multiplicity           Mult            ....    1
 Number of Electrons    NEL             ....   14
 Basis Dimension        Dim             ....   30
 Nuclear Repulsion      ENuc            ....      9.5077116717 Eh

Convergence Acceleration:
 DIIS                   CNVDIIS         .... on
   Start iteration      DIISMaxIt       ....     0
   Startup error        DIISStart       ....  0.200000
   # of expansion vecs  DIISMaxEq       ....     5
   Bias factor          DIISBfac        ....   1.050
   Max. coefficient     DIISMaxC        ....  10.000
 Newton-Raphson         CNVNR           .... off
 SOSCF                  CNVSOSCF        .... off
 Level Shifting         CNVShift        .... off
 Zerner damping         CNVZerner       .... off
 Static damping         CNVDamp         .... off
 Fernandez-Rico         CNVRico         .... off

SCF Procedure:
 Maximum # iterations   MaxIter         ....   999
 SCF integral mode      SCFMode         .... Direct
   Integral package                     .... LIBINT
 Reset frequeny         DirectResetFreq ....    20
 Integral Threshold     Thresh          ....  1.000e-10 Eh
 Primitive CutOff       TCut            ....  1.000e-11 Eh

Convergence Tolerance:
 Convergence Check Mode ConvCheckMode   .... All-Criteria
 Convergence forced     ConvForced      .... 0
 Energy Change          TolE            ....  1.000e-06 Eh
 Max Density Change     TolMaxP         ....  1.000e-05
 RMS Density Change     TolRMSP         ....  1.000e-06
 DIIS Error             TolErr          ....  1.000e-06


Diagonalization of the overlap matrix:
Smallest eigenvalue                        ... 4.824e-02
Time for diagonalization                   ...    0.001 sec
Threshold for overlap eigenvalues          ... 1.000e-08
Number of eigenvalues below threshold      ... 0
Time for construction of square roots      ...    0.005 sec
Total time needed                          ...    0.006 sec

-------------------
DFT GRID GENERATION
-------------------

General Integration Accuracy     IntAcc      ...  4.340
Radial Grid Type                 RadialGrid  ... Gauss-Chebyshev
Angular Grid (max. acc.)         AngularGrid ... Lebedev-110
Angular grid pruning method      GridPruning ... 3 (G Style)
Weight generation scheme         WeightScheme... Becke
Basis function cutoff            BFCut       ...    1.0000e-10
Integration weight cutoff        WCut        ...    1.0000e-14
Grids for H and He will be reduced by one unit

# of grid points (after initial pruning)     ...   4152 (   0.0 sec)
# of grid points (after weights+screening)   ...   4117 (   0.0 sec)
nearest neighbour list constructed           ...    0.0 sec
Grid point re-assignment to atoms done       ...    0.0 sec
Grid point division into batches done        ...    0.0 sec
Reduced shell lists constructed in    0.0 sec

Total number of grid points                  ...     4117
Total number of batches                      ...       66
Average number of points per batch           ...       62
Average number of grid points per atom       ...     1372
Average number of shells per batch           ...     9.90 (70.68%)
Average number of basis functions per batch  ...    21.03 (70.10%)
Average number of large shells per batch     ...     8.27 (83.56%)
Average number of large basis fcns per batch ...    17.73 (84.32%)
Maximum spatial batch extension              ...  17.96, 25.60, 31.36 au
Average spatial batch extension              ...   4.64,  7.06,  7.47 au

Time for grid setup =    0.042 sec

------------------------------
INITIAL GUESS: MODEL POTENTIAL
------------------------------
Loading Hartree-Fock densities                     ... done
Calculating cut-offs                               ... done
Setting up the integral package                    ... done
Initializing the effective Hamiltonian             ... done
Starting the Coulomb interaction                   ... done (   0.0 sec)
Reading the grid                                   ... done
Mapping shells                                     ... done
Starting the XC term evaluation                    ... done (   0.0 sec)
  promolecular density results
     # of electrons  =     13.997064686
     EX              =    -11.613921925
     EC              =     -0.388843417
     EX+EC           =    -12.002765342
Transforming the Hamiltonian                       ... done (   0.0 sec)
Diagonalizing the Hamiltonian                      ... done (   0.0 sec)
Back transforming the eigenvectors                 ... done (   0.0 sec)
Now organizing SCF variables                       ... done
                      ------------------
                      INITIAL GUESS DONE (   0.3 sec)
                      ------------------
--------------
SCF ITERATIONS
--------------
ITER       Energy         Delta-E        Max-DP      RMS-DP      [F,P]   Gradient Norm
               ***  Starting incremental Fock matrix formation  ***
                             ****Resetting KDIIS****
                             ****Turning on KDIIS(Cayley)****
  0    -92.5152620298   0.000000000000 0.03780496  0.00315363  0.1523262   0.115345322
  1    -92.5462347579  -0.030972728115 0.03999110  0.00401684  0.1263279   0.097629239
  2    -92.5790640435  -0.032829285617 0.05607878  0.00553278  0.0989970   0.077591180
  3    -92.6088501668  -0.029786123289 0.08097302  0.00996740  0.0603321   0.047307784
  4    -92.6262153763  -0.017365209556 0.04775746  0.00403126  0.0088837   0.004555385
  5    -92.6273890520  -0.001173675636 0.10277698  0.00810238  0.0094716   0.003974378
  6    -92.6250237989   0.002365253030 0.17799244  0.01264921  0.0070342   0.003858936
  7    -92.6227322699   0.002291529054 0.01300433  0.00125866  0.0046142   0.004379145
  8    -92.6232683493  -0.000536079396 0.03361821  0.00249962  0.0073563   0.003555442
  9    -92.6227396377   0.000528711561 0.04797447  0.00360751  0.0057698   0.004524376
 10    -92.6225800921   0.000159545652 0.03796829  0.00292457  0.0014920   0.000876033
 11    -92.6225585116   0.000021580438 0.03846933  0.00316651  0.0012810   0.000730697
 12    -92.6225911487  -0.000032637050 0.05206604  0.00408370  0.0010776   0.000526144
 13    -92.6226452366  -0.000054087924 0.27499586  0.01715969  0.0008634   0.000514025
 14    -92.6217625706   0.000882665955 0.05927655  0.00342469  0.0067565   0.003856893
 15    -92.6221596896  -0.000397118920 0.01424186  0.00105556  0.0046466   0.002813038
 16    -92.6220615537   0.000098135869 0.08927242  0.00527958  0.0053026   0.003267118
 17    -92.6225074885  -0.000445934789 0.11940273  0.00781042  0.0025113   0.001371392
 18    -92.6226933917  -0.000185903213 0.01936618  0.00139259  0.0008390   0.000434664
 19    -92.6227151494  -0.000021757681 0.02942430  0.00197650  0.0013059   0.000776702
               *** Restarting incremental Fock matrix formation ***
                             ****Resetting KDIIS****
 20    -92.6226671232   0.000048026182 0.00103486  0.00007141  0.0010687   0.000758363
 21    -92.6226704018  -0.000003278604 0.00305223  0.00020769  0.0010271   0.000661875
 22    -92.6226782415  -0.000007839680 0.00419102  0.00028594  0.0009783   0.000620757
 23    -92.6226887396  -0.000010498117 0.02735647  0.00190847  0.0009114   0.000570814
 24    -92.6227525137  -0.000063774072 0.00716453  0.00052536  0.0008605   0.000462274
 25    -92.6227718428  -0.000019329157 0.03520323  0.00261115  0.0008984   0.000461393
 26    -92.6226680699   0.000103772939 0.00177506  0.00011934  0.0008153   0.000550009
 27    -92.6226716757  -0.000003605840 0.00090107  0.00008447  0.0007961   0.000550911
 28    -92.6226730265  -0.000001350760 0.00640900  0.00067582  0.0008072   0.000535027
 29    -92.6227094076  -0.000036381143 0.03709403  0.00337315  0.0008279   0.000525387
 30    -92.6225537847   0.000155622949 0.04245782  0.00395387  0.0008498   0.000623778
 31    -92.6224692993   0.000084485344 0.00986256  0.00109659  0.0002891   0.000270773
 32    -92.6224602461   0.000009053260 0.00069689  0.00007745  0.0001439   0.000129150
                          ***Energy convergence achieved***
 33    -92.6224611994  -0.000000953297 0.00171114  0.00018866  0.0003119   0.000134973
 34    -92.6224600611   0.000001138303 0.00297309  0.00033483  0.0002204   0.000109796
 35    -92.6224587393   0.000001321802 0.00313495  0.00036192  0.0001166   0.000095307
                          ***Energy convergence achieved***
 36    -92.6224584466   0.000000292720 0.00158225  0.00018714  0.0000620   0.000042995
 37    -92.6224587660  -0.000000319483 0.00050874  0.00005590  0.0000347   0.000033602
 38    -92.6224589234  -0.000000157398 0.00013172  0.00001352  0.0000365   0.000029299
 39    -92.6224588798   0.000000043618 0.00016759  0.00001238  0.0000361   0.000024216
               *** Restarting incremental Fock matrix formation ***
                             ****Resetting KDIIS****

            ***Energy convergence in two consecutive cycles with***
                    ***'reasonable' density convergence***
                       *** signaling convergence ***

                    *** KDIIS BlockDiag ( 0.000 sec) ***

               *****************************************************
               *                     SUCCESS                       *
               *           SCF CONVERGED AFTER  40 CYCLES          *
               *****************************************************

Setting up the final grid:

General Integration Accuracy     IntAcc      ...  4.670
Radial Grid Type                 RadialGrid  ... Gauss-Chebyshev
Angular Grid (max. acc.)         AngularGrid ... Lebedev-302
Angular grid pruning method      GridPruning ... 3 (G Style)
Weight generation scheme         WeightScheme... Becke
Basis function cutoff            BFCut       ...    1.0000e-10
Integration weight cutoff        WCut        ...    1.0000e-14
Grids for H and He will be reduced by one unit

# of grid points (after initial pruning)     ...  15818 (   0.0 sec)
# of grid points (after weights+screening)   ...  15746 (   0.0 sec)
nearest neighbour list constructed           ...    0.0 sec
Grid point re-assignment to atoms done       ...    0.0 sec
Grid point division into batches done        ...    0.1 sec
Reduced shell lists constructed in    0.2 sec

Total number of grid points                  ...    15746
Total number of batches                      ...      247
Average number of points per batch           ...       63
Average number of grid points per atom       ...     5249
Average number of shells per batch           ...     8.79 (62.76%)
Average number of basis functions per batch  ...    18.66 (62.19%)
Average number of large shells per batch     ...     7.23 (82.29%)
Average number of large basis fcns per batch ...    15.46 (82.88%)
Maximum spatial batch extension              ...  19.86, 21.49, 24.37 au
Average spatial batch extension              ...   3.61,  4.24,  4.24 au

Final grid set up in    0.2 sec
Final integration                            ... done (   0.3 sec)
Change in XC energy                          ...     0.000063557
Integrated number of electrons               ...    13.999991123
Previous integrated no of electrons          ...    13.999954661

----------------
TOTAL SCF ENERGY
----------------

Total Energy       :          -92.62239534 Eh           -2520.38351 eV

Components:
Nuclear Repulsion  :            9.50771167 Eh             258.71799 eV
Electronic Energy  :         -102.13010701 Eh           -2779.10150 eV
One Electron Energy:         -143.94733035 Eh           -3917.00600 eV
Two Electron Energy:           41.81722334 Eh            1137.90450 eV

Virial components:
Potential Energy   :         -184.87180676 Eh           -5030.61761 eV
Kinetic Energy     :           92.24941142 Eh            2510.23410 eV
Virial Ratio       :            2.00404321


DFT components:
N(Alpha)           :        6.999995561551 electrons
N(Beta)            :        6.999995561551 electrons
N(Total)           :       13.999991123101 electrons
E(XC)              :       -8.493419338017 Eh       

---------------
SCF CONVERGENCE
---------------

  Last Energy change         ...   -2.0333e-08  Tolerance :   1.0000e-06
  Last MAX-Density change    ...    1.0083e-05  Tolerance :   1.0000e-05
  Last RMS-Density change    ...    1.2059e-06  Tolerance :   1.0000e-06
  Last DIIS Error            ...    3.7424e-05  Tolerance :   1.0000e-06

             **** THE GBW FILE WAS UPDATED (Scan_33.gbw) ****
             **** DENSITY FILE WAS UPDATED (Scan_33.scfp.tmp) ****
             **** ENERGY FILE WAS UPDATED (Scan_33.en.tmp) ****
----------------
ORBITAL ENERGIES
----------------

  NO   OCC          E(Eh)            E(eV) 
   0   2.0000     -14.203268      -386.4906 
   1   2.0000     -10.750023      -292.5230 
   2   2.0000      -1.011412       -27.5219 
   3   2.0000      -0.656602       -17.8670 
   4   2.0000      -0.524006       -14.2589 
   5   2.0000      -0.070232        -1.9111 
   6   2.0000      -0.063164        -1.7188 
   7   0.0000      -0.283318        -7.7095 
   8   0.0000      -0.283250        -7.7076 
   9   0.0000       0.026944         0.7332 
  10   0.0000       0.188154         5.1199 
  11   0.0000       0.448721        12.2103 
  12   0.0000       0.448862        12.2142 
  13   0.0000       0.494440        13.4544 
  14   0.0000       0.543510        14.7897 
  15   0.0000       0.753893        20.5145 
  16   0.0000       1.032792        28.1037 
  17   0.0000       1.034400        28.1475 
  18   0.0000       1.051495        28.6126 
  19   0.0000       1.122453        30.5435 
  20   0.0000       1.474436        40.1214 
  21   0.0000       1.474496        40.1231 
  22   0.0000       1.490623        40.5619 
  23   0.0000       1.491219        40.5781 
  24   0.0000       1.940793        52.8117 
  25   0.0000       2.091334        56.9081 
  26   0.0000       2.093071        56.9553 
  27   0.0000       2.095014        57.0082 
  28   0.0000       2.131834        58.0102 
  29   0.0000       2.131900        58.0119 

                    ********************************
                    * MULLIKEN POPULATION ANALYSIS *
                    ********************************

-----------------------
MULLIKEN ATOMIC CHARGES
-----------------------
   0 C :    0.683707
   1 N :   -0.902564
   2 H :    0.218858
Sum of atomic charges:   -0.0000000

--------------------------------
MULLIKEN REDUCED ORBITAL CHARGES
--------------------------------
  0 C s       :     3.966428  s :     3.966428
      pz      :     0.000247  p :     1.332299
      px      :     1.330458
      py      :     0.001594
      dz2     :     0.004391  d :     0.017566
      dxz     :     0.000001
      dyz     :     0.000000
      dx2y2   :     0.013125
      dxy     :     0.000050
  1 N s       :     3.998556  s :     3.998556
      pz      :     1.999744  p :     3.903768
      px      :     0.357209
      py      :     1.546814
      dz2     :     0.000070  d :     0.000241
      dxz     :     0.000007
      dyz     :     0.000001
      dx2y2   :     0.000070
      dxy     :     0.000093
  2 H s       :     0.781142  s :     0.781142


                     *******************************
                     * LOEWDIN POPULATION ANALYSIS *
                     *******************************

----------------------
LOEWDIN ATOMIC CHARGES
----------------------
   0 C :    0.746503
   1 N :   -0.900413
   2 H :    0.153910

-------------------------------
LOEWDIN REDUCED ORBITAL CHARGES
-------------------------------
  0 C s       :     3.798974  s :     3.798974
      pz      :     0.000230  p :     1.431254
      px      :     1.429378
      py      :     0.001646
      dz2     :     0.005816  d :     0.023269
      dxz     :     0.000001
      dyz     :     0.000000
      dx2y2   :     0.017387
      dxy     :     0.000066
  1 N s       :     3.998630  s :     3.998630
      pz      :     1.999762  p :     3.901543
      px      :     0.355090
      py      :     1.546691
      dz2     :     0.000070  d :     0.000240
      dxz     :     0.000007
      dyz     :     0.000001
      dx2y2   :     0.000070
      dxy     :     0.000093
  2 H s       :     0.846090  s :     0.846090


                      *****************************
                      * MAYER POPULATION ANALYSIS *
                      *****************************

  NA   - Mulliken gross atomic population
  ZA   - Total nuclear charge
  QA   - Mulliken gross atomic charge
  VA   - Mayer's total valence
  BVA  - Mayer's bonded valence
  FA   - Mayer's free valence

  ATOM       NA         ZA         QA         VA         BVA        FA
  0 C      5.3163     6.0000     0.6837     0.7600     0.7600    -0.0000
  1 N      7.9026     7.0000    -0.9026     0.1859     0.1859    -0.0000
  2 H      0.7811     1.0000     0.2189     0.9120     0.9120    -0.0000

  Mayer bond orders larger than 0.1
B(  0-C ,  2-H ) :   0.7431 B(  1-N ,  2-H ) :   0.1689 

-------
TIMINGS
-------

Total SCF time: 0 days 0 hours 0 min 21 sec 

Total time                  ....      21.681 sec
Sum of individual times     ....      20.872 sec  ( 96.3%)

Fock matrix formation       ....      20.240 sec  ( 93.4%)
  XC integration            ....       4.413 sec  ( 21.8% of F)
    Basis function eval.    ....       0.626 sec  ( 14.2% of XC)
    Density eval.           ....       0.142 sec  (  3.2% of XC)
    XC-Functional eval.     ....       0.829 sec  ( 18.8% of XC)
    XC-Potential eval.      ....       0.064 sec  (  1.4% of XC)
Diagonalization             ....       0.119 sec  (  0.6%)
Density matrix formation    ....       0.000 sec  (  0.0%)
Population analysis         ....       0.010 sec  (  0.0%)
Initial guess               ....       0.233 sec  (  1.1%)
Orbital Transformation      ....       0.000 sec  (  0.0%)
Orbital Orthonormalization  ....       0.000 sec  (  0.0%)
DIIS solution               ....       0.000 sec  (  0.0%)
Grid generation             ....       0.270 sec  (  1.2%)


-------------------------------------------------------------------------------
                          DFT DISPERSION CORRECTION                            
                                                                               
                              DFTD3 V3.1  Rev 1                                
                              USING zero damping                               
-------------------------------------------------------------------------------
The omegaB97X-D3 functional is recognized. Fit by Chai et al.
Active option DFTDOPT                   ...         3   

molecular C6(AA) [au] = 177.239580 


            DFT-D V3
 parameters
 s6 scaling factor         :     1.0000 
 rs6 scaling factor        :     1.2810 
 s8 scaling factor         :     1.0000 
 rs8 scaling factor        :     1.0940 
 Damping factor alpha6     :    14.0000 
 Damping factor alpha8     :    16.0000 
 ad hoc parameters k1-k3   :    16.0000     1.3333    -4.0000 

 Edisp/kcal,au: -0.134456707025  -0.000214270379 
 E6   /kcal   :  -0.063826198 
 E8   /kcal   :  -0.070630509 
 % E8         :  52.530298296 

-------------------------   ----------------
Dispersion correction           -0.000214270
-------------------------   ----------------


-------------------------   --------------------
FINAL SINGLE POINT ENERGY       -92.622609613346
-------------------------   --------------------


                            ***************************************
                            *     ORCA property calculations      *
                            ***************************************

                                    ---------------------
                                    Active property flags
                                    ---------------------
   (+) Dipole Moment


------------------------------------------------------------------------------
                       ORCA ELECTRIC PROPERTIES CALCULATION
------------------------------------------------------------------------------

Dipole Moment Calculation                       ... on
Quadrupole Moment Calculation                   ... off
Polarizability Calculation                      ... off
GBWName                                         ... Scan_33.gbw
Electron density file                           ... Scan_33.scfp.tmp

-------------
DIPOLE MOMENT
-------------
                                X             Y             Z
Electronic contribution:     -4.11283      -0.14334       0.00000
Nuclear contribution   :     -2.82630      -0.08347       0.00000
                        -----------------------------------------
Total Dipole Moment    :     -6.93913      -0.22681       0.00000
                        -----------------------------------------
Magnitude (a.u.)       :      6.94283
Magnitude (Debye)      :     17.64728


Timings for individual modules:

Sum of individual times         ...       22.313 sec (=   0.372 min)
GTO integral calculation        ...        0.608 sec (=   0.010 min)   2.7 %
SCF iterations                  ...       21.705 sec (=   0.362 min)  97.3 %
                             ****ORCA TERMINATED NORMALLY****
TOTAL RUN TIME: 0 days 0 hours 0 minutes 23 seconds 373 msec
