
                                 *****************
                                 * O   R   C   A *
                                 *****************

           --- An Ab Initio, DFT and Semiempirical electronic structure package ---

                  #######################################################
                  #                        -***-                        #
                  #  Department of molecular theory and spectroscopy    #
                  #              Directorship: Frank Neese              #
                  # Max Planck Institute for Chemical Energy Conversion #
                  #                  D-45470 Muelheim/Ruhr              #
                  #                       Germany                       #
                  #                                                     #
                  #                  All rights reserved                #
                  #                        -***-                        #
                  #######################################################


                         Program Version 4.0.0.2 - RELEASE -


 With contributions from (in alphabetic order):
   Daniel Aravena         : Magnetic Properties
   Michael Atanasov       : Ab Initio Ligand Field Theory
   Ute Becker             : Parallelization
   Martin Brehm           : Molecular dynamics
   Dmytro Bykov           : SCF Hessian
   Vijay G. Chilkuri      : MRCI spin determinant printing
   Dipayan Datta          : RHF DLPNO-CCSD density
   Achintya Kumar Dutta   : EOM-CC, STEOM-CC
   Dmitry Ganyushin       : Spin-Orbit,Spin-Spin,Magnetic field MRCI
   Yang Guo               : DLPNO-NEVPT2, CIM, IAO-localization
   Andreas Hansen         : Spin unrestricted coupled pair/coupled cluster methods
   Lee Huntington         : MR-EOM, pCC
   Robert Izsak           : Overlap fitted RIJCOSX, COSX-SCS-MP3, EOM
   Christian Kollmar      : KDIIS, OOCD, Brueckner-CCSD(T), CCSD density
   Simone Kossmann        : Meta GGA functionals, TD-DFT gradient, OOMP2, MP2 Hessian
   Martin Krupicka        : AUTO-CI
   Dagmar Lenk            : GEPOL surface
   Dimitrios Liakos       : Extrapolation schemes; parallel MDCI
   Dimitrios Manganas     : ROCIS; embedding schemes
   Dimitrios Pantazis     : SARC Basis sets
   Taras Petrenko         : DFT Hessian,TD-DFT gradient, ASA, ECA, R-Raman, ABS, FL, XAS/XES, NRVS
   Peter Pinski           : DLPNO-MP2
   Christoph Reimann      : Effective Core Potentials
   Marius Retegan         : Local ZFS, SOC
   Christoph Riplinger    : Optimizer, TS searches, QM/MM, DLPNO-CCSD(T), (RO)-DLPNO pert. Triples
   Tobias Risthaus        : Range-separated hybrids, TD-DFT gradient, RPA, STAB
   Michael Roemelt        : Restricted open shell CIS
   Masaaki Saitow         : Open-shell DLPNO
   Barbara Sandhoefer     : DKH picture change effects
   Kantharuban Sivalingam : CASSCF convergence, NEVPT2, FIC-MRCI
   Georgi Stoychev        : AutoAux
   Boris Wezisla          : Elementary symmetry handling
   Frank Wennmohs         : Technical directorship


 We gratefully acknowledge several colleagues who have allowed us to
 interface, adapt or use parts of their codes:
   Stefan Grimme, W. Hujo, H. Kruse,             : VdW corrections, initial TS optimization,
                  C. Bannwarth                     DFT functionals, gCP, sTDA/sTD-DF
   Ed Valeev                                     : LibInt (2-el integral package), F12 methods
   Garnet Chan, S. Sharma, J. Yang, R. Olivares  : DMRG
   Ulf Ekstrom                                   : XCFun DFT Library
   Mihaly Kallay                                 : mrcc  (arbitrary order and MRCC methods)
   Jiri Pittner, Ondrej Demel                    : Mk-CCSD
   Frank Weinhold                                : gennbo (NPA and NBO analysis)
   Christopher J. Cramer and Donald G. Truhlar   : smd solvation model


 Your calculation uses the libint2 library for the computation of 2-el integrals
 For citations please refer to: http://libint.valeyev.net

 This ORCA versions uses:
   CBLAS   interface :  Fast vector & matrix operations
   LAPACKE interface :  Fast linear algebra routines
   SCALAPACK package :  Parallel linear algebra routines


Your calculation utilizes the atom-pairwise dispersion correction
with the zero-damping scheme (D30)
Cite in your paper:
S.Grimme, J.Antony, S.Ehrlich and H.Krieg, J.Chem.Phys., 132, (2010), 154104 
   

XCFun DFT library Copyright 2009-2010 Ulf Ekstrom and contributors.
See http://admol.org/xcfun for more information. This is free soft-
ware; see the source code for copying conditions. There is ABSOLUTELY
NO WARRANTY; not even for MERCHANTABILITY or FITNESS FOR A PARTICULAR
PURPOSE. For details see the documentation. Scientific users of this 
library should cite U. Ekstrom, L. Visscher, R. Bast, A. J. Thorvald-
sen and K. Ruud; J.Chem.Theor.Comp. 2010, DOI: 10.1021/ct100117s
XCFun Version 0.99 
Your calculation utilizes the basis: 6-31G(d)
   H-He, Li-Ne : W. J. Hehre, R. Ditchfield and J.A. Pople, J. Chem. Phys. 56, 2257 (1972).
                 Note: He and Ne are unpublished basis sets taken from the Gaussian program.
                 Note: Li and B from J. D. Dill and J. A. Pople, J. Chem. Phys. 62, 2921 (1975).
   Na - Ar     : M. M. Francl, W. J. Pietro, W. J. Hehre, J. S. Binkley, M. S. Gordon, 
                 D. J. DeFrees and J. A. Pople, J. Chem. Phys. 77, 3654 (1982).
   K - Zn      : V. A. Rassolov, J. A. Pople, M. A. Ratner, and T. L. Windus, J. Chem. Phys. 109, 1223 (1998).

================================================================================
                                        WARNINGS
                       Please study these warnings very carefully!
================================================================================

Warning: TCutStore was < 0. Adjusted to Thresh (uncritical)

INFO   : the flag for use of LIBINT has been found!

================================================================================
                                       INPUT FILE
================================================================================
NAME = initial34.inp
|  1> ! WB97X-D3 6-31G(d) VerySlowConv
|  2> ! KDIIS NOSOSCF
|  3> %base "Scan_34"
|  4> 
|  5> %scf
|  6> maxiter 999
|  7> end
|  8> 
|  9> * xyz 0 1
| 10> C         -4.400965964906    0.373603881941   -0.000000000000
| 11> N         -0.527529327018    0.488072444914   -0.000000000000
| 12> H         -5.511284708077    0.340853673145    0.000000000000
| 13> **                         ****END OF INPUT****
================================================================================

                       ****************************
                       * Single Point Calculation *
                       ****************************

---------------------------------
CARTESIAN COORDINATES (ANGSTROEM)
---------------------------------
  C     -4.400966    0.373604   -0.000000
  N     -0.527529    0.488072   -0.000000
  H     -5.511285    0.340854    0.000000

----------------------------
CARTESIAN COORDINATES (A.U.)
----------------------------
  NO LB      ZA    FRAG     MASS         X           Y           Z
   0 C     6.0000    0    12.011   -8.316620    0.706009   -0.000000
   1 N     7.0000    0    14.007   -0.996886    0.922323   -0.000000
   2 H     1.0000    0     1.008  -10.414819    0.644120    0.000000

--------------------------------
INTERNAL COORDINATES (ANGSTROEM)
--------------------------------
 C      0   0   0     0.000000000000     0.00000000     0.00000000
 N      1   0   0     3.875127667528     0.00000000     0.00000000
 H      1   2   0     1.110801641884   179.99679569     0.00000000

---------------------------
INTERNAL COORDINATES (A.U.)
---------------------------
 C      0   0   0     0.000000000000     0.00000000     0.00000000
 N      1   0   0     7.322930025609     0.00000000     0.00000000
 H      1   2   0     2.099110892272   179.99679569     0.00000000

---------------------
BASIS SET INFORMATION
---------------------
There are 3 groups of distinct atoms

 Group   1 Type C   : 10s4p1d contracted to 3s2p1d pattern {631/31/1}
 Group   2 Type N   : 10s4p1d contracted to 3s2p1d pattern {631/31/1}
 Group   3 Type H   : 4s contracted to 2s pattern {31}

Atom   0C    basis set group =>   1
Atom   1N    basis set group =>   2
Atom   2H    basis set group =>   3
------------------------------------------------------------------------------
                           ORCA GTO INTEGRAL CALCULATION
------------------------------------------------------------------------------

                         BASIS SET STATISTICS AND STARTUP INFO

 # of primitive gaussian shells          ...   34
 # of primitive gaussian functions       ...   58
 # of contracted shells                  ...   14
 # of contracted basis functions         ...   30
 Highest angular momentum                ...    2
 Maximum contraction depth               ...    6
 Integral package used                   ... LIBINT
 Integral threshhold            Thresh   ...  1.000e-10
 Primitive cut-off              TCut     ...  1.000e-11


------------------------------ INTEGRAL EVALUATION ----------------------------


 * One electron integrals 
 Pre-screening matrix                    ... done
 Shell pair data                         ... done (   0.000 sec)

-------------------------------------------------------------------------------
                                 ORCA SCF
-------------------------------------------------------------------------------

------------
SCF SETTINGS
------------
Hamiltonian:
 Density Functional     Method          .... DFT(GTOs)
 Exchange Functional    Exchange        .... WB97X-D3
 Correlation Functional Correlation     .... WB97X-D3
 Gradients option       PostSCFGGA      .... off
 Hybrid DFT is turned on
   Fraction HF Exchange ScalHFX         ....  0.195728
   Scaling of DF-GGA-X  ScalDFX         ....  0.000000
   Scaling of DF-GGA-C  ScalDFC         ....  1.000000
   Scaling of DF-LDA-C  ScalLDAC        ....  1.000000
   Perturbative correction              ....  0.000000
 Long-range corrected/Screened/Range-Separated Hybrid DFT is turned on
   Amount of maximum screened exact exchange              ....  0.804272
   Range separation parameter mu (erf(mu*r12)/r12)        ....  0.250000


General Settings:
 Integral files         IntName         .... Scan_34
 Hartree-Fock type      HFTyp           .... RHF
 Total Charge           Charge          ....    0
 Multiplicity           Mult            ....    1
 Number of Electrons    NEL             ....   14
 Basis Dimension        Dim             ....   30
 Nuclear Repulsion      ENuc            ....      9.3367010314 Eh

Convergence Acceleration:
 DIIS                   CNVDIIS         .... on
   Start iteration      DIISMaxIt       ....     0
   Startup error        DIISStart       ....  0.200000
   # of expansion vecs  DIISMaxEq       ....     5
   Bias factor          DIISBfac        ....   1.050
   Max. coefficient     DIISMaxC        ....  10.000
 Newton-Raphson         CNVNR           .... off
 SOSCF                  CNVSOSCF        .... off
 Level Shifting         CNVShift        .... off
 Zerner damping         CNVZerner       .... off
 Static damping         CNVDamp         .... off
 Fernandez-Rico         CNVRico         .... off

SCF Procedure:
 Maximum # iterations   MaxIter         ....   999
 SCF integral mode      SCFMode         .... Direct
   Integral package                     .... LIBINT
 Reset frequeny         DirectResetFreq ....    20
 Integral Threshold     Thresh          ....  1.000e-10 Eh
 Primitive CutOff       TCut            ....  1.000e-11 Eh

Convergence Tolerance:
 Convergence Check Mode ConvCheckMode   .... All-Criteria
 Convergence forced     ConvForced      .... 0
 Energy Change          TolE            ....  1.000e-06 Eh
 Max Density Change     TolMaxP         ....  1.000e-05
 RMS Density Change     TolRMSP         ....  1.000e-06
 DIIS Error             TolErr          ....  1.000e-06


Diagonalization of the overlap matrix:
Smallest eigenvalue                        ... 4.833e-02
Time for diagonalization                   ...    0.001 sec
Threshold for overlap eigenvalues          ... 1.000e-08
Number of eigenvalues below threshold      ... 0
Time for construction of square roots      ...    0.006 sec
Total time needed                          ...    0.007 sec

-------------------
DFT GRID GENERATION
-------------------

General Integration Accuracy     IntAcc      ...  4.340
Radial Grid Type                 RadialGrid  ... Gauss-Chebyshev
Angular Grid (max. acc.)         AngularGrid ... Lebedev-110
Angular grid pruning method      GridPruning ... 3 (G Style)
Weight generation scheme         WeightScheme... Becke
Basis function cutoff            BFCut       ...    1.0000e-10
Integration weight cutoff        WCut        ...    1.0000e-14
Grids for H and He will be reduced by one unit

# of grid points (after initial pruning)     ...   4152 (   0.0 sec)
# of grid points (after weights+screening)   ...   4117 (   0.0 sec)
nearest neighbour list constructed           ...    0.0 sec
Grid point re-assignment to atoms done       ...    0.0 sec
Grid point division into batches done        ...    0.0 sec
Reduced shell lists constructed in    0.0 sec

Total number of grid points                  ...     4117
Total number of batches                      ...       66
Average number of points per batch           ...       62
Average number of grid points per atom       ...     1372
Average number of shells per batch           ...     9.87 (70.47%)
Average number of basis functions per batch  ...    20.85 (69.50%)
Average number of large shells per batch     ...     8.15 (82.60%)
Average number of large basis fcns per batch ...    17.61 (84.47%)
Maximum spatial batch extension              ...  17.96, 25.60, 31.36 au
Average spatial batch extension              ...   4.62,  7.11,  7.42 au

Time for grid setup =    0.024 sec

------------------------------
INITIAL GUESS: MODEL POTENTIAL
------------------------------
Loading Hartree-Fock densities                     ... done
Calculating cut-offs                               ... done
Setting up the integral package                    ... done
Initializing the effective Hamiltonian             ... done
Starting the Coulomb interaction                   ... done (   0.0 sec)
Reading the grid                                   ... done
Mapping shells                                     ... done
Starting the XC term evaluation                    ... done (   0.0 sec)
  promolecular density results
     # of electrons  =     13.997145346
     EX              =    -11.613894882
     EC              =     -0.388814032
     EX+EC           =    -12.002708914
Transforming the Hamiltonian                       ... done (   0.0 sec)
Diagonalizing the Hamiltonian                      ... done (   0.0 sec)
Back transforming the eigenvectors                 ... done (   0.0 sec)
Now organizing SCF variables                       ... done
                      ------------------
                      INITIAL GUESS DONE (   0.1 sec)
                      ------------------
--------------
SCF ITERATIONS
--------------
ITER       Energy         Delta-E        Max-DP      RMS-DP      [F,P]   Gradient Norm
               ***  Starting incremental Fock matrix formation  ***
                             ****Resetting KDIIS****
                             ****Turning on KDIIS(Cayley)****
  0    -92.5234640343   0.000000000000 0.04408835  0.00349902  0.1512438   0.112649413
  1    -92.5546664520  -0.031202417751 0.03794713  0.00402173  0.1245730   0.094288119
  2    -92.5823457692  -0.027679317141 0.05719677  0.00567983  0.0992967   0.075679607
  3    -92.6117374271  -0.029391657914 0.10755224  0.01087693  0.0599028   0.046282773
  4    -92.6294902852  -0.017752858066 0.02519159  0.00191912  0.0114634   0.004968622
  5    -92.6301562232  -0.000665938073 0.21509722  0.01472046  0.0115581   0.004757007
  6    -92.6254351165   0.004721106689 0.22780179  0.01510832  0.0070234   0.005199758
  7    -92.6227038550   0.002731261572 0.11797454  0.00810665  0.0090315   0.007598865
  8    -92.6241319558  -0.001428100797 0.15976336  0.01046102  0.0046702   0.003168604
  9    -92.6259797805  -0.001847824687 0.23634671  0.01559984  0.0088998   0.007462090
 10    -92.6240283473   0.001951433152 0.02098660  0.00179516  0.0099493   0.005261854
 11    -92.6236941712   0.000334176058 0.06027047  0.00430140  0.0060446   0.003882285
 12    -92.6230623132   0.000631858072 0.26525981  0.01878579  0.0048756   0.004247847
 13    -92.6208297968   0.002232516353 0.31110922  0.02404340  0.0092044   0.007515479
 14    -92.6237435483  -0.002913751468 0.01949169  0.00144953  0.0038218   0.002929659
 15    -92.6235324626   0.000211085647 0.21657245  0.01408819  0.0037581   0.002960199
 16    -92.6260678361  -0.002535373469 0.41504942  0.02853833  0.0086199   0.006765822
 17    -92.6219721383   0.004095697805 0.07277806  0.00521426  0.0069315   0.005261944
 18    -92.6225729049  -0.000600766603 0.22475490  0.01461207  0.0043131   0.003394684
 19    -92.6205584504   0.002014454483 0.14146290  0.00874672  0.0099147   0.007955316
               *** Restarting incremental Fock matrix formation ***
                             ****Resetting KDIIS****
 20    -92.6219839987  -0.001425548246 0.00380763  0.00028678  0.0055173   0.004408485
 21    -92.6220599793  -0.000075980674 0.00951161  0.00066792  0.0044622   0.003713078
 22    -92.6221752227  -0.000115243351 0.01023491  0.00073704  0.0041375   0.003217161
 23    -92.6222841780  -0.000108955343 0.06355939  0.00468916  0.0037656   0.002610589
 24    -92.6227136274  -0.000429449341 0.14344673  0.01048056  0.0027730   0.001321367
 25    -92.6237421353  -0.001028507909 0.17662112  0.01319194  0.0039278   0.002414277
 26    -92.6224647637   0.001277371625 0.20488456  0.01296976  0.0033101   0.002331707
 27    -92.6208081579   0.001656605804 0.34548217  0.02550004  0.0083240   0.005561881
 28    -92.6236819163  -0.002873758468 0.15203302  0.01131596  0.0038514   0.002379870
 29    -92.6225890978   0.001092818485 0.06571515  0.00515315  0.0030752   0.001821965
 30    -92.6230353564  -0.000446258581 0.35089148  0.02306693  0.0029489   0.001613535
 31    -92.6202134151   0.002821941302 0.27171861  0.01457202  0.0100703   0.005483166
 32    -92.6157473462   0.004466068938 0.23004709  0.01234953  0.0229102   0.012111190
 33    -92.6198376684  -0.004090322218 0.38354104  0.01997597  0.0111902   0.005495786
 34    -92.6125214475   0.007316220889 0.00319327  0.00037834  0.0307209   0.015057233
 35    -92.6127561892  -0.000234741687 0.40183805  0.02097004  0.0301102   0.014548454
 36    -92.6201810632  -0.007424874028 0.16047479  0.00927295  0.0098224   0.004427425
 37    -92.6216036558  -0.001422592579 0.11029723  0.00714537  0.0052202   0.002420088
 38    -92.6223298440  -0.000726188229 0.03819682  0.00264955  0.0033228   0.001599480
 39    -92.6220724090   0.000257435063 0.03611209  0.00236726  0.0038392   0.001891018
               *** Restarting incremental Fock matrix formation ***
                             ****Resetting KDIIS****
 40    -92.6218314019   0.000241007040 0.00459973  0.00029298  0.0044262   0.002095134
 41    -92.6218662789  -0.000034876998 0.01574801  0.00100678  0.0042561   0.001877308
 42    -92.6219641772  -0.000097898243 0.05901011  0.00394695  0.0039938   0.001851569
 43    -92.6223227051  -0.000358527877 0.06292763  0.00466222  0.0031482   0.001552409
 44    -92.6226772037  -0.000354498619 0.12481210  0.00920411  0.0027218   0.001384986
 45    -92.6235188434  -0.000841639689 0.26148363  0.02062241  0.0037134   0.002362425
 46    -92.6215289751   0.001989868298 0.43620067  0.02400539  0.0055864   0.003763233
 47    -92.6148778304   0.006651144670 0.28929769  0.01446336  0.0251068   0.014438179
 48    -92.6071406204   0.007737210041 0.00433019  0.00049193  0.0423729   0.021876163
 49    -92.6071000412   0.000040579151 0.34451565  0.01732595  0.0424631   0.021754741
 50    -92.6164015453  -0.009301504055 0.53193690  0.03099596  0.0211854   0.011489820
 51    -92.6225106670  -0.006109121789 0.09988996  0.00688016  0.0028739   0.001681890
 52    -92.6220084368   0.000502230284 0.03462478  0.00228738  0.0039209   0.001798591
 53    -92.6222071476  -0.000198710811 0.19248145  0.01172742  0.0033698   0.001467465
 54    -92.6207739477   0.001433199835 0.18202642  0.01108560  0.0080577   0.003729714
 55    -92.6221802736  -0.001406325885 0.09545214  0.00698790  0.0036703   0.001624625
 56    -92.6228010354  -0.000620761741 0.03944166  0.00306214  0.0029738   0.001655629
 57    -92.6225247973   0.000276238102 0.25550330  0.01666542  0.0031722   0.001736216
 58    -92.6203911986   0.002133598669 0.39688416  0.02116284  0.0089695   0.004967035
 59    -92.6135445074   0.006846691167 0.20514160  0.01023070  0.0281167   0.014593895
               *** Restarting incremental Fock matrix formation ***
                             ****Resetting KDIIS****
 60    -92.6078585681   0.005685939343 0.07503522  0.00372562  0.0407511   0.020384402
 61    -92.6107054030  -0.002846834886 0.07946263  0.00396460  0.0342313   0.015919057
 62    -92.6128435455  -0.002138142516 0.16427101  0.00831968  0.0294209   0.013986550
 63    -92.6165776681  -0.003734122646 0.19919139  0.01049342  0.0198790   0.009268555
 64    -92.6196804966  -0.003102828496 0.09298095  0.00515049  0.0102586   0.004335131
 65    -92.6205770982  -0.000896601595 0.18685312  0.01129429  0.0071738   0.003057307
 66    -92.6217882302  -0.001211131967 0.02258344  0.00149641  0.0030600   0.001694893
 67    -92.6216387447   0.000149485513 0.02981111  0.00194321  0.0034312   0.001646793
 68    -92.6217893121  -0.000150567468 0.09554889  0.00602336  0.0029658   0.001452954
 69    -92.6212482490   0.000541063146 0.18800422  0.01265777  0.0048453   0.002409512
 70    -92.6222272877  -0.000979038726 0.06326105  0.00476602  0.0022750   0.001364243
 71    -92.6218949655   0.000332322270 0.03491112  0.00258518  0.0026738   0.001637405
 72    -92.6220834698  -0.000188504297 0.02660708  0.00201965  0.0023982   0.001509594
 73    -92.6219325809   0.000150888812 0.09258000  0.00722911  0.0025851   0.001633898
 74    -92.6222976025  -0.000365021554 0.14776229  0.01231525  0.0021611   0.001207355
 75    -92.6238088254  -0.001511222938 0.43563932  0.03483077  0.0048317   0.003372929
 76    -92.6199919395   0.003816885962 0.15448970  0.00976453  0.0089744   0.006009990
 77    -92.6213041763  -0.001312236847 0.01948538  0.00197875  0.0044238   0.003178745
 78    -92.6213224984  -0.000018322037 0.02424088  0.00215924  0.0039162   0.003100571
 79    -92.6213819291  -0.000059430756 0.18528264  0.01515812  0.0036070   0.002808360
               *** Restarting incremental Fock matrix formation ***
                             ****Resetting KDIIS****
 80    -92.6225526112  -0.001170682118 0.00156580  0.00013200  0.0024460   0.001392498
 81    -92.6225728327  -0.000020221498 0.00104087  0.00007695  0.0024605   0.001466908
 82    -92.6225634875   0.000009345252 0.00165496  0.00011099  0.0024521   0.001319803
 83    -92.6225520537   0.000011433812 0.10943877  0.00939626  0.0024338   0.001155150
 84    -92.6218905156   0.000661538097 0.45150742  0.02667353  0.0022866   0.001536301
Warning: badly conditioned DIIS matrix, 1 vectors out of 5 destroyed
 85    -92.6177250710   0.004165444593 0.48058550  0.02884204  0.0165410   0.009198734
 86    -92.6220472325  -0.004322161542 0.05041322  0.00366626  0.0020564   0.001026231
 87    -92.6218338723   0.000213360246 0.01465765  0.00150045  0.0025199   0.001418593
 88    -92.6218405142  -0.000006641891 0.01467433  0.00106408  0.0027371   0.001322329
 89    -92.6218842289  -0.000043714701 0.00936175  0.00065403  0.0025223   0.001230785
 90    -92.6218503699   0.000033858999 0.19392911  0.01555318  0.0026495   0.001290811
 91    -92.6226932145  -0.000842844685 0.64561082  0.04158748  0.0032498   0.002364893
 92    -92.6166041063   0.006089108291 0.42651769  0.02423297  0.0200017   0.011349718
 93    -92.6216362698  -0.005032163552 0.01823229  0.00150987  0.0035480   0.002222469
 94    -92.6217839328  -0.000147662974 0.20435951  0.01227169  0.0032383   0.001817505
 95    -92.6202313623   0.001552570512 0.21625706  0.01306357  0.0090202   0.005237240
 96    -92.6218127092  -0.001581346899 0.05097111  0.00356192  0.0029031   0.001523418
 97    -92.6220161426  -0.000203433437 0.02167029  0.00169737  0.0022397   0.001033759
 98    -92.6220728807  -0.000056738094 0.03643650  0.00300933  0.0020823   0.001044553
 99    -92.6222704993  -0.000197618628 0.01106108  0.00090880  0.0022214   0.001636394
               *** Restarting incremental Fock matrix formation ***
                             ****Resetting KDIIS****
100    -92.6222194713   0.000051028014 0.00146727  0.00012950  0.0022157   0.001642576
101    -92.6222341736  -0.000014702286 0.00282112  0.00024900  0.0021790   0.001458138
102    -92.6222609080  -0.000026734370 0.00333455  0.00029940  0.0021212   0.001233272
103    -92.6222734769  -0.000012568895 0.05734534  0.00453566  0.0020996   0.001067424
104    -92.6219710100   0.000302466899 0.06396758  0.00510377  0.0022233   0.001103795
105    -92.6223117407  -0.000340730686 0.10769459  0.00851847  0.0021650   0.001163659
106    -92.6230953553  -0.000783614624 0.57922495  0.03892308  0.0035536   0.001863869
107    -92.6178679232   0.005227432034 0.03703078  0.00198774  0.0161989   0.009396336
108    -92.6184339506  -0.000566027321 0.04825280  0.00257840  0.0144531   0.008522139
109    -92.6177367260   0.000697224570 0.06024508  0.00313197  0.0165772   0.009380706
110    -92.6169735279   0.000763198122 0.03417248  0.00181818  0.0187608   0.009736860
111    -92.6176388474  -0.000665319496 0.32385861  0.01811539  0.0167546   0.008464620
112    -92.6211898756  -0.003551028269 0.08303415  0.00526966  0.0045680   0.002093024
113    -92.6216596579  -0.000469782308 0.27126518  0.01622402  0.0030220   0.001438470
114    -92.6195495524   0.002110105502 0.27068236  0.01617840  0.0104335   0.005129163
115    -92.6216525573  -0.002103004845 0.02709230  0.00188270  0.0030731   0.001611306
116    -92.6218022734  -0.000149716113 0.01590217  0.00115569  0.0027178   0.001411680
117    -92.6218896387  -0.000087365332 0.03693721  0.00268560  0.0025323   0.001226659
118    -92.6220714047  -0.000181765938 0.02695725  0.00201884  0.0022811   0.001202376
119    -92.6219275394   0.000143865235 0.14266300  0.01248475  0.0024292   0.001197089
               *** Restarting incremental Fock matrix formation ***
                             ****Resetting KDIIS****
120    -92.6229359112  -0.001008371777 0.00210712  0.00016226  0.0031623   0.002247258
121    -92.6229616852  -0.000025773975 0.00590724  0.00044466  0.0031672   0.001995956
122    -92.6230196557  -0.000057970542 0.04051848  0.00306532  0.0032292   0.001757086
123    -92.6227310406   0.000288615176 0.06782818  0.00549346  0.0026922   0.001504532
124    -92.6223070504   0.000423990163 0.05541590  0.00453702  0.0024444   0.001739867
125    -92.6226407662  -0.000333715797 0.92941411  0.05297520  0.0026503   0.001896578
126    -92.6082819000   0.014358866175 0.30617714  0.01551890  0.0398388   0.020570325
127    -92.6162302624  -0.007948362405 0.33501663  0.01684868  0.0210696   0.011413974
128    -92.6079039546   0.008326307798 0.43910309  0.02117920  0.0405986   0.020249769
129    -92.5900715287   0.017832425935 1.10498659  0.05587922  0.0722128   0.034537939
130    -92.6209914840  -0.030919955310 0.00930665  0.00062967  0.0055748   0.002322020
131    -92.6209176446   0.000073839397 0.00653958  0.00040348  0.0061101   0.002373996
132    -92.6209579914  -0.000040346758 0.05208636  0.00313260  0.0059667   0.002306041
133    -92.6213452494  -0.000387258034 0.02449953  0.00203298  0.0045690   0.001855847
134    -92.6214403910  -0.000095141571 0.14282504  0.00975307  0.0045367   0.002563822
135    -92.6222869569  -0.000846565955 0.22692971  0.01485930  0.0025626   0.001467966
136    -92.6208059301   0.001481026820 0.27614880  0.01886090  0.0067254   0.003554157
137    -92.6226328522  -0.001826922125 0.01080245  0.00088655  0.0025734   0.001537728
138    -92.6226897862  -0.000056934010 0.05854324  0.00497187  0.0026337   0.001559017
139    -92.6222739139   0.000415872352 0.05727647  0.00480598  0.0025417   0.001410399
               *** Restarting incremental Fock matrix formation ***
                             ****Resetting KDIIS****
140    -92.6226600248  -0.000386110942 0.00174593  0.00014127  0.0026099   0.001540630
141    -92.6226753168  -0.000015292016 0.00502182  0.00040098  0.0025901   0.001403469
142    -92.6227140337  -0.000038716815 0.00264329  0.00021903  0.0025884   0.001293020
143    -92.6227332443  -0.000019210643 0.02958918  0.00237133  0.0025764   0.001186915
144    -92.6225440431   0.000189201154 0.64253929  0.03781023  0.0024233   0.001133085
145    -92.6149210116   0.007623031565 0.44282685  0.02430102  0.0246540   0.013329088
146    -92.6213112253  -0.006390213741 0.03537987  0.00220043  0.0053282   0.003086276
147    -92.6215642769  -0.000253051587 0.03677245  0.00245588  0.0044536   0.002528185
148    -92.6218301477  -0.000265870791 0.00247601  0.00021134  0.0036766   0.001984949
149    -92.6218343939  -0.000004246188 0.05096184  0.00349100  0.0036245   0.001958699
150    -92.6221355584  -0.000301164510 0.03633336  0.00265504  0.0028639   0.001422256
151    -92.6223294797  -0.000193921279 0.05556012  0.00480450  0.0026496   0.001622088
152    -92.6227464418  -0.000416962095 0.04669536  0.00432213  0.0027141   0.001639320
153    -92.6223357065   0.000410735246 0.20883379  0.01477574  0.0026290   0.001925965
154    -92.6209452476   0.001390458880 0.09371599  0.00549572  0.0058846   0.003648641
155    -92.6201630435   0.000782204188 0.40337454  0.02934275  0.0090393   0.004954347
156    -92.6233844132  -0.003221369752 0.06638042  0.00505684  0.0035303   0.001968333
157    -92.6228434333   0.000540979894 0.02253272  0.00174121  0.0027758   0.001532117
158    -92.6230069537  -0.000163520422 0.13143228  0.01000813  0.0029577   0.001628993
159    -92.6244349675  -0.001428013774 0.28182437  0.02339848  0.0052311   0.003902289
               *** Restarting incremental Fock matrix formation ***
                             ****Resetting KDIIS****
160    -92.6217178884   0.002717079066 0.00354114  0.00025250  0.0044216   0.003437391
161    -92.6217655125  -0.000047624034 0.00916101  0.00061743  0.0037915   0.002874792
162    -92.6218363369  -0.000070824470 0.01375317  0.00094201  0.0035393   0.002539026
163    -92.6219386397  -0.000102302802 0.08585556  0.00552609  0.0031844   0.002087047
164    -92.6214515150   0.000487124726 0.16227707  0.01103818  0.0048679   0.002911673
165    -92.6223340878  -0.000882572749 0.05109588  0.00414614  0.0024561   0.001396645
166    -92.6226399808  -0.000305892982 0.06492695  0.00530029  0.0025114   0.001341714
167    -92.6222557841   0.000384196655 0.16892468  0.01123973  0.0025504   0.001512746
168    -92.6212490537   0.001006730444 0.11564254  0.00741890  0.0053373   0.002839675
169    -92.6219735569  -0.000724503250 0.05831965  0.00382991  0.0030432   0.001644498
170    -92.6216606975   0.000312859421 0.08053760  0.00538908  0.0042476   0.002672665
171    -92.6221135005  -0.000452803037 0.08442750  0.00663043  0.0029300   0.001926905
172    -92.6226059942  -0.000492493651 0.10751078  0.00833644  0.0025735   0.001573565
173    -92.6219580434   0.000647950732 0.27575967  0.02118840  0.0031289   0.002018773
174    -92.6241941687  -0.002236125233 0.30622049  0.02368957  0.0052861   0.003662157
175    -92.6217247071   0.002469461553 0.15108293  0.01121834  0.0040256   0.002845762
176    -92.6226235257  -0.000898818563 0.55914694  0.03413539  0.0026027   0.001758683
177    -92.6167649605   0.005858565163 0.41366011  0.02367293  0.0197823   0.011803174
178    -92.6218383626  -0.005073402087 0.06904670  0.00436925  0.0036124   0.001924081
179    -92.6213686580   0.000469704637 0.01200465  0.00093537  0.0051137   0.002677105
               *** Restarting incremental Fock matrix formation ***
                             ****Resetting KDIIS****
180    -92.6214901917  -0.000121533744 0.00494898  0.00031072  0.0047711   0.002420759
181    -92.6215334041  -0.000043212408 0.01417540  0.00089108  0.0045562   0.002151503
182    -92.6216427933  -0.000109389167 0.01683934  0.00107289  0.0042278   0.002071551
183    -92.6217482317  -0.000105438406 0.10933409  0.00749929  0.0039095   0.002113981
184    -92.6223126527  -0.000564421040 0.11965683  0.00936808  0.0024363   0.001178991
185    -92.6230419245  -0.000729271769 0.10503909  0.00816336  0.0031661   0.002050598
186    -92.6223837604   0.000658164151 0.09559732  0.00681884  0.0025375   0.001614822
187    -92.6218691037   0.000514656615 0.04981292  0.00340882  0.0035174   0.002068203
188    -92.6221328209  -0.000263717185 0.01027957  0.00073381  0.0029675   0.002003846
189    -92.6220781920   0.000054628904 0.00779646  0.00061811  0.0030713   0.002042257
190    -92.6220450874   0.000033104572 0.20767686  0.01605727  0.0032166   0.002057510
191    -92.6234269411  -0.001381853685 0.12125554  0.00883174  0.0038566   0.002218596
192    -92.6226112089   0.000815732206 0.08727599  0.00643719  0.0024833   0.001321862
193    -92.6231134672  -0.000502258289 0.01115950  0.00110737  0.0033551   0.002388120
194    -92.6231298996  -0.000016432434 0.08547422  0.00643022  0.0033039   0.002542823
195    -92.6226018512   0.000528048418 0.06761870  0.00521157  0.0026724   0.002104505
196    -92.6222015793   0.000400271949 0.36921148  0.02598855  0.0030615   0.002372262
197    -92.6255154376  -0.003313858354 0.32819239  0.02291701  0.0098704   0.007432406
198    -92.6224298869   0.003085550690 0.75414027  0.04239828  0.0041442   0.003392509
199    -92.6108135317   0.011616355272 0.09642430  0.00484377  0.0346515   0.019666975
               *** Restarting incremental Fock matrix formation ***
                             ****Resetting KDIIS****
200    -92.6086558244   0.002157707249 0.07019954  0.00350769  0.0391397   0.020182594
201    -92.6113418563  -0.002686031827 0.07533611  0.00378098  0.0329819   0.015799848
202    -92.6133786128  -0.002036756500 0.15365892  0.00783282  0.0283266   0.013846779
203    -92.6169038168  -0.003525204074 0.16555119  0.00875153  0.0193509   0.009315139
204    -92.6195423926  -0.002638575774 0.18843091  0.01066630  0.0108104   0.004494192
205    -92.6212460268  -0.001703634186 0.02357477  0.00142321  0.0051601   0.002372284
206    -92.6214135249  -0.000167498129 0.04523379  0.00282098  0.0045948   0.002138524
207    -92.6216562294  -0.000242704462 0.10166271  0.00688543  0.0037004   0.001665725
208    -92.6221508974  -0.000494667996 0.16507584  0.01078592  0.0024933   0.001415689
209    -92.6212228021   0.000928095245 0.22589608  0.01558613  0.0053317   0.002937430
210    -92.6224685829  -0.001245780775 0.00855111  0.00078769  0.0024176   0.001503999
211    -92.6225395234  -0.000070940506 0.09960924  0.00791797  0.0024912   0.001610061
212    -92.6219487624   0.000590761052 0.02485657  0.00169349  0.0028118   0.001915082
213    -92.6218271056   0.000121656751 0.21134719  0.01714616  0.0031955   0.002215896
214    -92.6232261599  -0.001399054299 0.49794038  0.03464109  0.0037481   0.002352957
215    -92.6190464591   0.004179700804 0.16030538  0.00904254  0.0129154   0.007761778
216    -92.6209030342  -0.001856575116 0.00074398  0.00008013  0.0063948   0.003540495
217    -92.6208941641   0.000008870150 0.21397455  0.01193046  0.0063979   0.003508114
218    -92.6184022640   0.002491900086 0.17174088  0.00953600  0.0148498   0.008313740
219    -92.6205348451  -0.002132581095 0.16714135  0.01015645  0.0077886   0.004494738
               *** Restarting incremental Fock matrix formation ***
                             ****Resetting KDIIS****
220    -92.6217604050  -0.001225559887 0.00319367  0.00021368  0.0033627   0.001819687
221    -92.6217828304  -0.000022425451 0.00968585  0.00064479  0.0032439   0.001607368
222    -92.6218399387  -0.000057108334 0.01173865  0.00079098  0.0030726   0.001543265
223    -92.6219029062  -0.000062967442 0.10219990  0.00761601  0.0028921   0.001529747
224    -92.6224122474  -0.000509341180 0.11629853  0.00891459  0.0022385   0.001133370
225    -92.6232015215  -0.000789274159 0.20338631  0.01650170  0.0036379   0.002345743
226    -92.6218541445   0.001347377044 0.02893003  0.00200412  0.0031824   0.002298156
227    -92.6220027432  -0.000148598743 0.04565848  0.00339572  0.0028172   0.002138555
228    -92.6222472334  -0.000244490193 0.07440269  0.00540239  0.0024684   0.001790793
229    -92.6218504982   0.000396735261 0.02250907  0.00155732  0.0031392   0.002111541
230    -92.6220002582  -0.000149760059 0.21322024  0.01696408  0.0027086   0.001656086
231    -92.6234992038  -0.001498945626 0.21983913  0.01748966  0.0042069   0.002725752
232    -92.6219100508   0.001589153039 0.09454444  0.00729621  0.0034452   0.002718308
233    -92.6225418266  -0.000631775826 1.59166694  0.08297803  0.0033782   0.001844524
234    -92.5765320070   0.046009819603 1.59018916  0.08297883  0.0915752   0.044364351
235    -92.6225048378  -0.045972830772 0.03924359  0.00315643  0.0023939   0.001480941
236    -92.6227583449  -0.000253507058 0.10573607  0.00885671  0.0026782   0.001560979
237    -92.6221234273   0.000634917605 0.22282301  0.01733736  0.0026448   0.001844582
238    -92.6237664751  -0.001643047857 0.09034019  0.00663772  0.0046549   0.003559250
239    -92.6228842702   0.000882204918 0.09037661  0.00739256  0.0039149   0.002973370
               *** Restarting incremental Fock matrix formation ***
                             ****Resetting KDIIS****
240    -92.6222776630   0.000606607219 0.00167972  0.00015085  0.0031307   0.002516434
241    -92.6223053557  -0.000027692699 0.00319539  0.00028629  0.0025318   0.002197110
242    -92.6223539483  -0.000048592610 0.00341575  0.00032354  0.0023815   0.001778222
243    -92.6223618643  -0.000007916041 0.01185895  0.00102366  0.0023241   0.001403964
244    -92.6224321574  -0.000070293070 0.12715267  0.00939172  0.0022636   0.001080346
245    -92.6217579717   0.000674185651 0.05846230  0.00376158  0.0033151   0.001924397
246    -92.6213444603   0.000413511484 0.06836403  0.00439808  0.0047699   0.002950667
247    -92.6217721322  -0.000427671949 0.08736944  0.00634634  0.0033375   0.002018323
248    -92.6222668107  -0.000494678515 0.01842221  0.00150255  0.0024510   0.001503139
249    -92.6223819594  -0.000115148665 0.12073244  0.00892845  0.0024321   0.001509166
250    -92.6216684947   0.000713464697 0.24053855  0.01513294  0.0035116   0.002248300
251    -92.6197077865   0.001960708140 0.26871800  0.01780734  0.0099483   0.005536114
252    -92.6219518829  -0.002244096327 0.08282993  0.00601978  0.0031232   0.001598469
253    -92.6223843863  -0.000432503456 0.00493567  0.00039881  0.0023994   0.001171643
254    -92.6224133329  -0.000028946553 0.01433338  0.00113259  0.0023993   0.001189533
255    -92.6224768302  -0.000063497351 0.09631121  0.00781759  0.0024203   0.001261812
256    -92.6232507361  -0.000773905831 0.61048461  0.04036638  0.0035093   0.002324654
257    -92.6171323919   0.006118344133 0.46375267  0.02747017  0.0183682   0.010754482
258    -92.6219893241  -0.004856932180 0.17292778  0.01132871  0.0028290   0.002140862
259    -92.6208441270   0.001145197161 0.05172966  0.00314553  0.0063401   0.004096634
               *** Restarting incremental Fock matrix formation ***
                             ****Resetting KDIIS****
260    -92.6212363147  -0.000392187763 0.00498221  0.00031852  0.0049375   0.003281359
261    -92.6212932249  -0.000056910141 0.01237215  0.00077926  0.0046574   0.002797984
262    -92.6214035728  -0.000110347902 0.01361342  0.00086483  0.0042752   0.002544429
263    -92.6214891673  -0.000085594576 0.09407831  0.00626009  0.0038937   0.002336088
264    -92.6219429222  -0.000453754901 0.05397741  0.00405658  0.0022428   0.001094435
265    -92.6222116711  -0.000268748823 0.01631893  0.00130578  0.0020556   0.001337449
266    -92.6221020966   0.000109574460 0.00417042  0.00039647  0.0021506   0.001325930
267    -92.6221387838  -0.000036687222 0.02717016  0.00206551  0.0019720   0.001031860
268    -92.6219952601   0.000143523701 0.07122001  0.00579195  0.0022080   0.001093706
269    -92.6223998870  -0.000404626844 0.09190013  0.00719662  0.0020242   0.001292906
270    -92.6230701883  -0.000670301296 0.47094391  0.03299921  0.0033860   0.001524600
271    -92.6193853515   0.003684836747 0.04235930  0.00231879  0.0113300   0.006729723
272    -92.6188311160   0.000554235542 0.10855528  0.00578692  0.0131653   0.007725309
273    -92.6171958800   0.001635235979 0.14495818  0.00751322  0.0181534   0.010088297
274    -92.6143395028   0.002856377174 0.17447513  0.00903598  0.0258781   0.013754956
275    -92.6177527486  -0.003413245755 0.41672298  0.02435297  0.0164541   0.008957781
276    -92.6218073119  -0.004054563291 0.04202527  0.00304467  0.0027014   0.001488235
277    -92.6220319335  -0.000224621673 0.03772825  0.00284314  0.0022737   0.001112731
278    -92.6218131713   0.000218762280 0.00715096  0.00062086  0.0026048   0.001419368
279    -92.6218688624  -0.000055691116 0.00074390  0.00007101  0.0024887   0.001180753
               *** Restarting incremental Fock matrix formation ***
                             ****Resetting KDIIS****
280    -92.6218648717   0.000003990678 0.00212040  0.00015013  0.0025070   0.001225085
281    -92.6218769486  -0.000012076933 0.00680204  0.00048212  0.0024485   0.001133198
282    -92.6219133191  -0.000036370454 0.00779304  0.00055901  0.0023584   0.001100689
283    -92.6219494677  -0.000036148645 0.07468727  0.00583568  0.0022872   0.001110622
284    -92.6223189294  -0.000369461692 0.03047357  0.00252470  0.0020838   0.001024844
285    -92.6221532895   0.000165639932 0.07359694  0.00612924  0.0020211   0.000972445
286    -92.6225874467  -0.000434157238 0.70262617  0.04244472  0.0025029   0.001422897
287    -92.6149428127   0.007644634058 0.31140138  0.01657534  0.0243195   0.012981738
288    -92.6199416252  -0.004998812526 0.25991611  0.01389654  0.0094728   0.005602513
289    -92.6161148859   0.003826739329 0.52352513  0.02989498  0.0211977   0.011155010
290    -92.6218871389  -0.005772253061 0.00541370  0.00040453  0.0024315   0.001078416
291    -92.6219168184  -0.000029679453 0.00792161  0.00067991  0.0024097   0.001099706
292    -92.6218662826   0.000050535802 0.00268184  0.00022491  0.0023944   0.001171903
293    -92.6218862709  -0.000019988345 0.02146671  0.00156803  0.0023647   0.001106695
294    -92.6219482059  -0.000061935028 0.15070436  0.01214256  0.0021737   0.001167487
295    -92.6226498153  -0.000701609362 0.45850292  0.03167990  0.0029719   0.001545611
296    -92.6195267257   0.003123089610 0.10926372  0.00647148  0.0115716   0.006606540
297    -92.6206843864  -0.001157660720 0.02431470  0.00152606  0.0071624   0.004320909
298    -92.6208949585  -0.000210572127 0.17054321  0.01074950  0.0062266   0.003657367
299    -92.6218572777  -0.000962319154 0.10573497  0.00865780  0.0024512   0.001471513
               *** Restarting incremental Fock matrix formation ***
                             ****Resetting KDIIS****
300    -92.6221600627  -0.000302785003 0.00115269  0.00010371  0.0018514   0.000955061
301    -92.6221692320  -0.000009169326 0.00051445  0.00004331  0.0018651   0.000976100
302    -92.6221679920   0.000001240074 0.00331868  0.00029788  0.0018701   0.000914198
303    -92.6221450028   0.000022989186 0.09963309  0.00809619  0.0018492   0.000842610
304    -92.6216729732   0.000472029590 0.02036175  0.00144138  0.0018100   0.000861661
305    -92.6215914583   0.000081514843 0.15366673  0.00977214  0.0020052   0.000957745
306    -92.6207555496   0.000835908772 0.10851122  0.00675468  0.0054550   0.003376601
307    -92.6213804608  -0.000624911278 0.11570552  0.00827468  0.0029596   0.002174621
308    -92.6218935356  -0.000513074776 0.05747388  0.00433522  0.0017352   0.001138623
309    -92.6216471714   0.000246364228 0.02403367  0.00177028  0.0019553   0.000994560
310    -92.6217537767  -0.000106605328 0.01479521  0.00114266  0.0017778   0.000897449
311    -92.6216805314   0.000073245352 0.10721994  0.00890722  0.0018658   0.000946561
312    -92.6222145745  -0.000534043151 0.21915244  0.01630717  0.0021114   0.001444655
313    -92.6211492629   0.001065311662 0.13482391  0.00914721  0.0038166   0.002689675
314    -92.6217767741  -0.000627511268 0.02455940  0.00179665  0.0017797   0.001270728
315    -92.6216693862   0.000107387884 0.33039543  0.02014171  0.0020033   0.001494096
316    -92.6193529034   0.002316482849 0.16740203  0.00964175  0.0107673   0.006182986
317    -92.6208688127  -0.001515909341 0.15502059  0.01008146  0.0048364   0.002511691
318    -92.6216680206  -0.000799207876 0.06606687  0.00450495  0.0020048   0.001043590
319    -92.6213736543   0.000294366282 0.04536508  0.00306109  0.0028593   0.001473256
               *** Restarting incremental Fock matrix formation ***
                             ****Resetting KDIIS****
320    -92.6215798088  -0.000206154498 0.00200499  0.00013874  0.0022343   0.001204710
321    -92.6215897321  -0.000009923297 0.00669634  0.00046032  0.0021692   0.001074851
322    -92.6216171641  -0.000027431985 0.01141136  0.00079561  0.0020807   0.001038462
323    -92.6216643607  -0.000047196564 0.04921657  0.00361295  0.0019447   0.001012704
324    -92.6218499425  -0.000185581836 0.02093285  0.00158702  0.0016527   0.000835261
325    -92.6217660877   0.000083854855 0.03535767  0.00258802  0.0017256   0.000854564
326    -92.6216163770   0.000149710683 0.15552470  0.00988738  0.0019690   0.000973154
327    -92.6208112228   0.000805154129 0.11301450  0.00642868  0.0051399   0.002923964
328    -92.6198672167   0.000944006095 0.04720750  0.00306195  0.0090564   0.005216664
329    -92.6194027893   0.000464427398 0.27619060  0.01626519  0.0105133   0.005692037
330    -92.6214206760  -0.002017886639 0.05222422  0.00354156  0.0024077   0.001202378
331    -92.6216165367  -0.000195860765 0.09183411  0.00603724  0.0018043   0.000988287
332    -92.6212598611   0.000356675695 0.07618839  0.00495211  0.0031840   0.001669335
333    -92.6215596512  -0.000299790183 0.03583888  0.00238220  0.0019777   0.001122731
334    -92.6214378978   0.000121753468 0.17239953  0.01046291  0.0025025   0.001400471
335    -92.6204368132   0.001001084553 0.26053970  0.01663536  0.0071549   0.003795407
336    -92.6216461975  -0.001209384307 0.10438788  0.00720381  0.0013695   0.000864297
337    -92.6213033273   0.000342870262 0.05825486  0.00515477  0.0024604   0.001351034
338    -92.6216505061  -0.000347178862 0.00154676  0.00015660  0.0020186   0.000962732
339    -92.6216619189  -0.000011412821 0.05609372  0.00409005  0.0020266   0.000990444
               *** Restarting incremental Fock matrix formation ***
                             ****Resetting KDIIS****
340    -92.6218563043  -0.000194385404 0.00122464  0.00010068  0.0017327   0.001130459
341    -92.6218637790  -0.000007474616 0.00365302  0.00029436  0.0017021   0.001003505
342    -92.6218822934  -0.000018514428 0.00280525  0.00023004  0.0016752   0.000924433
343    -92.6218956928  -0.000013399392 0.01814909  0.00151341  0.0016445   0.000838312
344    -92.6219834738  -0.000087781000 0.48802481  0.03018317  0.0016386   0.000783376
345    -92.6182667981   0.003716675693 0.20249771  0.01130555  0.0144011   0.007863106
346    -92.6204768284  -0.002210030291 0.01649727  0.00093257  0.0065009   0.003742016
347    -92.6203696014   0.000107226984 0.16747755  0.01027790  0.0069259   0.003837791
348    -92.6214297652  -0.001060163814 0.04242215  0.00270371  0.0026179   0.001189219
349    -92.6212208344   0.000208930785 0.06804394  0.00440050  0.0035370   0.001905009
350    -92.6215353013  -0.000314466833 0.05579058  0.00394947  0.0023051   0.001137635
351    -92.6217610044  -0.000225703151 0.05984332  0.00418237  0.0018480   0.001127651
352    -92.6215253358   0.000235668602 0.13652369  0.01055343  0.0024340   0.001290092
353    -92.6221689331  -0.000643597319 0.10967320  0.00889367  0.0019776   0.001233886
354    -92.6216009160   0.000568017124 0.04728437  0.00422387  0.0021083   0.001375058
355    -92.6214869574   0.000113958619 0.06006721  0.00643235  0.0018779   0.001327370
356    -92.6219472326  -0.000460275211 0.07764358  0.00818271  0.0017224   0.001305406
357    -92.6213832574   0.000563975209 0.41466342  0.02823856  0.0023266   0.001277099
358    -92.6187530825   0.002630174842 0.08080123  0.00603911  0.0108566   0.005968965
359    -92.6194361937  -0.000683111117 0.38367324  0.02692349  0.0083548   0.004588187
               *** Restarting incremental Fock matrix formation ***
                             ****Resetting KDIIS****
360    -92.6156039122   0.003832281418 0.04239629  0.00214787  0.0224898   0.012839325
361    -92.6165966826  -0.000992770325 0.05320592  0.00271644  0.0192918   0.010600358
362    -92.6175969203  -0.001000237711 0.08028821  0.00414157  0.0166278   0.009293109
363    -92.6189068075  -0.001309887226 0.19946788  0.01050758  0.0128960   0.007679070
364    -92.6207395665  -0.001832758987 0.04916475  0.00289861  0.0055087   0.005112526
365    -92.6209877649  -0.000248198397 0.14515574  0.00829418  0.0069386   0.003447411
366    -92.6207184525   0.000269312364 0.02942146  0.00175991  0.0018140   0.001669801
367    -92.6207580587  -0.000039606164 0.01464975  0.00087836  0.0008404   0.000544021
368    -92.6207825377  -0.000024479006 0.00619691  0.00043078  0.0009026   0.000435101
369    -92.6208031415  -0.000020603840 0.01212865  0.00128716  0.0009788   0.000431354
370    -92.6207133956   0.000089745931 0.00801153  0.00089503  0.0008752   0.000461273
371    -92.6207720597  -0.000058664134 0.00176869  0.00021892  0.0009618   0.000445260
372    -92.6207589500   0.000013109733 0.00501176  0.00030924  0.0009490   0.000464081
373    -92.6207511807   0.000007769352 0.01777810  0.00188641  0.0009142   0.000453178
374    -92.6206233705   0.000127810159 0.00178663  0.00014917  0.0008664   0.000509490
                          ***Energy convergence achieved***
375    -92.6206233315   0.000000039007 0.01687100  0.00194306  0.0007445   0.000524787
376    -92.6205254749   0.000097856587 0.00319604  0.00040241  0.0008137   0.000440260
377    -92.6205375210  -0.000012046134 0.00281315  0.00034346  0.0007252   0.000368337
378    -92.6205250782   0.000012442863 0.00217927  0.00024835  0.0006841   0.000362261
379    -92.6205366796  -0.000011601436 0.00692393  0.00079827  0.0006885   0.000369763
               *** Restarting incremental Fock matrix formation ***
                             ****Resetting KDIIS****
380    -92.6205780105  -0.000041330910 0.00015558  0.00001936  0.0007063   0.000389100
381    -92.6205793632  -0.000001352659 0.00020517  0.00001905  0.0007086   0.000398783
                          ***Energy convergence achieved***
382    -92.6205789240   0.000000439138 0.00032831  0.00003049  0.0007143   0.000361952
Warning: badly conditioned DIIS matrix, 1 vectors out of 4 destroyed
Warning: badly conditioned DIIS matrix, 1 vectors out of 3 destroyed
383    -92.6205785331   0.000000390987 0.00173252  0.00019090  0.0007236   0.000319560
384    -92.6205871331  -0.000008600016 0.00131063  0.00013903  0.0007035   0.000326073
385    -92.6205949047  -0.000007771615 0.00221970  0.00025836  0.0007276   0.000307129
386    -92.6205809461   0.000013958554 0.00274793  0.00030099  0.0007310   0.000312671
387    -92.6205648728   0.000016073364 0.00478399  0.00055077  0.0007325   0.000323826
388    -92.6205378594   0.000027013393 0.01373716  0.00176289  0.0006940   0.000315030
389    -92.6204740640   0.000063795389 0.01439096  0.00104974  0.0005293   0.000329336
390    -92.6204608063   0.000013257650 0.00901951  0.00100840  0.0007075   0.000348286
391    -92.6204353710   0.000025435311 0.00462267  0.00056564  0.0006191   0.000380931
392    -92.6204456537  -0.000010282628 0.00234140  0.00025704  0.0005220   0.000383241
393    -92.6204392594   0.000006394214 0.01416028  0.00160632  0.0004708   0.000338233
394    -92.6204863700  -0.000047110611 0.00678293  0.00044862  0.0004682   0.000337009
395    -92.6204961835  -0.000009813462 0.02892131  0.00356390  0.0007033   0.000414988
396    -92.6204159965   0.000080187048 0.00069825  0.00007731  0.0002808   0.000210368
                          ***Energy convergence achieved***
397    -92.6204168340  -0.000000837517 0.00021211  0.00002285  0.0002973   0.000212398
398    -92.6204171337  -0.000000299707 0.01127222  0.00124275  0.0003068   0.000212571
399    -92.6204370797  -0.000019945971 0.00134593  0.00007929  0.0002755   0.000176496
               *** Restarting incremental Fock matrix formation ***
                             ****Resetting KDIIS****
                          ***Energy convergence achieved***
400    -92.6204370450   0.000000034660 0.00007386  0.00000901  0.0002828   0.000185739
401    -92.6204373387  -0.000000293720 0.00008729  0.00001034  0.0002837   0.000190504
402    -92.6204372033   0.000000135454 0.00014765  0.00001933  0.0002889   0.000165207
403    -92.6204371825   0.000000020797 0.00056023  0.00006174  0.0002946   0.000137669
404    -92.6204382110  -0.000001028548 0.00079741  0.00009670  0.0003033   0.000127391
405    -92.6204363733   0.000001837763 0.00059497  0.00003632  0.0002956   0.000130530
                          ***Energy convergence achieved***
406    -92.6204364991  -0.000000125810 0.00254836  0.00030222  0.0003001   0.000129567
407    -92.6204312723   0.000005226807 0.00864627  0.00092829  0.0002624   0.000128779
408    -92.6204191298   0.000012142469 0.01488405  0.00177593  0.0001838   0.000131673
409    -92.6204088324   0.000010297363 0.00060747  0.00006328  0.0000517   0.000039593
                          ***Energy convergence achieved***
410    -92.6204089108  -0.000000078344 0.00028248  0.00002392  0.0000528   0.000032826
411    -92.6204089166  -0.000000005826 0.00048401  0.00004978  0.0000383   0.000031093
412    -92.6204088935   0.000000023093 0.00084037  0.00005076  0.0000579   0.000040149
413    -92.6204088471   0.000000046418 0.00027496  0.00002528  0.0000292   0.000019196
414    -92.6204088709  -0.000000023772 0.00049425  0.00004277  0.0000358   0.000021052
415    -92.6204088343   0.000000036570 0.00017548  0.00001350  0.0000287   0.000018018
416    -92.6204088380  -0.000000003716 0.00034746  0.00003857  0.0000252   0.000019376
417    -92.6204088641  -0.000000026129 0.00088763  0.00009334  0.0000209   0.000016817
418    -92.6204089746  -0.000000110507 0.00054074  0.00005802  0.0000256   0.000019917
419    -92.6204089005   0.000000074132 0.00031749  0.00003377  0.0000248   0.000019203
               *** Restarting incremental Fock matrix formation ***
                             ****Resetting KDIIS****

            ***Energy convergence in two consecutive cycles with***
                    ***'reasonable' density convergence***
                       *** signaling convergence ***

                    *** KDIIS BlockDiag ( 0.000 sec) ***

               *****************************************************
               *                     SUCCESS                       *
               *           SCF CONVERGED AFTER 420 CYCLES          *
               *****************************************************

Setting up the final grid:

General Integration Accuracy     IntAcc      ...  4.670
Radial Grid Type                 RadialGrid  ... Gauss-Chebyshev
Angular Grid (max. acc.)         AngularGrid ... Lebedev-302
Angular grid pruning method      GridPruning ... 3 (G Style)
Weight generation scheme         WeightScheme... Becke
Basis function cutoff            BFCut       ...    1.0000e-10
Integration weight cutoff        WCut        ...    1.0000e-14
Grids for H and He will be reduced by one unit

# of grid points (after initial pruning)     ...  15818 (   0.0 sec)
# of grid points (after weights+screening)   ...  15748 (   0.0 sec)
nearest neighbour list constructed           ...    0.0 sec
Grid point re-assignment to atoms done       ...    0.0 sec
Grid point division into batches done        ...    0.1 sec
Reduced shell lists constructed in    0.1 sec

Total number of grid points                  ...    15748
Total number of batches                      ...      248
Average number of points per batch           ...       63
Average number of grid points per atom       ...     5249
Average number of shells per batch           ...     8.61 (61.47%)
Average number of basis functions per batch  ...    18.21 (60.71%)
Average number of large shells per batch     ...     7.17 (83.34%)
Average number of large basis fcns per batch ...    15.41 (84.63%)
Maximum spatial batch extension              ...  20.05, 21.49, 24.37 au
Average spatial batch extension              ...   3.55,  4.23,  4.22 au

Final grid set up in    0.1 sec
Final integration                            ... done (   0.1 sec)
Change in XC energy                          ...     0.000100327
Integrated number of electrons               ...    14.000002889
Previous integrated no of electrons          ...    13.999814836

----------------
TOTAL SCF ENERGY
----------------

Total Energy       :          -92.62030861 Eh           -2520.32673 eV

Components:
Nuclear Repulsion  :            9.33670103 Eh             254.06455 eV
Electronic Energy  :         -101.95700965 Eh           -2774.39128 eV
One Electron Energy:         -143.58844438 Eh           -3907.24021 eV
Two Electron Energy:           41.63143473 Eh            1132.84893 eV

Virial components:
Potential Energy   :         -184.87690100 Eh           -5030.75623 eV
Kinetic Energy     :           92.25659238 Eh            2510.42951 eV
Virial Ratio       :            2.00394244


DFT components:
N(Alpha)           :        7.000001444328 electrons
N(Beta)            :        7.000001444328 electrons
N(Total)           :       14.000002888656 electrons
E(XC)              :       -8.492107676937 Eh       

---------------
SCF CONVERGENCE
---------------

  Last Energy change         ...   -4.1582e-08  Tolerance :   1.0000e-06
  Last MAX-Density change    ...    1.7329e-05  Tolerance :   1.0000e-05
  Last RMS-Density change    ...    1.3833e-06  Tolerance :   1.0000e-06
  Last DIIS Error            ...    2.9281e-05  Tolerance :   1.0000e-06

             **** THE GBW FILE WAS UPDATED (Scan_34.gbw) ****
             **** DENSITY FILE WAS UPDATED (Scan_34.scfp.tmp) ****
             **** ENERGY FILE WAS UPDATED (Scan_34.en.tmp) ****
----------------
ORBITAL ENERGIES
----------------

  NO   OCC          E(Eh)            E(eV) 
   0   2.0000     -14.206812      -386.5870 
   1   2.0000     -10.748344      -292.4773 
   2   2.0000      -1.009802       -27.4781 
   3   2.0000      -0.656530       -17.8651 
   4   2.0000      -0.526782       -14.3345 
   5   2.0000      -0.072796        -1.9809 
   6   2.0000      -0.064486        -1.7548 
   7   0.0000      -0.282890        -7.6978 
   8   0.0000      -0.282822        -7.6960 
   9   0.0000       0.026343         0.7168 
  10   0.0000       0.186412         5.0725 
  11   0.0000       0.448541        12.2054 
  12   0.0000       0.448680        12.2092 
  13   0.0000       0.491842        13.3837 
  14   0.0000       0.543782        14.7971 
  15   0.0000       0.754809        20.5394 
  16   0.0000       1.030472        28.0406 
  17   0.0000       1.032262        28.0893 
  18   0.0000       1.044008        28.4089 
  19   0.0000       1.117551        30.4101 
  20   0.0000       1.474972        40.1360 
  21   0.0000       1.475029        40.1376 
  22   0.0000       1.491198        40.5776 
  23   0.0000       1.491781        40.5934 
  24   0.0000       1.941351        52.8268 
  25   0.0000       2.088366        56.8273 
  26   0.0000       2.090035        56.8727 
  27   0.0000       2.092399        56.9371 
  28   0.0000       2.128822        57.9282 
  29   0.0000       2.128884        57.9299 

                    ********************************
                    * MULLIKEN POPULATION ANALYSIS *
                    ********************************

-----------------------
MULLIKEN ATOMIC CHARGES
-----------------------
   0 C :    0.681370
   1 N :   -0.886912
   2 H :    0.205542
Sum of atomic charges:   -0.0000000

--------------------------------
MULLIKEN REDUCED ORBITAL CHARGES
--------------------------------
  0 C s       :     3.963270  s :     3.963270
      pz      :     0.000159  p :     1.337974
      px      :     1.336284
      py      :     0.001531
      dz2     :     0.004346  d :     0.017387
      dxz     :     0.000000
      dyz     :     0.000000
      dx2y2   :     0.012991
      dxy     :     0.000049
  1 N s       :     3.998872  s :     3.998872
      pz      :     1.999833  p :     3.887805
      px      :     0.398000
      py      :     1.489973
      dz2     :     0.000071  d :     0.000235
      dxz     :     0.000007
      dyz     :     0.000001
      dx2y2   :     0.000059
      dxy     :     0.000098
  2 H s       :     0.794458  s :     0.794458


                     *******************************
                     * LOEWDIN POPULATION ANALYSIS *
                     *******************************

----------------------
LOEWDIN ATOMIC CHARGES
----------------------
   0 C :    0.739447
   1 N :   -0.884786
   2 H :    0.145339

-------------------------------
LOEWDIN REDUCED ORBITAL CHARGES
-------------------------------
  0 C s       :     3.799762  s :     3.799762
      pz      :     0.000148  p :     1.437500
      px      :     1.435759
      py      :     0.001593
      dz2     :     0.005822  d :     0.023291
      dxz     :     0.000000
      dyz     :     0.000000
      dx2y2   :     0.017404
      dxy     :     0.000065
  1 N s       :     3.998933  s :     3.998933
      pz      :     1.999844  p :     3.885619
      px      :     0.395917
      py      :     1.489858
      dz2     :     0.000071  d :     0.000234
      dxz     :     0.000007
      dyz     :     0.000001
      dx2y2   :     0.000059
      dxy     :     0.000098
  2 H s       :     0.854661  s :     0.854661


                      *****************************
                      * MAYER POPULATION ANALYSIS *
                      *****************************

  NA   - Mulliken gross atomic population
  ZA   - Total nuclear charge
  QA   - Mulliken gross atomic charge
  VA   - Mayer's total valence
  BVA  - Mayer's bonded valence
  FA   - Mayer's free valence

  ATOM       NA         ZA         QA         VA         BVA        FA
  0 C      5.3186     6.0000     0.6814     0.7429     0.7429    -0.0000
  1 N      7.8869     7.0000    -0.8869     0.2138     0.2138    -0.0000
  2 H      0.7945     1.0000     0.2055     0.9236     0.9236    -0.0000

  Mayer bond orders larger than 0.1
B(  0-C ,  2-H ) :   0.7264 B(  1-N ,  2-H ) :   0.1972 

-------
TIMINGS
-------

Total SCF time: 0 days 0 hours 1 min 51 sec 

Total time                  ....     111.086 sec
Sum of individual times     ....     107.725 sec  ( 97.0%)

Fock matrix formation       ....     107.346 sec  ( 96.6%)
  XC integration            ....      19.044 sec  ( 17.7% of F)
    Basis function eval.    ....       4.306 sec  ( 22.6% of XC)
    Density eval.           ....       0.847 sec  (  4.4% of XC)
    XC-Functional eval.     ....       5.202 sec  ( 27.3% of XC)
    XC-Potential eval.      ....       0.463 sec  (  2.4% of XC)
Diagonalization             ....       0.113 sec  (  0.1%)
Density matrix formation    ....       0.004 sec  (  0.0%)
Population analysis         ....       0.009 sec  (  0.0%)
Initial guess               ....       0.108 sec  (  0.1%)
Orbital Transformation      ....       0.000 sec  (  0.0%)
Orbital Orthonormalization  ....       0.000 sec  (  0.0%)
DIIS solution               ....       0.000 sec  (  0.0%)
Grid generation             ....       0.145 sec  (  0.1%)


-------------------------------------------------------------------------------
                          DFT DISPERSION CORRECTION                            
                                                                               
                              DFTD3 V3.1  Rev 1                                
                              USING zero damping                               
-------------------------------------------------------------------------------
The omegaB97X-D3 functional is recognized. Fit by Chai et al.
Active option DFTDOPT                   ...         3   

molecular C6(AA) [au] = 177.240166 


            DFT-D V3
 parameters
 s6 scaling factor         :     1.0000 
 rs6 scaling factor        :     1.2810 
 s8 scaling factor         :     1.0000 
 rs8 scaling factor        :     1.0940 
 Damping factor alpha6     :    14.0000 
 Damping factor alpha8     :    16.0000 
 ad hoc parameters k1-k3   :    16.0000     1.3333    -4.0000 

 Edisp/kcal,au: -0.125841317449  -0.000200540883 
 E6   /kcal   :  -0.066517016 
 E8   /kcal   :  -0.059324302 
 % E8         :  47.142149319 

-------------------------   ----------------
Dispersion correction           -0.000200541
-------------------------   ----------------


-------------------------   --------------------
FINAL SINGLE POINT ENERGY       -92.620509155579
-------------------------   --------------------


                            ***************************************
                            *     ORCA property calculations      *
                            ***************************************

                                    ---------------------
                                    Active property flags
                                    ---------------------
   (+) Dipole Moment


------------------------------------------------------------------------------
                       ORCA ELECTRIC PROPERTIES CALCULATION
------------------------------------------------------------------------------

Dipole Moment Calculation                       ... on
Quadrupole Moment Calculation                   ... off
Polarizability Calculation                      ... off
GBWName                                         ... Scan_34.gbw
Electron density file                           ... Scan_34.scfp.tmp

-------------
DIPOLE MOMENT
-------------
                                X             Y             Z
Electronic contribution:     -4.10075      -0.14217      -0.00000
Nuclear contribution   :     -2.87573      -0.08493       0.00000
                        -----------------------------------------
Total Dipole Moment    :     -6.97648      -0.22710      -0.00000
                        -----------------------------------------
Magnitude (a.u.)       :      6.98018
Magnitude (Debye)      :     17.74220


Timings for individual modules:

Sum of individual times         ...      111.409 sec (=   1.857 min)
GTO integral calculation        ...        0.300 sec (=   0.005 min)   0.3 %
SCF iterations                  ...      111.109 sec (=   1.852 min)  99.7 %
                             ****ORCA TERMINATED NORMALLY****
TOTAL RUN TIME: 0 days 0 hours 1 minutes 51 seconds 731 msec
