
                                 *****************
                                 * O   R   C   A *
                                 *****************

           --- An Ab Initio, DFT and Semiempirical electronic structure package ---

                  #######################################################
                  #                        -***-                        #
                  #  Department of molecular theory and spectroscopy    #
                  #              Directorship: Frank Neese              #
                  # Max Planck Institute for Chemical Energy Conversion #
                  #                  D-45470 Muelheim/Ruhr              #
                  #                       Germany                       #
                  #                                                     #
                  #                  All rights reserved                #
                  #                        -***-                        #
                  #######################################################


                         Program Version 4.0.0.2 - RELEASE -


 With contributions from (in alphabetic order):
   Daniel Aravena         : Magnetic Properties
   Michael Atanasov       : Ab Initio Ligand Field Theory
   Ute Becker             : Parallelization
   Martin Brehm           : Molecular dynamics
   Dmytro Bykov           : SCF Hessian
   Vijay G. Chilkuri      : MRCI spin determinant printing
   Dipayan Datta          : RHF DLPNO-CCSD density
   Achintya Kumar Dutta   : EOM-CC, STEOM-CC
   Dmitry Ganyushin       : Spin-Orbit,Spin-Spin,Magnetic field MRCI
   Yang Guo               : DLPNO-NEVPT2, CIM, IAO-localization
   Andreas Hansen         : Spin unrestricted coupled pair/coupled cluster methods
   Lee Huntington         : MR-EOM, pCC
   Robert Izsak           : Overlap fitted RIJCOSX, COSX-SCS-MP3, EOM
   Christian Kollmar      : KDIIS, OOCD, Brueckner-CCSD(T), CCSD density
   Simone Kossmann        : Meta GGA functionals, TD-DFT gradient, OOMP2, MP2 Hessian
   Martin Krupicka        : AUTO-CI
   Dagmar Lenk            : GEPOL surface
   Dimitrios Liakos       : Extrapolation schemes; parallel MDCI
   Dimitrios Manganas     : ROCIS; embedding schemes
   Dimitrios Pantazis     : SARC Basis sets
   Taras Petrenko         : DFT Hessian,TD-DFT gradient, ASA, ECA, R-Raman, ABS, FL, XAS/XES, NRVS
   Peter Pinski           : DLPNO-MP2
   Christoph Reimann      : Effective Core Potentials
   Marius Retegan         : Local ZFS, SOC
   Christoph Riplinger    : Optimizer, TS searches, QM/MM, DLPNO-CCSD(T), (RO)-DLPNO pert. Triples
   Tobias Risthaus        : Range-separated hybrids, TD-DFT gradient, RPA, STAB
   Michael Roemelt        : Restricted open shell CIS
   Masaaki Saitow         : Open-shell DLPNO
   Barbara Sandhoefer     : DKH picture change effects
   Kantharuban Sivalingam : CASSCF convergence, NEVPT2, FIC-MRCI
   Georgi Stoychev        : AutoAux
   Boris Wezisla          : Elementary symmetry handling
   Frank Wennmohs         : Technical directorship


 We gratefully acknowledge several colleagues who have allowed us to
 interface, adapt or use parts of their codes:
   Stefan Grimme, W. Hujo, H. Kruse,             : VdW corrections, initial TS optimization,
                  C. Bannwarth                     DFT functionals, gCP, sTDA/sTD-DF
   Ed Valeev                                     : LibInt (2-el integral package), F12 methods
   Garnet Chan, S. Sharma, J. Yang, R. Olivares  : DMRG
   Ulf Ekstrom                                   : XCFun DFT Library
   Mihaly Kallay                                 : mrcc  (arbitrary order and MRCC methods)
   Jiri Pittner, Ondrej Demel                    : Mk-CCSD
   Frank Weinhold                                : gennbo (NPA and NBO analysis)
   Christopher J. Cramer and Donald G. Truhlar   : smd solvation model


 Your calculation uses the libint2 library for the computation of 2-el integrals
 For citations please refer to: http://libint.valeyev.net

 This ORCA versions uses:
   CBLAS   interface :  Fast vector & matrix operations
   LAPACKE interface :  Fast linear algebra routines
   SCALAPACK package :  Parallel linear algebra routines


Your calculation utilizes the atom-pairwise dispersion correction
with the zero-damping scheme (D30)
Cite in your paper:
S.Grimme, J.Antony, S.Ehrlich and H.Krieg, J.Chem.Phys., 132, (2010), 154104 
   

XCFun DFT library Copyright 2009-2010 Ulf Ekstrom and contributors.
See http://admol.org/xcfun for more information. This is free soft-
ware; see the source code for copying conditions. There is ABSOLUTELY
NO WARRANTY; not even for MERCHANTABILITY or FITNESS FOR A PARTICULAR
PURPOSE. For details see the documentation. Scientific users of this 
library should cite U. Ekstrom, L. Visscher, R. Bast, A. J. Thorvald-
sen and K. Ruud; J.Chem.Theor.Comp. 2010, DOI: 10.1021/ct100117s
XCFun Version 0.99 
Your calculation utilizes the basis: 6-31G(d)
   H-He, Li-Ne : W. J. Hehre, R. Ditchfield and J.A. Pople, J. Chem. Phys. 56, 2257 (1972).
                 Note: He and Ne are unpublished basis sets taken from the Gaussian program.
                 Note: Li and B from J. D. Dill and J. A. Pople, J. Chem. Phys. 62, 2921 (1975).
   Na - Ar     : M. M. Francl, W. J. Pietro, W. J. Hehre, J. S. Binkley, M. S. Gordon, 
                 D. J. DeFrees and J. A. Pople, J. Chem. Phys. 77, 3654 (1982).
   K - Zn      : V. A. Rassolov, J. A. Pople, M. A. Ratner, and T. L. Windus, J. Chem. Phys. 109, 1223 (1998).

================================================================================
                                        WARNINGS
                       Please study these warnings very carefully!
================================================================================

Warning: TCutStore was < 0. Adjusted to Thresh (uncritical)

INFO   : the flag for use of LIBINT has been found!

================================================================================
                                       INPUT FILE
================================================================================
NAME = initial35.inp
|  1> ! WB97X-D3 6-31G(d) VerySlowConv
|  2> ! KDIIS NOSOSCF
|  3> %base "Scan_35"
|  4> 
|  5> %scf
|  6> maxiter 2999
|  7> end
|  8> 
|  9> * xyz 0 1
| 10> C         -4.435045674325    0.372594174296    0.000000000000
| 11> N         -0.459380815627    0.490085571449    0.000000000000
| 12> H         -5.545353510048    0.339850254256    0.000000000000
| 13> *
| 14> 
| 15>                          ****END OF INPUT****
================================================================================

                       ****************************
                       * Single Point Calculation *
                       ****************************

---------------------------------
CARTESIAN COORDINATES (ANGSTROEM)
---------------------------------
  C     -4.435046    0.372594    0.000000
  N     -0.459381    0.490086    0.000000
  H     -5.545354    0.339850    0.000000

----------------------------
CARTESIAN COORDINATES (A.U.)
----------------------------
  NO LB      ZA    FRAG     MASS         X           Y           Z
   0 C     6.0000    0    12.011   -8.381022    0.704101    0.000000
   1 N     7.0000    0    14.007   -0.868104    0.926128    0.000000
   2 H     1.0000    0     1.008  -10.479199    0.642224    0.000000

--------------------------------
INTERNAL COORDINATES (ANGSTROEM)
--------------------------------
 C      0   0   0     0.000000000000     0.00000000     0.00000000
 N      1   0   0     3.977400570359     0.00000000     0.00000000
 H      1   2   0     1.110790553780   179.99646261     0.00000000

---------------------------
INTERNAL COORDINATES (A.U.)
---------------------------
 C      0   0   0     0.000000000000     0.00000000     0.00000000
 N      1   0   0     7.516197802880     0.00000000     0.00000000
 H      1   2   0     2.099089938791   179.99646261     0.00000000

---------------------
BASIS SET INFORMATION
---------------------
There are 3 groups of distinct atoms

 Group   1 Type C   : 10s4p1d contracted to 3s2p1d pattern {631/31/1}
 Group   2 Type N   : 10s4p1d contracted to 3s2p1d pattern {631/31/1}
 Group   3 Type H   : 4s contracted to 2s pattern {31}

Atom   0C    basis set group =>   1
Atom   1N    basis set group =>   2
Atom   2H    basis set group =>   3
------------------------------------------------------------------------------
                           ORCA GTO INTEGRAL CALCULATION
------------------------------------------------------------------------------

                         BASIS SET STATISTICS AND STARTUP INFO

 # of primitive gaussian shells          ...   34
 # of primitive gaussian functions       ...   58
 # of contracted shells                  ...   14
 # of contracted basis functions         ...   30
 Highest angular momentum                ...    2
 Maximum contraction depth               ...    6
 Integral package used                   ... LIBINT
 Integral threshhold            Thresh   ...  1.000e-10
 Primitive cut-off              TCut     ...  1.000e-11


------------------------------ INTEGRAL EVALUATION ----------------------------


 * One electron integrals 
 Pre-screening matrix                    ... done
 Shell pair data                         ... done (   0.000 sec)

-------------------------------------------------------------------------------
                                 ORCA SCF
-------------------------------------------------------------------------------

------------
SCF SETTINGS
------------
Hamiltonian:
 Density Functional     Method          .... DFT(GTOs)
 Exchange Functional    Exchange        .... WB97X-D3
 Correlation Functional Correlation     .... WB97X-D3
 Gradients option       PostSCFGGA      .... off
 Hybrid DFT is turned on
   Fraction HF Exchange ScalHFX         ....  0.195728
   Scaling of DF-GGA-X  ScalDFX         ....  0.000000
   Scaling of DF-GGA-C  ScalDFC         ....  1.000000
   Scaling of DF-LDA-C  ScalLDAC        ....  1.000000
   Perturbative correction              ....  0.000000
 Long-range corrected/Screened/Range-Separated Hybrid DFT is turned on
   Amount of maximum screened exact exchange              ....  0.804272
   Range separation parameter mu (erf(mu*r12)/r12)        ....  0.250000


General Settings:
 Integral files         IntName         .... Scan_35
 Hartree-Fock type      HFTyp           .... RHF
 Total Charge           Charge          ....    0
 Multiplicity           Mult            ....    1
 Number of Electrons    NEL             ....   14
 Basis Dimension        Dim             ....   30
 Nuclear Repulsion      ENuc            ....      9.1743206118 Eh

Convergence Acceleration:
 DIIS                   CNVDIIS         .... on
   Start iteration      DIISMaxIt       ....     0
   Startup error        DIISStart       ....  0.200000
   # of expansion vecs  DIISMaxEq       ....     5
   Bias factor          DIISBfac        ....   1.050
   Max. coefficient     DIISMaxC        ....  10.000
 Newton-Raphson         CNVNR           .... off
 SOSCF                  CNVSOSCF        .... off
 Level Shifting         CNVShift        .... off
 Zerner damping         CNVZerner       .... off
 Static damping         CNVDamp         .... off
 Fernandez-Rico         CNVRico         .... off

SCF Procedure:
 Maximum # iterations   MaxIter         ....  2999
 SCF integral mode      SCFMode         .... Direct
   Integral package                     .... LIBINT
 Reset frequeny         DirectResetFreq ....    20
 Integral Threshold     Thresh          ....  1.000e-10 Eh
 Primitive CutOff       TCut            ....  1.000e-11 Eh

Convergence Tolerance:
 Convergence Check Mode ConvCheckMode   .... All-Criteria
 Convergence forced     ConvForced      .... 0
 Energy Change          TolE            ....  1.000e-06 Eh
 Max Density Change     TolMaxP         ....  1.000e-05
 RMS Density Change     TolRMSP         ....  1.000e-06
 DIIS Error             TolErr          ....  1.000e-06


Diagonalization of the overlap matrix:
Smallest eigenvalue                        ... 4.839e-02
Time for diagonalization                   ...    0.001 sec
Threshold for overlap eigenvalues          ... 1.000e-08
Number of eigenvalues below threshold      ... 0
Time for construction of square roots      ...    0.004 sec
Total time needed                          ...    0.005 sec

-------------------
DFT GRID GENERATION
-------------------

General Integration Accuracy     IntAcc      ...  4.340
Radial Grid Type                 RadialGrid  ... Gauss-Chebyshev
Angular Grid (max. acc.)         AngularGrid ... Lebedev-110
Angular grid pruning method      GridPruning ... 3 (G Style)
Weight generation scheme         WeightScheme... Becke
Basis function cutoff            BFCut       ...    1.0000e-10
Integration weight cutoff        WCut        ...    1.0000e-14
Grids for H and He will be reduced by one unit

# of grid points (after initial pruning)     ...   4152 (   0.0 sec)
# of grid points (after weights+screening)   ...   4117 (   0.0 sec)
nearest neighbour list constructed           ...    0.0 sec
Grid point re-assignment to atoms done       ...    0.0 sec
Grid point division into batches done        ...    0.0 sec
Reduced shell lists constructed in    0.0 sec

Total number of grid points                  ...     4117
Total number of batches                      ...       67
Average number of points per batch           ...       61
Average number of grid points per atom       ...     1372
Average number of shells per batch           ...     9.75 (69.64%)
Average number of basis functions per batch  ...    20.69 (68.97%)
Average number of large shells per batch     ...     8.18 (83.86%)
Average number of large basis fcns per batch ...    17.65 (85.29%)
Maximum spatial batch extension              ...  17.96, 25.60, 31.36 au
Average spatial batch extension              ...   4.53,  6.80,  7.18 au

Time for grid setup =    0.026 sec

------------------------------
INITIAL GUESS: MODEL POTENTIAL
------------------------------
Loading Hartree-Fock densities                     ... done
Calculating cut-offs                               ... done
Setting up the integral package                    ... done
Initializing the effective Hamiltonian             ... done
Starting the Coulomb interaction                   ... done (   0.0 sec)
Reading the grid                                   ... done
Mapping shells                                     ... done
Starting the XC term evaluation                    ... done (   0.0 sec)
  promolecular density results
     # of electrons  =     13.997197549
     EX              =    -11.613867690
     EC              =     -0.388774842
     EX+EC           =    -12.002642532
Transforming the Hamiltonian                       ... done (   0.0 sec)
Diagonalizing the Hamiltonian                      ... done (   0.0 sec)
Back transforming the eigenvectors                 ... done (   0.0 sec)
Now organizing SCF variables                       ... done
                      ------------------
                      INITIAL GUESS DONE (   0.1 sec)
                      ------------------
--------------
SCF ITERATIONS
--------------
ITER       Energy         Delta-E        Max-DP      RMS-DP      [F,P]   Gradient Norm
               ***  Starting incremental Fock matrix formation  ***
                             ****Resetting KDIIS****
                             ****Turning on KDIIS(Cayley)****
  0    -92.5217841130   0.000000000000 0.04795770  0.00351838  0.1513793   0.112264661
  1    -92.5525314955  -0.030747382527 0.03786318  0.00389152  0.1248673   0.094007419
  2    -92.5792266534  -0.026695157930 0.05846775  0.00577035  0.0998293   0.075496273
  3    -92.6090416112  -0.029814957771 0.08961611  0.00989079  0.0598501   0.045974693
  4    -92.6260445270  -0.017002915785 0.01424510  0.00099984  0.0105889   0.004619234
  5    -92.6257483383   0.000296188700 0.19997582  0.01267298  0.0104250   0.004872464
  6    -92.6221750364   0.003573301883 0.12131930  0.00757436  0.0071837   0.005525003
  7    -92.6210528276   0.001122208784 0.05126047  0.00362380  0.0085332   0.005407269
  8    -92.6215085112  -0.000455683558 0.24828579  0.01865533  0.0080245   0.003583405
  9    -92.6198508665   0.001657644716 0.51923005  0.03427906  0.0062012   0.005167260
 10    -92.6240320468  -0.004181180364 1.47885109  0.08845638  0.0076897   0.004260588
 11    -92.5843645040   0.039667542779 1.27855227  0.06564688  0.0799656   0.038994592
 12    -92.6205140453  -0.036149541278 0.38164437  0.02215703  0.0019674   0.001585394
 13    -92.6166198789   0.003894166434 0.23206888  0.01286653  0.0168398   0.010506180
 14    -92.6195981161  -0.002978237174 0.09148126  0.00569621  0.0064279   0.004441943
 15    -92.6202168323  -0.000618716218 0.07027654  0.00449546  0.0055278   0.004291533
 16    -92.6198493382   0.000367494082 0.00775130  0.00044735  0.0051939   0.002825504
 17    -92.6199174369  -0.000068098680 0.04724314  0.00285666  0.0048430   0.002379459
 18    -92.6201847642  -0.000267327321 0.12254466  0.00808559  0.0037247   0.001933155
 19    -92.6206944338  -0.000509669634 0.07124820  0.00528129  0.0018363   0.000972765
               *** Restarting incremental Fock matrix formation ***
                             ****Resetting KDIIS****
 20    -92.6209454450  -0.000251011131 0.00129670  0.00009477  0.0017320   0.001031059
 21    -92.6209522654  -0.000006820382 0.00427020  0.00030791  0.0017145   0.000928204
 22    -92.6209707574  -0.000018492048 0.00379894  0.00027534  0.0017155   0.000867952
 23    -92.6209577142   0.000013043197 0.00948604  0.00068719  0.0016754   0.000798128
 24    -92.6209238603   0.000033853868 0.57261117  0.03434476  0.0016086   0.000757675
Warning: badly conditioned DIIS matrix, 1 vectors out of 5 destroyed
Warning: badly conditioned DIIS matrix, 1 vectors out of 4 destroyed
 25    -92.6155023656   0.005421494695 0.61146326  0.03775851  0.0197164   0.010591431
 26    -92.6211330427  -0.005630677037 0.00718089  0.00049655  0.0020432   0.001205300
 27    -92.6211670778  -0.000034035088 0.02768182  0.00192789  0.0021158   0.001235296
 28    -92.6210434398   0.000123637938 0.02205271  0.00157800  0.0018609   0.001070738
Warning: badly conditioned DIIS matrix, 1 vectors out of 5 destroyed
 29    -92.6209525011   0.000090938708 0.23253446  0.01617418  0.0017243   0.000966707
 30    -92.6198028349   0.001149666203 0.06804251  0.00401708  0.0051250   0.003255403
 31    -92.6192604639   0.000542371024 0.30686051  0.02071917  0.0072898   0.004456446
 32    -92.6209935877  -0.001733123783 0.14675472  0.01106410  0.0017655   0.000983235
 33    -92.6203405059   0.000653081739 0.00382136  0.00035004  0.0028370   0.001751825
 34    -92.6203293500   0.000011155965 0.05631147  0.00386593  0.0027398   0.001478349
 35    -92.6205781324  -0.000248782458 0.00990482  0.00069912  0.0019605   0.001042700
 36    -92.6205383442   0.000039788254 0.13823221  0.00884414  0.0020616   0.001082771
 37    -92.6198140798   0.000724264394 0.16143728  0.01041934  0.0050371   0.003022493
 38    -92.6205834805  -0.000769400721 0.07087776  0.00738299  0.0017939   0.000951108
 39    -92.6210795831  -0.000496102547 0.13447483  0.01153790  0.0018419   0.001266443
               *** Restarting incremental Fock matrix formation ***
                             ****Resetting KDIIS****
 40    -92.6215560583  -0.000476475251 0.00210613  0.00013892  0.0029094   0.002009848
 41    -92.6215733826  -0.000017324339 0.00463017  0.00030185  0.0027632   0.001856811
 42    -92.6216082275  -0.000034844835 0.00673447  0.00044351  0.0028115   0.001620969
 43    -92.6215799906   0.000028236910 0.03095078  0.00200137  0.0027080   0.001355412
 44    -92.6214291821   0.000150808425 0.15906393  0.01122653  0.0023319   0.001250088
 45    -92.6207897432   0.000639438961 0.22002165  0.01505314  0.0024427   0.001816488
 46    -92.6217426646  -0.000952921375 0.05994791  0.00382521  0.0031961   0.001700410
 47    -92.6214267208   0.000315943738 0.23279555  0.01707926  0.0023290   0.001171109
 48    -92.6204620454   0.000964675397 0.16856279  0.01184206  0.0036985   0.002119408
 49    -92.6211059356  -0.000643890195 0.01507549  0.00106686  0.0019197   0.001398504
 50    -92.6211724220  -0.000066486410 0.03878749  0.00274772  0.0019438   0.001482945
 51    -92.6210218536   0.000150568472 0.04539630  0.00346326  0.0019503   0.001449182
 52    -92.6212598553  -0.000238001774 0.23058443  0.01452068  0.0018784   0.001166098
 53    -92.6225890059  -0.001329150546 0.46847879  0.03243539  0.0053484   0.003325868
 54    -92.6197296314   0.002859374458 0.04221184  0.00248069  0.0069348   0.004621764
 55    -92.6200530863  -0.000323454916 0.01093379  0.00066771  0.0056389   0.003967194
 56    -92.6201230052  -0.000069918905 0.25888436  0.01462753  0.0053416   0.003856100
 57    -92.6172983257   0.002824679556 0.52046305  0.03372905  0.0155082   0.008982949
 58    -92.6213390821  -0.004040756420 0.08655305  0.00601287  0.0021765   0.001313758
 59    -92.6210808840   0.000258198094 0.02072630  0.00186069  0.0017887   0.000866398
               *** Restarting incremental Fock matrix formation ***
                             ****Resetting KDIIS****
 60    -92.6209680933   0.000112790746 0.00138169  0.00010319  0.0017379   0.000756063
 61    -92.6209739183  -0.000005825083 0.00209137  0.00015671  0.0017220   0.000745427
 62    -92.6209824352  -0.000008516875 0.00631911  0.00045676  0.0016931   0.000734663
 63    -92.6210034995  -0.000021064312 0.08054750  0.00558979  0.0016937   0.000719739
 64    -92.6213119499  -0.000308450380 0.33070469  0.02283778  0.0020793   0.000963045
 65    -92.6194816317   0.001830318248 0.28990511  0.01916026  0.0072750   0.004269494
 66    -92.6210914560  -0.001609824313 0.06988756  0.00513115  0.0018330   0.001039292
 67    -92.6208238822   0.000267573772 0.41156867  0.02593635  0.0020902   0.001267256
 68    -92.6235505354  -0.002726653212 0.29733273  0.02027942  0.0100738   0.007511299
 69    -92.6268322030  -0.003281667565 1.02735746  0.06633766  0.0283336   0.019656140
 70    -92.6142660639   0.012566139031 0.27795293  0.01470732  0.0233919   0.011918496
 71    -92.6187910976  -0.004525033652 0.50092022  0.02591518  0.0095471   0.004675845
 72    -92.6085780510   0.010213046641 0.65429867  0.03469650  0.0368413   0.017910504
 73    -92.6201590815  -0.011581030503 0.14688020  0.00961992  0.0038037   0.001768652
 74    -92.6208311258  -0.000672044350 0.10815983  0.00721508  0.0026713   0.001947767
 75    -92.6203824368   0.000448689055 0.08362072  0.00504604  0.0034801   0.001559197
 76    -92.6198691103   0.000513326446 0.04978161  0.00295210  0.0055689   0.002569405
 77    -92.6201688168  -0.000299706507 0.00173279  0.00011378  0.0043927   0.002160495
 78    -92.6201706711  -0.000001854291 0.15775440  0.01046496  0.0043872   0.002204467
 79    -92.6209009310  -0.000730259931 0.06613004  0.00465692  0.0019032   0.001140982
               *** Restarting incremental Fock matrix formation ***
                             ****Resetting KDIIS****
 80    -92.6206364091   0.000264521982 0.00227251  0.00015611  0.0025878   0.001382458
 81    -92.6206495885  -0.000013179453 0.00726553  0.00049373  0.0025026   0.001225500
 82    -92.6206837462  -0.000034157725 0.00958514  0.00065915  0.0023847   0.001175553
 83    -92.6207269936  -0.000043247378 0.08034102  0.00596776  0.0022447   0.001156990
 84    -92.6210357792  -0.000308785549 0.17041494  0.01122095  0.0016946   0.000799593
 85    -92.6218500939  -0.000814314779 0.12839716  0.00831886  0.0035895   0.002563794
 86    -92.6211795860   0.000670507986 0.07273250  0.00482524  0.0019806   0.001417404
 87    -92.6215047697  -0.000325183713 0.20741196  0.01469658  0.0027089   0.001795902
 88    -92.6206345860   0.000870183706 0.10570987  0.00669540  0.0027120   0.001873596
 89    -92.6200541984   0.000580387539 0.70816854  0.03718960  0.0050651   0.003250393
 90    -92.6061908153   0.013863383129 0.92545935  0.05157384  0.0422002   0.021673090
 91    -92.6211085939  -0.014917778573 0.01187999  0.00083718  0.0017866   0.000815879
 92    -92.6210699773   0.000038616594 0.01141680  0.00081105  0.0017711   0.000818417
 93    -92.6210318653   0.000038111997 0.02194696  0.00155006  0.0017744   0.000857868
 94    -92.6211081032  -0.000076237945 0.02588912  0.00179584  0.0018129   0.000892315
 95    -92.6212065816  -0.000098478355 0.23836764  0.01681379  0.0019533   0.001042021
 96    -92.6200806037   0.001125977852 0.15916836  0.01042474  0.0049589   0.003008501
 97    -92.6208621658  -0.000781562069 0.24517172  0.01542882  0.0020756   0.001512263
 98    -92.6193610783   0.001501087531 0.41050603  0.03037508  0.0078135   0.004728603
 99    -92.6219533149  -0.002592236628 0.01132468  0.00070442  0.0038573   0.002700133
               *** Restarting incremental Fock matrix formation ***
                             ****Resetting KDIIS****
100    -92.6218806855   0.000072629368 0.00282320  0.00018021  0.0036508   0.002384223
101    -92.6219113666  -0.000030681118 0.00649806  0.00040643  0.0036900   0.002146678
102    -92.6219732045  -0.000061837838 0.03777164  0.00235104  0.0037954   0.001855298
103    -92.6217278984   0.000245306110 0.08983988  0.00581406  0.0031302   0.001569474
104    -92.6212597805   0.000468117831 0.21512300  0.01562193  0.0021424   0.001719913
105    -92.6202704096   0.000989370891 0.46201488  0.03050111  0.0045012   0.003222923
106    -92.6230600697  -0.002789660093 0.26927968  0.01665857  0.0071914   0.005574252
107    -92.6211937266   0.001866343182 0.07401084  0.00488557  0.0025591   0.001958368
108    -92.6215276741  -0.000333947530 0.40640428  0.02829534  0.0027462   0.002158558
109    -92.6188490092   0.002678664845 0.02025929  0.00112359  0.0100987   0.007032994
110    -92.6186232143   0.000225794914 0.66999752  0.03407834  0.0108980   0.007400632
111    -92.6007939847   0.017829229618 1.12971367  0.06659704  0.0528549   0.028533980
112    -92.6220365378  -0.021242553059 1.87710591  0.10723595  0.0047054   0.003692430
113    -92.5509054070   0.071131130730 1.74455542  0.09013251  0.1244166   0.093197674
114    -92.6261467524  -0.075241345353 0.41572333  0.02560000  0.0234640   0.016334250
115    -92.6217755054   0.004371246989 0.07109872  0.00437658  0.0047399   0.003520482
116    -92.6223271751  -0.000551669695 0.22316876  0.01424136  0.0065831   0.004747134
117    -92.6210745062   0.001252668893 0.03422855  0.00244861  0.0031740   0.002460236
118    -92.6209551325   0.000119373717 0.03145702  0.00228652  0.0032029   0.002532266
119    -92.6210295086  -0.000074376084 0.09379464  0.00632392  0.0042255   0.003129971
               *** Restarting incremental Fock matrix formation ***
                             ****Resetting KDIIS****
120    -92.6214266855  -0.000397176967 0.00193531  0.00013680  0.0032617   0.002569506
121    -92.6214516311  -0.000024945538 0.00573386  0.00037604  0.0026645   0.002216019
122    -92.6214980160  -0.000046384919 0.00349035  0.00025745  0.0026812   0.001881933
123    -92.6214961195   0.000001896463 0.01456460  0.00095264  0.0025975   0.001455688
124    -92.6214402374   0.000055882164 0.16877595  0.01191787  0.0023608   0.001079299
125    -92.6207481277   0.000692109711 0.02828552  0.00191457  0.0024901   0.001858423
126    -92.6206293188   0.000118808812 0.08655130  0.00620448  0.0028986   0.002042152
127    -92.6209897379  -0.000360419009 0.26004114  0.01672451  0.0019040   0.001256936
128    -92.6195170562   0.001472681642 0.32498212  0.02229680  0.0074305   0.004469912
129    -92.6213000288  -0.001782972592 0.03888578  0.00264526  0.0021374   0.001291490
130    -92.6211511974   0.000148831413 1.78752686  0.09134581  0.0018901   0.001125280
131    -92.5606735151   0.060477682327 1.22430324  0.05912960  0.1107597   0.053077113
132    -92.6158981924  -0.055224677321 0.08384404  0.00442216  0.0192394   0.010403038
133    -92.6173598017  -0.001461609322 0.23457363  0.01305336  0.0148394   0.008063727
134    -92.6199384551  -0.002578653413 0.40844479  0.02872594  0.0056513   0.003336919
135    -92.6222378186  -0.002299363436 0.34735835  0.02351753  0.0045071   0.003085043
136    -92.6205422274   0.001695591122 0.43739160  0.02847117  0.0029303   0.001167182
137    -92.6231861509  -0.002643923441 0.13468182  0.00816492  0.0063454   0.004799098
138    -92.6219369454   0.001249205442 0.43066590  0.02683224  0.0037268   0.002043108
139    -92.6267463566  -0.004809411194 0.45380929  0.02809157  0.0237104   0.016546977
               *** Restarting incremental Fock matrix formation ***
                             ****Resetting KDIIS****
140    -92.6217692569   0.004977099697 0.00253448  0.00016341  0.0033016   0.002086087
141    -92.6217947241  -0.000025467171 0.00439287  0.00028394  0.0033302   0.001897216
142    -92.6218371982  -0.000042474146 0.00500219  0.00032958  0.0033826   0.001626872
Warning: badly conditioned DIIS matrix, 1 vectors out of 4 destroyed
143    -92.6218762186  -0.000039020356 0.02084529  0.00129952  0.0034507   0.001407830
144    -92.6220327087  -0.000156490049 0.18205923  0.01182259  0.0038394   0.001670424
145    -92.6210757595   0.000956949182 0.03780674  0.00273560  0.0022572   0.001792964
146    -92.6209396269   0.000136132539 0.04190396  0.00302546  0.0023783   0.001889001
147    -92.6210909790  -0.000151352072 0.63492571  0.03844566  0.0022198   0.001766205
148    -92.6265099583  -0.005418979320 0.78015049  0.04706711  0.0283930   0.019738228
149    -92.6201797600   0.006330198285 0.03956019  0.00286353  0.0073872   0.005494185
150    -92.6206200264  -0.000440266374 0.25365988  0.01769384  0.0026491   0.002016813
151    -92.6216964731  -0.001076446675 0.53802365  0.03609106  0.0030806   0.001741624
152    -92.6178273504   0.003869122730 0.37971411  0.01938662  0.0129442   0.005733115
153    -92.6096405544   0.008186795913 0.17276119  0.00866602  0.0348165   0.016795214
154    -92.6135772023  -0.003936647832 0.61138197  0.03468569  0.0256900   0.013801214
155    -92.6209427906  -0.007365588342 0.04309686  0.00304659  0.0018670   0.000777294
156    -92.6207807979   0.000161992687 0.03874829  0.00256841  0.0022842   0.000948028
157    -92.6206169698   0.000163828154 0.01408318  0.00091491  0.0028967   0.001284312
158    -92.6205413824   0.000075587399 0.02053526  0.00129945  0.0032892   0.001695936
159    -92.6204471069   0.000094275462 0.15366748  0.01061730  0.0036623   0.001793394
               *** Restarting incremental Fock matrix formation ***
                             ****Resetting KDIIS****
160    -92.6210721062  -0.000624999278 0.00148783  0.00011003  0.0018771   0.001312480
161    -92.6210828604  -0.000010754227 0.00227854  0.00016804  0.0018435   0.001195418
162    -92.6210972810  -0.000014420565 0.00408492  0.00030068  0.0017768   0.001001330
163    -92.6211041455  -0.000006864521 0.05315628  0.00367650  0.0017545   0.000843775
164    -92.6213010295  -0.000196884029 0.15417479  0.01128343  0.0019636   0.000855069
165    -92.6206919095   0.000609120040 0.03863758  0.00253539  0.0026650   0.001534306
166    -92.6204734952   0.000218414277 0.13881068  0.00832712  0.0035657   0.002236727
167    -92.6194814713   0.000992023926 0.26224724  0.01685905  0.0075932   0.004622980
168    -92.6210189282  -0.001537456891 0.03266825  0.00236077  0.0018489   0.000965414
169    -92.6211388861  -0.000119957928 0.20906583  0.01343224  0.0018800   0.001148023
170    -92.6222666231  -0.001127736966 0.04843963  0.00296343  0.0045376   0.003617789
171    -92.6218599115   0.000406711554 0.13838886  0.00902122  0.0047903   0.003672767
172    -92.6212210534   0.000638858104 0.06397209  0.00455014  0.0020114   0.001494721
173    -92.6209730523   0.000248001175 0.27328811  0.01769758  0.0024531   0.001919426
174    -92.6224214383  -0.001448386056 0.08899498  0.00546611  0.0059490   0.004616687
175    -92.6217741353   0.000647303027 0.36102184  0.02679899  0.0040044   0.003128097
176    -92.6196529828   0.002121152465 0.22210357  0.01432304  0.0070138   0.004846496
177    -92.6209620167  -0.001309033847 0.09844529  0.00680354  0.0020565   0.001534623
178    -92.6205225037   0.000439512988 0.23683072  0.01700209  0.0034789   0.002517667
179    -92.6215740379  -0.001051534255 0.02286154  0.00147806  0.0027597   0.001986322
               *** Restarting incremental Fock matrix formation ***
                             ****Resetting KDIIS****
180    -92.6214605599   0.000113478060 0.00186611  0.00012592  0.0024761   0.001804174
181    -92.6214761509  -0.000015591064 0.00544962  0.00035812  0.0024711   0.001585909
182    -92.6215104733  -0.000034322362 0.00779587  0.00051523  0.0025090   0.001385461
183    -92.6214806166   0.000029856669 0.04108274  0.00271403  0.0023891   0.001153189
184    -92.6213082974   0.000172319203 0.20410649  0.01489025  0.0019863   0.000975137
185    -92.6203679676   0.000940329866 0.34507512  0.02390430  0.0042217   0.002837164
186    -92.6220830252  -0.001715057679 0.13760851  0.00871172  0.0041012   0.003067691
187    -92.6213306374   0.000752387864 0.12773267  0.00911256  0.0021552   0.001471833
188    -92.6208383385   0.000492298904 0.01254621  0.00090376  0.0024670   0.001984084
189    -92.6208952981  -0.000056959609 0.03832912  0.00284673  0.0022741   0.001762913
190    -92.6210493503  -0.000154052189 0.17923802  0.01206310  0.0019759   0.001475177
191    -92.6201392520   0.000910098247 0.22383686  0.01579429  0.0052249   0.003873602
192    -92.6212581391  -0.001118887093 0.01504720  0.00104281  0.0019616   0.001161404
193    -92.6211994530   0.000058686075 0.02787078  0.00190666  0.0018968   0.001090822
194    -92.6213026792  -0.000103226163 0.05471466  0.00360825  0.0020446   0.001219761
195    -92.6215382059  -0.000235526701 0.04381807  0.00278567  0.0026014   0.001716101
196    -92.6217705135  -0.000232307601 0.24558863  0.01705734  0.0032421   0.002313120
197    -92.6206852934   0.001085220134 0.81825644  0.04381202  0.0030506   0.002399397
198    -92.6055705735   0.015114719900 0.90238293  0.04953897  0.0436680   0.022829811
199    -92.6210533722  -0.015482798690 0.49824228  0.02955750  0.0019143   0.001166626
               *** Restarting incremental Fock matrix formation ***
                             ****Resetting KDIIS****
200    -92.6163488024   0.004704569768 0.02633652  0.00141014  0.0181300   0.010236186
201    -92.6169794088  -0.000630606443 0.04125561  0.00220230  0.0160700   0.008312832
202    -92.6176349325  -0.000655523677 0.09605984  0.00521993  0.0140390   0.007442959
203    -92.6189256743  -0.001290741825 0.11320300  0.00644117  0.0096117   0.004938211
204    -92.6199914051  -0.001065730796 0.19468576  0.01249742  0.0052688   0.002292266
205    -92.6209215709  -0.000930165763 0.01725954  0.00128081  0.0019926   0.001228201
206    -92.6210007654  -0.000079194506 0.01315006  0.00097270  0.0018475   0.001090059
207    -92.6210294677  -0.000028702343 0.02380698  0.00169792  0.0018103   0.000891188
208    -92.6211115708  -0.000082103078 0.04225119  0.00306340  0.0018299   0.000987574
209    -92.6209523371   0.000159233746 0.21114619  0.01402722  0.0019527   0.001209296
210    -92.6219281136  -0.000975776519 0.32595594  0.02297654  0.0037441   0.002708043
211    -92.6203016463   0.001626467267 0.00276718  0.00024391  0.0043315   0.003124742
212    -92.6203285663  -0.000026919994 0.05961374  0.00382983  0.0041689   0.002806714
213    -92.6206476948  -0.000319128481 0.06724809  0.00469836  0.0028602   0.001861704
214    -92.6209228440  -0.000275149190 0.06781786  0.00474577  0.0020563   0.001486368
215    -92.6206393152   0.000283528767 0.17774471  0.01289390  0.0029399   0.002038746
216    -92.6213839239  -0.000744608667 0.03238859  0.00212243  0.0022492   0.001295230
217    -92.6215369221  -0.000152998219 0.04618436  0.00291916  0.0026329   0.001575247
218    -92.6217922217  -0.000255299576 0.21045633  0.01431714  0.0033268   0.002176473
219    -92.6208563732   0.000935848494 0.65519745  0.03700144  0.0021329   0.001317724
               *** Restarting incremental Fock matrix formation ***
                             ****Resetting KDIIS****
220    -92.6122799562   0.008576417028 0.04718792  0.00241389  0.0284096   0.014942107
221    -92.6137339271  -0.001453970928 0.05894124  0.00302331  0.0244605   0.011884325
222    -92.6149942212  -0.001260294060 0.12460193  0.00649621  0.0211480   0.010524278
223    -92.6172726509  -0.002278429723 0.13794169  0.00746706  0.0145005   0.007132998
224    -92.6189950948  -0.001722443930 0.16335668  0.00948892  0.0080654   0.003365542
225    -92.6201452694  -0.001150174628 0.00543179  0.00034334  0.0037214   0.001761709
226    -92.6201250417   0.000020227711 0.07723469  0.00490066  0.0038054   0.001771912
227    -92.6204584952  -0.000333453446 0.08924016  0.00634948  0.0024363   0.001110094
228    -92.6207767662  -0.000318271063 0.03341982  0.00250661  0.0017342   0.001037792
229    -92.6206566427   0.000120123552 0.02874465  0.00213162  0.0019160   0.001153027
230    -92.6207563619  -0.000099719175 0.20295194  0.01356322  0.0017638   0.001132855
231    -92.6216906550  -0.000934293157 0.19573833  0.01302611  0.0037561   0.002833312
232    -92.6207819663   0.000908688683 0.05325688  0.00394479  0.0018226   0.001461396
233    -92.6205783911   0.000203575204 0.01947885  0.00134941  0.0022448   0.001790540
234    -92.6205011080   0.000077283094 0.22362339  0.01360712  0.0025019   0.001939390
235    -92.6190098063   0.001491301736 0.25098959  0.01552139  0.0085185   0.005311005
236    -92.6206364041  -0.001626597831 0.04983625  0.00374938  0.0019820   0.001091824
237    -92.6208247898  -0.000188385638 0.00530112  0.00039751  0.0016832   0.000895399
238    -92.6208073394   0.000017450346 0.43263421  0.02620147  0.0016918   0.000930825
239    -92.6174740578   0.003333281582 0.05209594  0.00276244  0.0137826   0.007425729
               *** Restarting incremental Fock matrix formation ***
                             ****Resetting KDIIS****
240    -92.6166890578   0.000785000015 0.02362187  0.00126455  0.0162508   0.008654263
241    -92.6171777753  -0.000488717518 0.03953565  0.00211666  0.0145212   0.007098228
242    -92.6177437611  -0.000565985727 0.08495065  0.00463599  0.0127475   0.006432771
243    -92.6188398193  -0.001096058192 0.10387531  0.00590175  0.0091416   0.004786444
244    -92.6196944232  -0.000854603978 0.13683235  0.00842698  0.0052462   0.002225837
245    -92.6204102300  -0.000715806806 0.02328830  0.00151516  0.0025052   0.001288910
246    -92.6203157399   0.000094490147 0.11969015  0.00836166  0.0028460   0.001381453
247    -92.6207457515  -0.000430011637 0.07867328  0.00556967  0.0016776   0.000911157
248    -92.6210330183  -0.000287266765 0.23952318  0.01740194  0.0020245   0.001190152
249    -92.6199548760   0.001078142308 0.01828929  0.00110768  0.0044199   0.002765344
250    -92.6198387531   0.000116122873 0.01896413  0.00114836  0.0049064   0.003035436
251    -92.6197453154   0.000093437709 0.04772009  0.00286799  0.0053187   0.003010682
252    -92.6200403347  -0.000295019268 0.05571805  0.00353259  0.0040491   0.002314228
253    -92.6203377994  -0.000297464754 0.07502840  0.00513239  0.0028027   0.001454643
254    -92.6206354045  -0.000297605037 0.18772224  0.01300263  0.0018267   0.000919841
255    -92.6214082086  -0.000772804120 0.26172259  0.01898664  0.0030221   0.002158834
256    -92.6202291806   0.001179027970 1.83743943  0.09063647  0.0033206   0.002364310
257    -92.5465296220   0.073699558664 1.76050309  0.08620498  0.1259576   0.059732609
258    -92.6197907438  -0.073261121837 0.08134560  0.00468783  0.0051957   0.003295816
259    -92.6191539644   0.000636779379 0.24834445  0.01556375  0.0077862   0.004785181
               *** Restarting incremental Fock matrix formation ***
                             ****Resetting KDIIS****
260    -92.6206509744  -0.001497010019 0.00137207  0.00010687  0.0017797   0.001166965
261    -92.6206648129  -0.000013838513 0.00097251  0.00008902  0.0019524   0.001223808
262    -92.6206602746   0.000004538376 0.00601775  0.00045557  0.0017022   0.001084589
263    -92.6206697376  -0.000009463074 0.04383353  0.00330896  0.0016781   0.000870716
264    -92.6208370907  -0.000167353088 0.01331221  0.00098791  0.0015871   0.000796345
265    -92.6207817120   0.000055378730 0.10501138  0.00736586  0.0015667   0.000714232
266    -92.6212350856  -0.000453373568 0.49509229  0.03272785  0.0023532   0.001168285
267    -92.6176287295   0.003606356046 0.44449494  0.02796867  0.0128575   0.007261669
268    -92.6209076014  -0.003278871856 0.13032322  0.00971821  0.0017598   0.001096460
269    -92.6203610722   0.000546529212 0.03013587  0.00198245  0.0027368   0.001772128
270    -92.6202006399   0.000160432229 0.18219122  0.01367013  0.0033783   0.002298438
271    -92.6210310385  -0.000830398590 0.03979077  0.00272374  0.0019363   0.001147794
272    -92.6212234601  -0.000192421531 0.53728285  0.03491023  0.0023379   0.001337825
273    -92.6168966415   0.004326818536 0.29881237  0.01710833  0.0151351   0.008553299
274    -92.6200344926  -0.003137851046 0.09455015  0.00618334  0.0040019   0.002507651
275    -92.6204951163  -0.000460623760 0.10353102  0.00791166  0.0022867   0.001621044
276    -92.6209466373  -0.000451520995 0.01468596  0.00110199  0.0017906   0.001054095
277    -92.6210260339  -0.000079396605 0.04666517  0.00331597  0.0018511   0.000906586
278    -92.6208505868   0.000175447099 0.03529673  0.00259300  0.0016799   0.000831094
279    -92.6207360201   0.000114566763 0.02144546  0.00158804  0.0018746   0.001176686
               *** Restarting incremental Fock matrix formation ***
                             ****Resetting KDIIS****
280    -92.6208067961  -0.000070776084 0.00127593  0.00009704  0.0017681   0.001105190
281    -92.6208141719  -0.000007375730 0.00331160  0.00025259  0.0017356   0.000991764
282    -92.6208314567  -0.000017284862 0.00339247  0.00025401  0.0016945   0.000898638
283    -92.6208447190  -0.000013262308 0.03229911  0.00234365  0.0016667   0.000813773
284    -92.6209717505  -0.000127031477 0.28378797  0.01912193  0.0016813   0.000757892
285    -92.6194723490   0.001499401539 0.21776640  0.01392095  0.0064596   0.003594811
286    -92.6206912306  -0.001218881598 0.06238043  0.00433962  0.0018906   0.001031222
287    -92.6204308496   0.000260380995 0.16937105  0.01265672  0.0026632   0.001503929
288    -92.6211481832  -0.000717333570 0.05095429  0.00339341  0.0021403   0.001523309
289    -92.6214047224  -0.000256539227 0.00742522  0.00048948  0.0027519   0.001934449
290    -92.6213631052   0.000041617141 0.97525083  0.05688414  0.0026455   0.001852352
291    -92.6065143650   0.014848740219 0.58085349  0.03019780  0.0409328   0.021411917
292    -92.6188590166  -0.012344651571 0.09540209  0.00530094  0.0089284   0.005804891
293    -92.6176863342   0.001172682435 0.60301263  0.04404593  0.0129798   0.008005237
294    -92.6231484312  -0.005462097072 0.35494633  0.02277829  0.0073305   0.005730589
295    -92.6207346098   0.002413821407 0.75522376  0.04229747  0.0020670   0.001667163
296    -92.6097899165   0.010944693282 0.18943788  0.00965589  0.0339364   0.018366537
297    -92.6145034045  -0.004713487920 0.43785284  0.02430724  0.0224057   0.012690196
298    -92.6200778397  -0.005574435234 0.51197059  0.02811473  0.0045240   0.003612348
299    -92.6124035127   0.007674326963 0.65685004  0.03787340  0.0277609   0.016250634
               *** Restarting incremental Fock matrix formation ***
                             ****Resetting KDIIS****
300    -92.6208306686  -0.008427155873 0.00122546  0.00009674  0.0017444   0.001083716
301    -92.6208403060  -0.000009637349 0.00128468  0.00010150  0.0017190   0.001058524
302    -92.6208456550  -0.000005349083 0.00432824  0.00032753  0.0016631   0.000937476
303    -92.6208558992  -0.000010244127 0.03618943  0.00262224  0.0016503   0.000799822
304    -92.6209943913  -0.000138492167 0.04716873  0.00344153  0.0016926   0.000771001
305    -92.6208148451   0.000179546260 0.32391176  0.02036375  0.0016463   0.000794584
306    -92.6186807307   0.002134114333 0.32905414  0.02075816  0.0095180   0.005337837
307    -92.6208312907  -0.002150559958 0.04879771  0.00357377  0.0017483   0.000957642
308    -92.6210316008  -0.000200310054 0.03020300  0.00210976  0.0018405   0.001046748
309    -92.6211628181  -0.000131217368 0.04253033  0.00300204  0.0020619   0.001206529
310    -92.6209774434   0.000185374742 0.01288946  0.00091921  0.0017933   0.001064280
311    -92.6210301822  -0.000052738809 0.72514991  0.04269619  0.0018467   0.001083501
312    -92.6124731200   0.008557062171 0.72242861  0.04250537  0.0273863   0.014569478
313    -92.6210308093  -0.008557689262 0.02650627  0.00185890  0.0018151   0.000962241
314    -92.6211451133  -0.000114304068 0.02370449  0.00166863  0.0019884   0.001035762
315    -92.6210403142   0.000104799179 0.02069638  0.00151948  0.0018206   0.000933348
316    -92.6209468385   0.000093475680 0.07608555  0.00535647  0.0017532   0.000965317
317    -92.6213000633  -0.000353224823 0.27278638  0.02035348  0.0023231   0.001284789
318    -92.6198205015   0.001479561825 0.15519777  0.01022053  0.0050687   0.003297926
319    -92.6206599852  -0.000839483758 0.02421003  0.00172514  0.0020611   0.001478033
               *** Restarting incremental Fock matrix formation ***
                             ****Resetting KDIIS****
320    -92.6205594803   0.000100504903 0.00182760  0.00013437  0.0023053   0.001539466
321    -92.6205719599  -0.000012479538 0.00553534  0.00039316  0.0022253   0.001330991
322    -92.6205987294  -0.000026769494 0.00804660  0.00057871  0.0021265   0.001220366
323    -92.6206369714  -0.000038241981 0.03922939  0.00291803  0.0019912   0.001093160
324    -92.6207926338  -0.000155662410 0.18960383  0.01283110  0.0016299   0.000851322
325    -92.6216796712  -0.000887037472 0.18503013  0.01250267  0.0034799   0.002536664
326    -92.6207930690   0.000886602250 0.07026955  0.00504423  0.0018640   0.001512576
327    -92.6210764151  -0.000283346156 0.05095976  0.00359742  0.0019433   0.001229400
328    -92.6208798400   0.000196575162 0.26138601  0.01724506  0.0017042   0.000934144
329    -92.6195177674   0.001362072549 0.28217018  0.01899127  0.0064872   0.003696730
330    -92.6209767373  -0.001458969851 0.02408433  0.00168330  0.0017983   0.001058267
331    -92.6210722466  -0.000095509344 0.08429322  0.00603139  0.0019325   0.001133590
332    -92.6207672761   0.000304970486 0.37443693  0.02261615  0.0018945   0.001217337
333    -92.6180123721   0.002754904039 0.30754050  0.01799457  0.0123297   0.006821343
334    -92.6205178870  -0.002505514903 0.14875920  0.00916192  0.0026118   0.001516279
335    -92.6196725064   0.000845380576 0.11212804  0.00679520  0.0061263   0.003391302
336    -92.6203608864  -0.000688380018 0.04337664  0.00284657  0.0032178   0.001786695
337    -92.6205585081  -0.000197621662 0.04145102  0.00287494  0.0024383   0.001293057
338    -92.6207151807  -0.000156672568 0.02932898  0.00217270  0.0019476   0.000999772
339    -92.6208219410  -0.000106760321 0.02714732  0.00198544  0.0017904   0.000999593
               *** Restarting incremental Fock matrix formation ***
                             ****Resetting KDIIS****
340    -92.6209202607  -0.000098319661 0.00131208  0.00009661  0.0017560   0.001014233
341    -92.6209269791  -0.000006718422 0.00382526  0.00028023  0.0017331   0.000915272
342    -92.6209441840  -0.000017204963 0.00311352  0.00022727  0.0017151   0.000848961
343    -92.6209567071  -0.000012523104 0.01757274  0.00125341  0.0016977   0.000785779
344    -92.6210264443  -0.000069737130 0.37984106  0.02455681  0.0017228   0.000760826
345    -92.6185703993   0.002456044966 0.30745787  0.01890234  0.0100729   0.005733381
346    -92.6207172049  -0.002146805580 0.06855691  0.00471384  0.0019633   0.001126629
347    -92.6204287434   0.000288461460 0.14231854  0.01058876  0.0028840   0.001689342
348    -92.6210279695  -0.000599226114 0.11433616  0.00862443  0.0018498   0.001129084
349    -92.6205537984   0.000474171098 0.08596356  0.00636027  0.0024396   0.001528416
350    -92.6209051396  -0.000351341109 0.03914969  0.00278554  0.0017761   0.001107389
351    -92.6210514725  -0.000146332974 0.00316398  0.00024978  0.0018997   0.001247668
352    -92.6210457570   0.000005715548 0.23940079  0.01520264  0.0018936   0.001270388
353    -92.6226182580  -0.001572501018 0.12820331  0.00794293  0.0060767   0.004811874
354    -92.6215763247   0.001041933282 0.26907044  0.01944732  0.0031751   0.002521812
355    -92.6203056441   0.001270680596 0.18916636  0.01433673  0.0034202   0.002445563
356    -92.6211770178  -0.000871373689 0.00637657  0.00045079  0.0021036   0.001342370
357    -92.6211543752   0.000022642596 0.03383936  0.00227713  0.0020926   0.001595082
358    -92.6212901587  -0.000135783441 0.23877357  0.01803104  0.0028297   0.002206433
359    -92.6201329669   0.001157191769 0.49197901  0.03253911  0.0041991   0.003080751
               *** Restarting incremental Fock matrix formation ***
                             ****Resetting KDIIS****
360    -92.6234434883  -0.003310521455 0.00516592  0.00035431  0.0088672   0.006762072
361    -92.6236126290  -0.000169140669 0.01274697  0.00082205  0.0074467   0.005959568
362    -92.6239267538  -0.000314124737 0.08839006  0.00537038  0.0074292   0.004913983
363    -92.6227863497   0.001140404027 0.13642204  0.00831858  0.0056726   0.003886037
364    -92.6216236536   0.001162696110 0.36690690  0.02701544  0.0051891   0.004176946
365    -92.6196586071   0.001965046527 1.29929565  0.06438913  0.0055629   0.002976904
366    -92.5738013268   0.045857280275 1.43918207  0.07249071  0.0942117   0.045160775
367    -92.6205532882  -0.046751961373 0.12481196  0.00879265  0.0028450   0.001270526
368    -92.6210539478  -0.000500659610 0.08035836  0.00587119  0.0018157   0.001116568
369    -92.6207354920   0.000318455791 0.00120451  0.00011607  0.0025035   0.001522176
370    -92.6207417816  -0.000006289565 0.03550668  0.00248487  0.0025000   0.001568586
371    -92.6208807219  -0.000138940330 0.17533173  0.01206276  0.0020920   0.001320468
372    -92.6215900950  -0.000709373098 0.16967980  0.01163118  0.0028432   0.001955083
373    -92.6208974470   0.000692647947 0.10417956  0.00702603  0.0021078   0.001478107
374    -92.6204273934   0.000470053680 0.03331146  0.00208425  0.0037723   0.002516475
375    -92.6202343510   0.000193042336 0.07966472  0.00507521  0.0045640   0.002941206
376    -92.6206623568  -0.000428005812 0.03121261  0.00211964  0.0028214   0.001820867
377    -92.6207963884  -0.000134031511 0.12276354  0.00886287  0.0023566   0.001493482
378    -92.6212727830  -0.000476394595 0.01796897  0.00122461  0.0020526   0.001250903
379    -92.6212062563   0.000066526660 0.11591049  0.00852327  0.0019606   0.001258020
               *** Restarting incremental Fock matrix formation ***
                             ****Resetting KDIIS****
380    -92.6207456040   0.000460652295 0.00206633  0.00014932  0.0025193   0.001616723
381    -92.6207601856  -0.000014581635 0.00574761  0.00040548  0.0024306   0.001403188
382    -92.6207925009  -0.000032315231 0.00589334  0.00042020  0.0023115   0.001280123
383    -92.6208181510  -0.000025650111 0.06457676  0.00481838  0.0022003   0.001170624
384    -92.6210692575  -0.000251106491 0.18060467  0.01188796  0.0017296   0.000805716
385    -92.6219408468  -0.000871589298 0.26881591  0.01847050  0.0036822   0.002577258
386    -92.6206755180   0.001265328731 0.01254638  0.00085452  0.0028154   0.002163207
387    -92.6207299177  -0.000054399705 0.00137668  0.00013366  0.0026221   0.002050891
388    -92.6207364604  -0.000006542715 0.07136833  0.00467442  0.0025684   0.001722693
389    -92.6203859412   0.000350519235 0.00883041  0.00057029  0.0039581   0.002650860
390    -92.6203333385   0.000052602699 0.17958494  0.01277769  0.0041601   0.002703760
391    -92.6211551655  -0.000821826995 0.04538433  0.00327133  0.0018870   0.001104628
392    -92.6209851901   0.000169975451 0.02084453  0.00159896  0.0019047   0.001066079
393    -92.6209004369   0.000084753141 0.03675292  0.00270703  0.0020540   0.001222552
394    -92.6210379681  -0.000137531226 0.00043669  0.00003356  0.0018908   0.001246686
395    -92.6210394541  -0.000001485972 0.14574417  0.00986668  0.0018893   0.001242137
396    -92.6217279527  -0.000688498605 0.00649070  0.00061155  0.0030009   0.001874673
397    -92.6217313282  -0.000003375493 0.34484764  0.02597742  0.0031454   0.002212272
398    -92.6197635174   0.001967810826 0.26855036  0.01824857  0.0065059   0.003871255
399    -92.6211621162  -0.001398598791 0.03086678  0.00220631  0.0018903   0.001095653
               *** Restarting incremental Fock matrix formation ***
                             ****Resetting KDIIS****
400    -92.6210436787   0.000118437499 0.00146314  0.00010774  0.0019262   0.001368136
401    -92.6210529606  -0.000009281945 0.00426936  0.00031236  0.0018853   0.001185502
402    -92.6210730670  -0.000020106347 0.00373532  0.00027286  0.0018483   0.001061768
403    -92.6210899671  -0.000016900123 0.02912133  0.00205857  0.0018050   0.000915178
404    -92.6212029395  -0.000112972394 0.26587540  0.01821171  0.0018066   0.000790829
405    -92.6198451301   0.001357809362 0.22954703  0.01519333  0.0060904   0.003416611
406    -92.6210353864  -0.001190256311 0.09135199  0.00635465  0.0018710   0.001066822
407    -92.6214064968  -0.000371110357 0.09496374  0.00662617  0.0022898   0.001534924
408    -92.6210178531   0.000388643743 0.06453979  0.00459114  0.0019261   0.001262452
409    -92.6212717847  -0.000253931607 0.07352818  0.00524472  0.0020256   0.001219056
410    -92.6209878570   0.000283927626 0.06622310  0.00486774  0.0019335   0.001155238
411    -92.6206852803   0.000302576685 0.11253894  0.00878900  0.0026830   0.001940386
412    -92.6212131262  -0.000527845878 0.08118598  0.00551851  0.0019388   0.001290175
413    -92.6215692054  -0.000356079198 0.27132471  0.02041395  0.0026149   0.001749816
414    -92.6202120508   0.001357154622 0.22719855  0.01639788  0.0047649   0.002905634
415    -92.6212654971  -0.001053446289 0.17605995  0.01142797  0.0020479   0.001431652
416    -92.6223860400  -0.001120542884 0.21017237  0.01379818  0.0045199   0.003413297
417    -92.6211293198   0.001256720170 0.00776575  0.00071804  0.0019637   0.001546294
418    -92.6211081772   0.000021142607 0.02010794  0.00150234  0.0019005   0.001332590
419    -92.6211692928  -0.000061115564 0.07915244  0.00589226  0.0019630   0.001420665
               *** Restarting incremental Fock matrix formation ***
                             ****Resetting KDIIS****
420    -92.6208750478   0.000294244930 0.00163050  0.00012901  0.0022173   0.001609905
421    -92.6208913523  -0.000016304462 0.00252669  0.00019865  0.0021505   0.001479169
422    -92.6209128716  -0.000021519300 0.00483616  0.00037577  0.0020249   0.001261422
423    -92.6209193797  -0.000006508121 0.05029958  0.00368305  0.0019575   0.001026596
424    -92.6211007257  -0.000181345947 0.00302990  0.00021541  0.0017156   0.000782162
425    -92.6211121608  -0.000011435187 0.08775591  0.00594706  0.0017202   0.000793589
426    -92.6214538381  -0.000341677297 0.51068318  0.03311122  0.0024141   0.001486407
427    -92.6175690158   0.003884822340 0.52905202  0.03519572  0.0142130   0.007996901
428    -92.6216345880  -0.004065572152 0.07562352  0.00471061  0.0028845   0.001652622
429    -92.6221344865  -0.000499898507 0.00585040  0.00035962  0.0041906   0.002760428
430    -92.6220835203   0.000050966208 0.07458158  0.00465816  0.0040797   0.002759722
431    -92.6215948041   0.000488716114 0.10660411  0.00711397  0.0028416   0.001954043
432    -92.6211187116   0.000476092529 0.06187801  0.00450857  0.0023192   0.001831478
433    -92.6208779908   0.000240720784 0.10775231  0.00765603  0.0027334   0.002146797
434    -92.6213049192  -0.000426928358 0.01269837  0.00085300  0.0021776   0.001661049
435    -92.6212528252   0.000052094007 0.22276136  0.01390964  0.0021491   0.001753222
436    -92.6226797627  -0.001426937535 0.12763165  0.00782948  0.0061113   0.004810677
437    -92.6216947579   0.000985004808 0.31237677  0.02272961  0.0032282   0.002598235
438    -92.6200889977   0.001605760202 0.25780371  0.01895833  0.0052727   0.003930703
439    -92.6213975331  -0.001308535371 0.09930807  0.00684481  0.0023760   0.001821886
               *** Restarting incremental Fock matrix formation ***
                             ****Resetting KDIIS****
440    -92.6210069407   0.000390592396 0.00158934  0.00012051  0.0026772   0.002046385
441    -92.6210226467  -0.000015706037 0.00394659  0.00029489  0.0021611   0.001732638
442    -92.6210493482  -0.000026701519 0.00333867  0.00025295  0.0019440   0.001467692
443    -92.6210671207  -0.000017772474 0.03035969  0.00215535  0.0018622   0.001139239
444    -92.6211839912  -0.000116870526 0.20522767  0.01434838  0.0017732   0.000768646
445    -92.6202544880   0.000929503268 0.15121516  0.01003164  0.0044263   0.002387799
446    -92.6209570107  -0.000702522738 0.17997668  0.01215785  0.0019635   0.001096901
447    -92.6217173730  -0.000760362316 0.33859332  0.02505123  0.0031254   0.002220279
448    -92.6198121991   0.001905173900 0.28569590  0.01997146  0.0063885   0.004223667
449    -92.6213253699  -0.001513170804 0.07895150  0.00512163  0.0020892   0.001095753
450    -92.6217000130  -0.000374643114 0.01602404  0.00101135  0.0030834   0.002081178
451    -92.6217930855  -0.000093072455 0.15894717  0.00965294  0.0033435   0.002373186
452    -92.6231474872  -0.001354401741 0.01817620  0.00110118  0.0073531   0.005686939
453    -92.6233863772  -0.000238889976 0.49896503  0.03292306  0.0075167   0.005856667
454    -92.6201735291   0.003212848157 0.50031698  0.03300077  0.0048527   0.002933034
455    -92.6233421828  -0.003168653744 0.03810167  0.00231509  0.0082860   0.006356047
456    -92.6229329665   0.000409216321 1.21418670  0.07392176  0.0072859   0.005612133
457    -92.5977585226   0.025174443907 0.90579451  0.04686431  0.0582065   0.031132544
458    -92.6202520509  -0.022493528327 0.01628224  0.00098916  0.0044485   0.002383521
459    -92.6201430693   0.000108981639 0.05046469  0.00312341  0.0048995   0.002658822
               *** Restarting incremental Fock matrix formation ***
                             ****Resetting KDIIS****
460    -92.6204677452  -0.000324675953 0.00367309  0.00023185  0.0035436   0.001750527
461    -92.6204918709  -0.000024125654 0.00970832  0.00061625  0.0034026   0.001582828
462    -92.6205542201  -0.000062349240 0.01174085  0.00074986  0.0031767   0.001534384
463    -92.6206019429  -0.000047722790 0.09636220  0.00658539  0.0029980   0.001545595
464    -92.6209717137  -0.000369770764 0.06591824  0.00470640  0.0018295   0.000874788
465    -92.6212196924  -0.000247978786 0.01461444  0.00103712  0.0018792   0.001187230
466    -92.6211469356   0.000072756811 0.07920950  0.00578993  0.0018605   0.001141151
467    -92.6208823283   0.000264607315 0.16696867  0.01163827  0.0020597   0.001172331
468    -92.6214974195  -0.000615091161 0.26817374  0.01983745  0.0025547   0.001670601
469    -92.6201913952   0.001306024266 0.30024342  0.02180395  0.0048329   0.003097086
470    -92.6216680399  -0.001476644675 0.23385685  0.01413939  0.0030077   0.001960582
471    -92.6237740607  -0.002106020856 0.01215240  0.00075257  0.0093707   0.007145128
472    -92.6235771706   0.000196890140 0.07968681  0.00496772  0.0094225   0.007138476
473    -92.6245594280  -0.000982257433 0.27027464  0.01631892  0.0132520   0.009741144
474    -92.6218780176   0.002681410445 0.16115297  0.01054537  0.0034989   0.001994847
475    -92.6211195965   0.000758421086 0.13131794  0.00939765  0.0017906   0.000827367
476    -92.6205911988   0.000528397716 0.02961107  0.00194439  0.0030286   0.001423979
477    -92.6207222424  -0.000131043626 0.18180608  0.01297686  0.0025598   0.001224458
478    -92.6214278633  -0.000705620883 0.00476217  0.00031582  0.0023852   0.001586418
479    -92.6214443184  -0.000016455087 0.05107885  0.00326509  0.0024576   0.001800568
               *** Restarting incremental Fock matrix formation ***
                             ****Resetting KDIIS****
480    -92.6217044844  -0.000260166050 0.00240610  0.00015816  0.0031458   0.002334337
481    -92.6217304390  -0.000025954577 0.00618327  0.00039298  0.0031641   0.002060006
482    -92.6217840555  -0.000053616456 0.00338340  0.00026003  0.0032407   0.001759776
483    -92.6217719676   0.000012087841 0.09177000  0.00592107  0.0031729   0.001446464
484    -92.6213036526   0.000468315015 0.16817273  0.01236926  0.0020836   0.001253594
485    -92.6205941503   0.000709502324 0.19256621  0.01396066  0.0032900   0.002447961
486    -92.6213932036  -0.000799053299 0.06148557  0.00394463  0.0023521   0.001749029
487    -92.6216951749  -0.000301971325 0.43550807  0.03077606  0.0031404   0.002335406
488    -92.6187841986   0.002910976351 0.16106066  0.00931899  0.0103899   0.006596679
489    -92.6202390129  -0.001454814324 0.09651735  0.00617978  0.0047578   0.003290965
490    -92.6207378102  -0.000498797363 0.15850676  0.00987284  0.0027569   0.002217072
491    -92.6197740419   0.000963768384 0.31452759  0.02270788  0.0066713   0.004482710
492    -92.6215029683  -0.001728926484 0.05107315  0.00325195  0.0024712   0.001131949
493    -92.6217546823  -0.000251713928 0.07081468  0.00453608  0.0032469   0.002201898
494    -92.6213984674   0.000356214846 0.00944150  0.00062373  0.0022992   0.001457043
495    -92.6214405769  -0.000042109491 0.03047379  0.00196674  0.0024045   0.001553159
496    -92.6215833936  -0.000142816671 0.22140408  0.01564738  0.0027895   0.001889808
497    -92.6206504071   0.000932986532 0.03225258  0.00208934  0.0030611   0.002301097
498    -92.6204861366   0.000164270417 0.07289936  0.00486232  0.0037394   0.002853380
499    -92.6208271322  -0.000340995513 0.37270006  0.02386160  0.0025061   0.001974619
               *** Restarting incremental Fock matrix formation ***
                             ****Resetting KDIIS****
500    -92.6230610353  -0.002233903128 0.00464469  0.00031196  0.0072082   0.005550546
501    -92.6231846610  -0.000123625761 0.01039356  0.00066771  0.0062637   0.004904371
502    -92.6234107897  -0.000226128632 0.01103274  0.00076268  0.0065744   0.004028614
503    -92.6233190748   0.000091714835 0.16931105  0.01028340  0.0064470   0.003165181
504    -92.6216532397   0.001665835146 0.19086674  0.01302154  0.0040315   0.003106180
505    -92.6208662121   0.000787027556 0.28242532  0.01738262  0.0040698   0.002992988
506    -92.6188448984   0.002021313722 0.48688428  0.03524074  0.0103371   0.007312863
507    -92.6224918529  -0.003646954504 0.08570653  0.00525445  0.0048875   0.002404261
508    -92.6218171971   0.000674655783 0.07646026  0.00471460  0.0032348   0.001413955
509    -92.6223841720  -0.000566974851 0.00199263  0.00018742  0.0046868   0.002745897
510    -92.6223523750   0.000031796963 0.34246275  0.02315814  0.0046410   0.002894090
511    -92.6205551956   0.001797179402 0.35344377  0.02383473  0.0049041   0.003824529
512    -92.6223557260  -0.001800530392 0.25154249  0.01617559  0.0057446   0.004429036
513    -92.6210494118   0.001306314207 0.20653727  0.01369535  0.0025360   0.001992498
514    -92.6199924634   0.001056948367 0.24435359  0.01684509  0.0059642   0.004268311
515    -92.6212297142  -0.001237250767 0.05213969  0.00368792  0.0019791   0.001373172
516    -92.6210412921   0.000188422128 0.02467967  0.00177316  0.0020165   0.001553793
517    -92.6211286968  -0.000087404704 0.17576035  0.01146431  0.0019565   0.001499249
518    -92.6219647739  -0.000836077104 0.13687722  0.00879519  0.0037448   0.002617170
519    -92.6212734698   0.000691304063 0.13164459  0.00965160  0.0020322   0.001388263
               *** Restarting incremental Fock matrix formation ***
                             ****Resetting KDIIS****
520    -92.6207628636   0.000510606189 0.00224583  0.00016646  0.0027887   0.002113446
521    -92.6207851659  -0.000022302269 0.00508626  0.00036898  0.0026707   0.001831825
522    -92.6208301808  -0.000045014917 0.00552332  0.00040660  0.0024915   0.001584138
523    -92.6208469321  -0.000016751257 0.05605038  0.00410494  0.0023589   0.001346146
524    -92.6210624003  -0.000215468255 0.04238833  0.00301679  0.0017715   0.000827920
525    -92.6212253163  -0.000162915929 0.01167192  0.00082483  0.0018093   0.001039859
526    -92.6212445127  -0.000019196464 0.11982711  0.00781518  0.0019472   0.001364157
527    -92.6217969459  -0.000552433158 0.27010180  0.01891319  0.0032636   0.002362830
528    -92.6205858103   0.001211135567 0.02174686  0.00142164  0.0034054   0.002320511
529    -92.6206927165  -0.000106906181 0.07629465  0.00537131  0.0029806   0.002033577
530    -92.6210138975  -0.000321181004 0.04008687  0.00289263  0.0020099   0.001321964
531    -92.6211610687  -0.000147171193 0.21750856  0.01393003  0.0019117   0.001287652
532    -92.6223393913  -0.001178322607 0.31007559  0.02063480  0.0045831   0.003661609
533    -92.6207701402   0.001569251141 0.06517567  0.00427232  0.0028042   0.002232587
534    -92.6204488296   0.000321310532 0.06794084  0.00448975  0.0040180   0.002923930
535    -92.6207940360  -0.000345206394 0.04561992  0.00325785  0.0026298   0.001863670
536    -92.6209882442  -0.000194208159 0.02922744  0.00211795  0.0020673   0.001351339
537    -92.6208741710   0.000114073218 0.10140611  0.00736068  0.0023148   0.001374746
538    -92.6212660019  -0.000391830961 0.12086714  0.00792193  0.0019080   0.000973393
539    -92.6218754846  -0.000609482717 0.04134032  0.00262530  0.0033244   0.002272455
               *** Restarting incremental Fock matrix formation ***
                             ****Resetting KDIIS****
540    -92.6221181763  -0.000242691626 0.00310398  0.00020613  0.0040395   0.003208232
541    -92.6221684056  -0.000050229346 0.00487029  0.00033240  0.0040911   0.002875130
542    -92.6222452031  -0.000076797488 0.00546173  0.00038728  0.0041762   0.002343126
543    -92.6222910104  -0.000045807261 0.13438732  0.00858495  0.0042830   0.001881770
544    -92.6214122998   0.000878710600 0.12612414  0.00907835  0.0022231   0.001343304
545    -92.6209372172   0.000475082566 0.07360592  0.00549217  0.0023121   0.001872005
546    -92.6211899162  -0.000252699014 0.11505061  0.00774215  0.0024311   0.001894882
547    -92.6216997043  -0.000509788102 0.23561012  0.01698080  0.0030661   0.002468859
548    -92.6207437783   0.000955925997 0.18567158  0.01384884  0.0030120   0.002134510
549    -92.6214587268  -0.000714948462 0.05099084  0.00347216  0.0024340   0.001963145
550    -92.6212632379   0.000195488896 0.06084679  0.00450484  0.0019549   0.001200256
551    -92.6210479014   0.000215336493 0.00747736  0.00069592  0.0020257   0.001466469
552    -92.6211288287  -0.000080927263 0.06796417  0.00494948  0.0025501   0.001402828
553    -92.6213278685  -0.000199039887 0.02015199  0.00139649  0.0020748   0.001502771
554    -92.6212519221   0.000075946480 0.11495879  0.00846588  0.0019580   0.001405070
555    -92.6208132528   0.000438669291 0.10401766  0.00682336  0.0025249   0.001506752
556    -92.6203028585   0.000510394254 0.22302962  0.01606145  0.0046528   0.002658997
557    -92.6212983431  -0.000995484544 0.01253244  0.00084731  0.0019899   0.001120084
558    -92.6213425039  -0.000044160804 0.05573044  0.00378966  0.0021020   0.001374577
559    -92.6216121026  -0.000269598724 0.05147000  0.00356211  0.0026687   0.001618972
               *** Restarting incremental Fock matrix formation ***
                             ****Resetting KDIIS****
560    -92.6213502206   0.000261881985 0.00167223  0.00011658  0.0021697   0.001665023
561    -92.6213630940  -0.000012873357 0.00463693  0.00031822  0.0021499   0.001447566
562    -92.6213901611  -0.000027067177 0.00178859  0.00014056  0.0021528   0.001256871
563    -92.6214013142  -0.000011153088 0.02718906  0.00185290  0.0021307   0.001035438
564    -92.6212931456   0.000108168662 0.18837097  0.01383627  0.0018996   0.000836572
565    -92.6204593491   0.000833796439 0.19204976  0.01421657  0.0040072   0.002532890
566    -92.6213014368  -0.000842087667 0.01904440  0.00130993  0.0020470   0.001368497
567    -92.6212298448   0.000071592001 0.14693303  0.00971090  0.0019661   0.001354310
568    -92.6220006133  -0.000770768526 0.10857728  0.00711999  0.0036474   0.002771204
569    -92.6213766650   0.000623948287 0.03006792  0.00206701  0.0022169   0.001742868
570    -92.6212519478   0.000124717263 0.16298052  0.01216117  0.0021104   0.001667012
571    -92.6205563548   0.000695592962 0.15036749  0.01106650  0.0036540   0.002622908
572    -92.6211952667  -0.000638911858 0.02893730  0.00211034  0.0019807   0.001517987
573    -92.6213156686  -0.000120401945 0.05946978  0.00414540  0.0020925   0.001531011
574    -92.6216156223  -0.000299953731 0.06342229  0.00452048  0.0026673   0.001968509
575    -92.6212934948   0.000322127564 0.02026700  0.00136907  0.0020617   0.001512888
576    -92.6213748651  -0.000081370299 0.21446687  0.01614344  0.0021801   0.001480871
577    -92.6204440010   0.000930864040 0.27308504  0.02020607  0.0039425   0.001910676
578    -92.6217089445  -0.001264943480 0.02364149  0.00171870  0.0028630   0.001754715
579    -92.6215813209   0.000127623585 0.03869777  0.00238456  0.0026535   0.001720662
               *** Restarting incremental Fock matrix formation ***
                             ****Resetting KDIIS****
580    -92.6217163991  -0.000135078147 0.00206012  0.00014406  0.0027491   0.001488629
581    -92.6217357742  -0.000019375149 0.00075467  0.00006161  0.0027738   0.001488467
582    -92.6217327325   0.000003041709 0.00117263  0.00010755  0.0027637   0.001370186
583    -92.6217268321   0.000005900431 0.09692824  0.00695948  0.0027382   0.001261630
584    -92.6212143746   0.000512457488 0.07867310  0.00637542  0.0022408   0.001689989
585    -92.6209502898   0.000264084767 0.06957119  0.00594290  0.0022736   0.001587897
586    -92.6211835590  -0.000233269141 0.04536654  0.00324206  0.0020552   0.001703240
587    -92.6213815057  -0.000197946703 0.00842142  0.00063958  0.0019045   0.001545025
588    -92.6213879711  -0.000006465375 0.06139908  0.00434557  0.0023388   0.001330051
589    -92.6216819430  -0.000293971989 0.17162065  0.01308964  0.0026675   0.001210821
590    -92.6209533604   0.000728582648 0.10281386  0.00929932  0.0022369   0.001395296
591    -92.6213587341  -0.000405373723 0.06989170  0.00486871  0.0024947   0.002100479
592    -92.6211876792   0.000171054890 0.13440869  0.00889664  0.0018209   0.001209780
593    -92.6217774359  -0.000589756633 0.32355940  0.02364558  0.0030430   0.001679848
594    -92.6200491097   0.001728326123 0.05070750  0.00300634  0.0057510   0.003762504
595    -92.6201211999  -0.000072090130 0.09871498  0.00775735  0.0057850   0.003484983
596    -92.6206780296  -0.000556829736 0.07793345  0.00537290  0.0033183   0.002282416
597    -92.6209587387  -0.000280709095 0.11931425  0.00792550  0.0021173   0.001239372
598    -92.6203926150   0.000566123664 0.20006164  0.01440023  0.0043047   0.002865131
599    -92.6212902434  -0.000897628378 0.00241612  0.00020164  0.0020174   0.001364547
               *** Restarting incremental Fock matrix formation ***
                             ****Resetting KDIIS****
600    -92.6212844053   0.000005838157 0.00156384  0.00010934  0.0019999   0.001351243
601    -92.6212944331  -0.000010027847 0.00352404  0.00024560  0.0019794   0.001194743
602    -92.6213148417  -0.000020408582 0.00332919  0.00023694  0.0019584   0.001033400
603    -92.6213264014  -0.000011559746 0.03879573  0.00268670  0.0019544   0.000893569
604    -92.6211813120   0.000145089429 0.27325205  0.01806917  0.0017933   0.000798023
605    -92.6197097510   0.001471561002 0.26911362  0.01773231  0.0070657   0.004111067
606    -92.6211572091  -0.001447458141 0.01200157  0.00086238  0.0018878   0.001128748
607    -92.6211134461   0.000043763002 0.02363076  0.00167713  0.0019058   0.001173332
608    -92.6212004013  -0.000086955202 0.02286414  0.00158380  0.0018833   0.001062833
609    -92.6212841636  -0.000083762240 0.00814010  0.00055759  0.0019688   0.001139004
610    -92.6213143342  -0.000030170619 0.36174625  0.02386201  0.0020161   0.001164969
611    -92.6191061270   0.002208207216 0.38025450  0.02563167  0.0093026   0.005551905
612    -92.6214270083  -0.002320881341 0.01235166  0.00083371  0.0022389   0.001347521
613    -92.6213716651   0.000055343258 0.04252057  0.00279125  0.0021387   0.001328767
614    -92.6215576237  -0.000185958607 0.01691028  0.00110008  0.0025790   0.001660300
615    -92.6214784757   0.000079147984 0.04290863  0.00279489  0.0023842   0.001537238
616    -92.6216963072  -0.000217831553 0.25068004  0.01785675  0.0029317   0.001891466
617    -92.6205753075   0.001120999709 0.11619101  0.00815599  0.0035365   0.002573923
618    -92.6210764113  -0.000501103722 0.14561430  0.00983767  0.0020019   0.001571453
619    -92.6216975901  -0.000621178826 0.02261920  0.00158540  0.0029227   0.001873602
               *** Restarting incremental Fock matrix formation ***
                             ****Resetting KDIIS****
620    -92.6215680866   0.000129503471 0.00200558  0.00013310  0.0026221   0.001739724
621    -92.6215842223  -0.000016135719 0.00545942  0.00035583  0.0026260   0.001552166
622    -92.6216204167  -0.000036194346 0.00540813  0.00036771  0.0026728   0.001363455
623    -92.6215984057   0.000022011016 0.06431906  0.00425313  0.0025776   0.001165185
624    -92.6213126949   0.000285710786 0.18481587  0.01357259  0.0019748   0.001048120
625    -92.6204921941   0.000820500765 0.22762498  0.01671597  0.0039313   0.002685433
626    -92.6214991982  -0.001007004117 0.00968432  0.00064359  0.0024589   0.001684921
627    -92.6214549865   0.000044211741 0.12699035  0.00802807  0.0023575   0.001627527
628    -92.6222133735  -0.000758386984 0.09821656  0.00619007  0.0042864   0.003269008
629    -92.6215781954   0.000635178075 0.00454187  0.00030322  0.0027129   0.002140036
630    -92.6215575123   0.000020683052 0.17141899  0.01207224  0.0026584   0.002107640
631    -92.6208807277   0.000676784663 0.33546531  0.02177936  0.0027891   0.002174239
632    -92.6226458718  -0.001765144139 0.13936028  0.00856123  0.0070432   0.005421837
633    -92.6216482658   0.000997606022 0.08388689  0.00548506  0.0038387   0.002944077
634    -92.6212770648   0.000371200969 0.01423295  0.00097178  0.0033522   0.002582386
635    -92.6213153476  -0.000038282822 0.03202781  0.00217430  0.0037857   0.002815866
636    -92.6212015608   0.000113786833 0.03751802  0.00268346  0.0035248   0.002624942
637    -92.6210687249   0.000132835904 0.62015071  0.03587446  0.0035141   0.002623970
638    -92.6141212604   0.006947464461 0.28247190  0.01493033  0.0244428   0.013404410
639    -92.6188948963  -0.004773635820 0.00743811  0.00056154  0.0101440   0.005976599
               *** Restarting incremental Fock matrix formation ***
                             ****Resetting KDIIS****
640    -92.6188166911   0.000078205165 0.01259777  0.00072907  0.0104611   0.006779025
641    -92.6190569751  -0.000240283968 0.02475331  0.00141118  0.0095223   0.005607560
642    -92.6193606524  -0.000303677321 0.04480686  0.00260121  0.0084529   0.005038675
643    -92.6198786144  -0.000517961989 0.07391337  0.00444233  0.0066946   0.004196917
644    -92.6203791053  -0.000500490884 0.10749273  0.00695191  0.0040418   0.001756215
645    -92.6208923655  -0.000513260229 0.03500177  0.00236370  0.0022768   0.001215785
646    -92.6207423963   0.000149969190 0.00109840  0.00013419  0.0027270   0.001326643
647    -92.6207278786   0.000014517741 0.02610041  0.00175272  0.0027971   0.001348946
648    -92.6208496472  -0.000121768669 0.03231285  0.00226121  0.0023057   0.001144765
649    -92.6209712890  -0.000121641783 0.16006011  0.01101317  0.0019634   0.001005819
650    -92.6215719261  -0.000600637136 0.00575206  0.00037625  0.0026423   0.001952251
651    -92.6215451245   0.000026801648 0.09311728  0.00625161  0.0026302   0.002062491
652    -92.6211856906   0.000359433852 0.06515125  0.00476106  0.0019420   0.001351903
653    -92.6209352052   0.000250485411 0.01062117  0.00081074  0.0022952   0.001693152
654    -92.6209258928   0.000009312461 0.02118164  0.00176653  0.0023285   0.001496431
655    -92.6209748756  -0.000048982873 0.01105087  0.00085271  0.0022098   0.001767267
656    -92.6210241013  -0.000049225644 0.27919493  0.01799599  0.0021071   0.001628235
657    -92.6225582339  -0.001534132608 0.51187919  0.03723371  0.0049663   0.003836175
658    -92.6186930177   0.003865216160 0.32740055  0.02050637  0.0109243   0.006603126
659    -92.6210582679  -0.002365250186 0.01452273  0.00105812  0.0019753   0.001057182
               *** Restarting incremental Fock matrix formation ***
                             ****Resetting KDIIS****
660    -92.6211158900  -0.000057622075 0.00147888  0.00011230  0.0019443   0.001197167
661    -92.6211260764  -0.000010186393 0.00226508  0.00016994  0.0019105   0.001113235
662    -92.6211402240  -0.000014147576 0.00461222  0.00034289  0.0018464   0.000983270
663    -92.6211538056  -0.000013581670 0.02985118  0.00216698  0.0018245   0.000862764
664    -92.6212768656  -0.000123060006 0.11289784  0.00879522  0.0018446   0.000848397
665    -92.6207910776   0.000485788006 0.01920793  0.00147231  0.0025405   0.001271424
666    -92.6208417820  -0.000050704340 0.02859756  0.00212988  0.0025108   0.001538597
667    -92.6209587676  -0.000116985655 0.13679081  0.01009728  0.0022001   0.001380416
668    -92.6216580744  -0.000699306787 0.05928340  0.00459965  0.0024408   0.001341669
669    -92.6212918289   0.000366245566 0.05028835  0.00355313  0.0019950   0.001366143
670    -92.6210968325   0.000194996367 0.13134480  0.00965940  0.0019277   0.001102984
671    -92.6204853878   0.000611444720 0.07960021  0.00570845  0.0038245   0.002079455
672    -92.6208528864  -0.000367498594 0.01186448  0.00076423  0.0026299   0.002031361
673    -92.6208396566   0.000013229747 0.14405886  0.01031773  0.0028768   0.002241309
674    -92.6214365616  -0.000596905029 0.31053090  0.02122177  0.0022378   0.001663236
675    -92.6197963125   0.001640249174 0.16474457  0.01236842  0.0073223   0.004786873
676    -92.6206408319  -0.000844519393 0.11342575  0.00872918  0.0035279   0.002289309
677    -92.6212890435  -0.000648211612 0.01590091  0.00118121  0.0021908   0.001546282
678    -92.6212298146   0.000059228878 0.09503120  0.00671361  0.0022699   0.001571913
679    -92.6215814143  -0.000351599736 0.57106430  0.03495744  0.0023883   0.001677737
               *** Restarting incremental Fock matrix formation ***
                             ****Resetting KDIIS****
680    -92.6166849454   0.004896468900 0.02751896  0.00147111  0.0182687   0.010952643
681    -92.6173796347  -0.000694689284 0.04116677  0.00221367  0.0162069   0.008863932
682    -92.6180804763  -0.000700841557 0.09387179  0.00520672  0.0141959   0.007897151
683    -92.6194775127  -0.001397036464 0.10342987  0.00593369  0.0099469   0.005295419
684    -92.6205494646  -0.001071951887 0.01600447  0.00100345  0.0059803   0.002506164
685    -92.6206876917  -0.000138227101 0.04180741  0.00255471  0.0055855   0.002346622
686    -92.6209833424  -0.000295650694 0.07713687  0.00570170  0.0046461   0.001996048
687    -92.6216953262  -0.000711983811 0.01739298  0.00126433  0.0038114   0.002259439
688    -92.6215641903   0.000131135919 0.08538786  0.00629240  0.0036888   0.002227095
689    -92.6207397964   0.000824393900 0.12102828  0.00759465  0.0055657   0.003812222
[...]
2521    -92.6221733383  -0.000041001168 0.00147402  0.00014342  0.0040113   0.002300931
2522    -92.6221875028  -0.000014164530 0.00609977  0.00040665  0.0040288   0.001977091
2523    -92.6222268347  -0.000039331817 0.14012519  0.00885520  0.0041393   0.001725701
2524    -92.6213657736   0.000861061039 0.15582366  0.01131322  0.0022018   0.001757329
2525    -92.6207483729   0.000617400679 0.11461582  0.00851913  0.0030605   0.002465933
2526    -92.6212061160  -0.000457743061 0.33289639  0.02051462  0.0024468   0.001880387
2527    -92.6235980760  -0.002391960002 0.48282352  0.03107559  0.0090974   0.006952854
2528    -92.6204851921   0.003112883941 0.14487374  0.01025632  0.0046531   0.003625049
2529    -92.6211527381  -0.000667546005 0.04266890  0.00295860  0.0022842   0.001770247
2530    -92.6213098962  -0.000157158095 0.03069969  0.00205500  0.0022254   0.001752613
2531    -92.6214382534  -0.000128357200 0.00824908  0.00054572  0.0023041   0.001675208
2532    -92.6214801777  -0.000041924365 0.05594895  0.00358909  0.0023656   0.001545111
2533    -92.6217589602  -0.000278782426 0.01806671  0.00119700  0.0030970   0.002118068
2534    -92.6216324364   0.000126523716 0.21991744  0.01543182  0.0031323   0.002484111
2535    -92.6207383148   0.000894121649 0.13628889  0.01002748  0.0029763   0.002316588
2536    -92.6212890684  -0.000550753591 0.13097145  0.00961814  0.0020466   0.001605422
2537    -92.6207979465   0.000491121887 0.06878782  0.00499897  0.0028258   0.002152844
2538    -92.6210876486  -0.000289702070 0.09093358  0.00634301  0.0019800   0.001566713
2539    -92.6213843694  -0.000296720793 0.28815063  0.01759792  0.0021962   0.001708915
               *** Restarting incremental Fock matrix formation ***
                             ****Resetting KDIIS****
2540    -92.6235866613  -0.002202291985 0.00515924  0.00035590  0.0090470   0.006924918
2541    -92.6237627194  -0.000176058019 0.01234219  0.00080248  0.0076029   0.006111344
2542    -92.6240858150  -0.000323095619 0.02285085  0.00145925  0.0074127   0.005024847
2543    -92.6238468737   0.000238941274 0.16542273  0.00996264  0.0071332   0.003869744
2544    -92.6219560834   0.001890790356 0.20827791  0.01375575  0.0044265   0.003560791
2545    -92.6209669269   0.000989156497 0.33031735  0.02043910  0.0047750   0.003434227
2546    -92.6185597554   0.002407171431 0.68427843  0.04528139  0.0113855   0.008045701
2547    -92.6249347332  -0.006374977734 0.18222906  0.01110703  0.0082620   0.006151193
2548    -92.6225869598   0.002347773378 0.14386658  0.00888901  0.0049616   0.002057583
2549    -92.6215220787   0.001064881075 0.03478113  0.00229280  0.0025388   0.001971062
2550    -92.6213497825   0.000172296197 0.00411060  0.00027694  0.0031482   0.002362496
2551    -92.6213324175   0.000017365034 0.10023603  0.00709185  0.0031697   0.002376830
2552    -92.6209176040   0.000414813503 0.11828126  0.00829006  0.0045728   0.003351683
2553    -92.6214279043  -0.000510300360 0.23644431  0.01454120  0.0025047   0.002035330
2554    -92.6232288935  -0.001800989147 0.17932998  0.01094514  0.0066561   0.005436075
2555    -92.6216936330   0.001535260521 0.01245281  0.00081243  0.0032264   0.002571604
2556    -92.6216277476   0.000065885339 0.15809219  0.01078770  0.0031571   0.002483468
2557    -92.6210967105   0.000531037081 0.05016407  0.00364260  0.0022358   0.001942179
2558    -92.6211552037  -0.000058493178 0.21189693  0.01452747  0.0033652   0.002540139
2559    -92.6201649427   0.000990260983 0.67069811  0.04180412  0.0053728   0.003720261
               *** Restarting incremental Fock matrix formation ***
                             ****Resetting KDIIS****
2560    -92.6256940734  -0.005529130648 0.00634694  0.00049679  0.0154219   0.011377701
2561    -92.6260898529  -0.000395779567 0.01605114  0.00116859  0.0130852   0.009993114
2562    -92.6267815239  -0.000691670934 0.00573359  0.00060381  0.0098322   0.008154740
2563    -92.6270477070  -0.000266183134 0.16350313  0.01065615  0.0097379   0.005869490
2564    -92.6239740848   0.003073622177 0.43214044  0.02724393  0.0073899   0.004250069
2565    -92.6195107308   0.004463354029 0.22097583  0.01358612  0.0180583   0.012662945
2566    -92.6167049176   0.002805813235 0.83528186  0.05131144  0.0256291   0.018518232
2567    -92.6287307873  -0.012025869745 0.03377742  0.00242148  0.0125484   0.009334030
2568    -92.6291543053  -0.000423517975 0.01935554  0.00140253  0.0152588   0.010978838
2569    -92.6288525456   0.000301759695 0.15561894  0.01127804  0.0143623   0.010430574
2570    -92.6258021599   0.003050385682 1.09862258  0.06239492  0.0088345   0.006893593
2571    -92.6151610513   0.010641108568 1.12778259  0.06544144  0.0630039   0.045808819
2572    -92.6251661640  -0.010005112655 0.25532635  0.01536088  0.0092896   0.003995988
2573    -92.6218164402   0.003349723763 0.39624120  0.02436607  0.0057672   0.004555359
2574    -92.6282075877  -0.006391147506 0.20804703  0.01403505  0.0110918   0.004441623
2575    -92.6322923931  -0.004084805396 0.20383044  0.01371847  0.0089366   0.004546887
2576    -92.6282782374   0.004014155703 0.35467616  0.02235950  0.0107473   0.004655178
2577    -92.6340113545  -0.005733117106 0.03389332  0.00198133  0.0090131   0.006636619
2578    -92.6340644665  -0.000053111977 1.46416548  0.07109276  0.0112332   0.008410402
2579    -92.5920110761   0.042053390392 1.73582422  0.08603652  0.1012600   0.044992234
               *** Restarting incremental Fock matrix formation ***
                             ****Resetting KDIIS****
2580    -92.6306455669  -0.038634490782 0.01305362  0.00087144  0.0130848   0.008323775
2581    -92.6310414729  -0.000395905949 0.03171189  0.00203683  0.0125476   0.007239943
2582    -92.6318986259  -0.000857153004 0.04076443  0.00252163  0.0116793   0.006428411
2583    -92.6324313927  -0.000532766861 0.56745080  0.03017037  0.0108593   0.005533090
2584    -92.6335426719  -0.001111279144 0.41711838  0.02167091  0.0131207   0.007248418
2585    -92.6340435451  -0.000500873230 0.07411107  0.00402143  0.0073375   0.003290110
2586    -92.6345607154  -0.000517170260 0.00208958  0.00026164  0.0046102   0.002007993
2587    -92.6345482109   0.000012504426 0.07720593  0.00409559  0.0046757   0.001972928
2588    -92.6348081482  -0.000259937265 0.07475765  0.00389982  0.0017430   0.000810324
2589    -92.6348209293  -0.000012781135 0.07289138  0.00378512  0.0016346   0.000770542
2590    -92.6348224917  -0.000001562317 0.04031363  0.00221138  0.0016592   0.000740821
2591    -92.6348594662  -0.000036974538 0.00523345  0.00027668  0.0002115   0.000143566
                          ***Energy convergence achieved***
2592    -92.6348599047  -0.000000438523 0.00768791  0.00049689  0.0003009   0.000191802
2593    -92.6348622450  -0.000002340282 0.00337003  0.00021346  0.0001981   0.000142327
                          ***Energy convergence achieved***
2594    -92.6348623177  -0.000000072695 0.00492901  0.00033947  0.0001558   0.000128774
2595    -92.6348634149  -0.000001097202 0.00345189  0.00020076  0.0001197   0.000095200
                          ***Energy convergence achieved***
2596    -92.6348636856  -0.000000270709 0.00740392  0.00043079  0.0001938   0.000116572
2597    -92.6348631592   0.000000526385 0.00884072  0.00051415  0.0001819   0.000114319
2598    -92.6348633493  -0.000000190087 0.00067301  0.00004220  0.0000417   0.000027410
2599    -92.6348633780  -0.000000028700 0.00031354  0.00002189  0.0000842   0.000034145
               *** Restarting incremental Fock matrix formation ***
                             ****Resetting KDIIS****

            ***Energy convergence in two consecutive cycles with***
                    ***'reasonable' density convergence***
                       *** signaling convergence ***

                    *** KDIIS BlockDiag ( 0.000 sec) ***

               *****************************************************
               *                     SUCCESS                       *
               *           SCF CONVERGED AFTER 2600 CYCLES          *
               *****************************************************

Setting up the final grid:

General Integration Accuracy     IntAcc      ...  4.670
Radial Grid Type                 RadialGrid  ... Gauss-Chebyshev
Angular Grid (max. acc.)         AngularGrid ... Lebedev-302
Angular grid pruning method      GridPruning ... 3 (G Style)
Weight generation scheme         WeightScheme... Becke
Basis function cutoff            BFCut       ...    1.0000e-10
Integration weight cutoff        WCut        ...    1.0000e-14
Grids for H and He will be reduced by one unit

# of grid points (after initial pruning)     ...  15818 (   0.0 sec)
# of grid points (after weights+screening)   ...  15749 (   0.0 sec)
nearest neighbour list constructed           ...    0.0 sec
Grid point re-assignment to atoms done       ...    0.0 sec
Grid point division into batches done        ...    0.1 sec
Reduced shell lists constructed in    0.1 sec

Total number of grid points                  ...    15749
Total number of batches                      ...      248
Average number of points per batch           ...       63
Average number of grid points per atom       ...     5250
Average number of shells per batch           ...     8.53 (60.93%)
Average number of basis functions per batch  ...    18.01 (60.03%)
Average number of large shells per batch     ...     7.05 (82.63%)
Average number of large basis fcns per batch ...    15.18 (84.28%)
Maximum spatial batch extension              ...  20.24, 21.49, 24.37 au
Average spatial batch extension              ...   3.52,  4.23,  4.26 au

Final grid set up in    0.1 sec
Final integration                            ... done (   0.1 sec)
Change in XC energy                          ...     0.000461985
Integrated number of electrons               ...    14.000011729
Previous integrated no of electrons          ...    13.999169268

----------------
TOTAL SCF ENERGY
----------------

Total Energy       :          -92.63440136 Eh           -2520.71021 eV

Components:
Nuclear Repulsion  :            9.17432061 Eh             249.64596 eV
Electronic Energy  :         -101.80872197 Eh           -2770.35617 eV
One Electron Energy:         -143.15684739 Eh           -3895.49586 eV
Two Electron Energy:           41.34812543 Eh            1125.13969 eV

Virial components:
Potential Energy   :         -184.87242673 Eh           -5030.63448 eV
Kinetic Energy     :           92.23802538 Eh            2509.92427 eV
Virial Ratio       :            2.00429732


DFT components:
N(Alpha)           :        7.000005864345 electrons
N(Beta)            :        7.000005864345 electrons
N(Total)           :       14.000011728691 electrons
E(XC)              :       -8.475124002527 Eh       

---------------
SCF CONVERGENCE
---------------

  Last Energy change         ...    3.6579e-08  Tolerance :   1.0000e-06
  Last MAX-Density change    ...    1.2339e-05  Tolerance :   1.0000e-05
  Last RMS-Density change    ...    1.0932e-06  Tolerance :   1.0000e-06
  Last DIIS Error            ...    2.2073e-05  Tolerance :   1.0000e-06

             **** THE GBW FILE WAS UPDATED (Scan_35.gbw) ****
             **** DENSITY FILE WAS UPDATED (Scan_35.scfp.tmp) ****
             **** ENERGY FILE WAS UPDATED (Scan_35.en.tmp) ****
----------------
ORBITAL ENERGIES
----------------

  NO   OCC          E(Eh)            E(eV) 
   0   2.0000     -14.245570      -387.6417 
   1   2.0000     -10.732172      -292.0373 
   2   2.0000      -0.990880       -26.9632 
   3   2.0000      -0.639012       -17.3884 
   4   2.0000      -0.557056       -15.1583 
   5   2.0000      -0.101661        -2.7663 
   6   2.0000      -0.092622        -2.5204 
   7   0.0000      -0.267385        -7.2759 
   8   0.0000      -0.267183        -7.2704 
   9   0.0000       0.040017         1.0889 
  10   0.0000       0.162993         4.4353 
  11   0.0000       0.461470        12.5572 
  12   0.0000       0.461860        12.5678 
  13   0.0000       0.501105        13.6357 
  14   0.0000       0.559415        15.2225 
  15   0.0000       0.770316        20.9614 
  16   0.0000       1.004059        27.3218 
  17   0.0000       1.006667        27.3928 
  18   0.0000       1.016960        27.6729 
  19   0.0000       1.091020        29.6882 
  20   0.0000       1.492749        40.6198 
  21   0.0000       1.492876        40.6232 
  22   0.0000       1.507270        41.0149 
  23   0.0000       1.507908        41.0323 
  24   0.0000       1.959624        53.3241 
  25   0.0000       2.058983        56.0278 
  26   0.0000       2.059460        56.0408 
  27   0.0000       2.064074        56.1663 
  28   0.0000       2.097241        57.0688 
  29   0.0000       2.097395        57.0730 

                    ********************************
                    * MULLIKEN POPULATION ANALYSIS *
                    ********************************

-----------------------
MULLIKEN ATOMIC CHARGES
-----------------------
   0 C :    0.672985
   1 N :   -0.797808
   2 H :    0.124822
Sum of atomic charges:   -0.0000000

--------------------------------
MULLIKEN REDUCED ORBITAL CHARGES
--------------------------------
  0 C s       :     3.956363  s :     3.956363
      pz      :     0.000087  p :     1.352937
      px      :     1.351683
      py      :     0.001168
      dz2     :     0.004426  d :     0.017714
      dxz     :     0.000000
      dyz     :     0.000000
      dx2y2   :     0.013241
      dxy     :     0.000047
  1 N s       :     3.999633  s :     3.999633
      pz      :     1.999898  p :     3.797933
      px      :     1.796595
      py      :     0.001441
      dz2     :     0.000087  d :     0.000241
      dxz     :     0.000014
      dyz     :     0.000000
      dx2y2   :     0.000140
      dxy     :     0.000000
  2 H s       :     0.875178  s :     0.875178


                     *******************************
                     * LOEWDIN POPULATION ANALYSIS *
                     *******************************

----------------------
LOEWDIN ATOMIC CHARGES
----------------------
   0 C :    0.714101
   1 N :   -0.804739
   2 H :    0.090638

-------------------------------
LOEWDIN REDUCED ORBITAL CHARGES
-------------------------------
  0 C s       :     3.816876  s :     3.816876
      pz      :     0.000081  p :     1.443188
      px      :     1.441861
      py      :     0.001246
      dz2     :     0.006456  d :     0.025834
      dxz     :     0.000000
      dyz     :     0.000000
      dx2y2   :     0.019311
      dxy     :     0.000068
  1 N s       :     3.999714  s :     3.999714
      pz      :     1.999904  p :     3.804779
      px      :     1.803429
      py      :     0.001446
      dz2     :     0.000088  d :     0.000246
      dxz     :     0.000014
      dyz     :     0.000000
      dx2y2   :     0.000143
      dxy     :     0.000001
  2 H s       :     0.909362  s :     0.909362


                      *****************************
                      * MAYER POPULATION ANALYSIS *
                      *****************************

  NA   - Mulliken gross atomic population
  ZA   - Total nuclear charge
  QA   - Mulliken gross atomic charge
  VA   - Mayer's total valence
  BVA  - Mayer's bonded valence
  FA   - Mayer's free valence

  ATOM       NA         ZA         QA         VA         BVA        FA
  0 C      5.3270     6.0000     0.6730     0.6667     0.6667    -0.0000
  1 N      7.7978     7.0000    -0.7978     0.3638     0.3638    -0.0000
  2 H      0.8752     1.0000     0.1248     0.9637     0.9637    -0.0000

  Mayer bond orders larger than 0.1
B(  0-C ,  2-H ) :   0.6333 B(  1-N ,  2-H ) :   0.3304 

-------
TIMINGS
-------

Total SCF time: 0 days 0 hours 13 min 22 sec 

Total time                  ....     802.115 sec
Sum of individual times     ....     779.566 sec  ( 97.2%)

Fock matrix formation       ....     778.464 sec  ( 97.1%)
  XC integration            ....     129.459 sec  ( 16.6% of F)
    Basis function eval.    ....      29.124 sec  ( 22.5% of XC)
    Density eval.           ....       6.209 sec  (  4.8% of XC)
    XC-Functional eval.     ....      36.313 sec  ( 28.0% of XC)
    XC-Potential eval.      ....       3.251 sec  (  2.5% of XC)
Diagonalization             ....       0.796 sec  (  0.1%)
Density matrix formation    ....       0.025 sec  (  0.0%)
Population analysis         ....       0.009 sec  (  0.0%)
Initial guess               ....       0.119 sec  (  0.0%)
Orbital Transformation      ....       0.000 sec  (  0.0%)
Orbital Orthonormalization  ....       0.000 sec  (  0.0%)
DIIS solution               ....       0.000 sec  (  0.0%)
Grid generation             ....       0.153 sec  (  0.0%)


-------------------------------------------------------------------------------
                          DFT DISPERSION CORRECTION                            
                                                                               
                              DFTD3 V3.1  Rev 1                                
                              USING zero damping                               
-------------------------------------------------------------------------------
The omegaB97X-D3 functional is recognized. Fit by Chai et al.
Active option DFTDOPT                   ...         3   

molecular C6(AA) [au] = 177.240609 


            DFT-D V3
 parameters
 s6 scaling factor         :     1.0000 
 rs6 scaling factor        :     1.2810 
 s8 scaling factor         :     1.0000 
 rs8 scaling factor        :     1.0940 
 Damping factor alpha6     :    14.0000 
 Damping factor alpha8     :    16.0000 
 ad hoc parameters k1-k3   :    16.0000     1.3333    -4.0000 

 Edisp/kcal,au: -0.116908819839  -0.000186306043 
 E6   /kcal   :  -0.067451403 
 E8   /kcal   :  -0.049457417 
 % E8         :  42.304264664 

-------------------------   ----------------
Dispersion correction           -0.000186306
-------------------------   ----------------


-------------------------   --------------------
FINAL SINGLE POINT ENERGY       -92.634587662503
-------------------------   --------------------


                            ***************************************
                            *     ORCA property calculations      *
                            ***************************************

                                    ---------------------
                                    Active property flags
                                    ---------------------
   (+) Dipole Moment


------------------------------------------------------------------------------
                       ORCA ELECTRIC PROPERTIES CALCULATION
------------------------------------------------------------------------------

Dipole Moment Calculation                       ... on
Quadrupole Moment Calculation                   ... off
Polarizability Calculation                      ... off
GBWName                                         ... Scan_35.gbw
Electron density file                           ... Scan_35.scfp.tmp

-------------
DIPOLE MOMENT
-------------
                                X             Y             Z
Electronic contribution:     -3.47725      -0.10274      -0.00003
Nuclear contribution   :     -2.92515      -0.08638       0.00000
                        -----------------------------------------
Total Dipole Moment    :     -6.40240      -0.18912      -0.00003
                        -----------------------------------------
Magnitude (a.u.)       :      6.40519
Magnitude (Debye)      :     16.28071


Timings for individual modules:

Sum of individual times         ...      802.516 sec (=  13.375 min)
GTO integral calculation        ...        0.377 sec (=   0.006 min)   0.0 %
SCF iterations                  ...      802.139 sec (=  13.369 min) 100.0 %
                             ****ORCA TERMINATED NORMALLY****
TOTAL RUN TIME: 0 days 0 hours 13 minutes 22 seconds 879 msec
