
                                 *****************
                                 * O   R   C   A *
                                 *****************

           --- An Ab Initio, DFT and Semiempirical electronic structure package ---

                  #######################################################
                  #                        -***-                        #
                  #  Department of molecular theory and spectroscopy    #
                  #              Directorship: Frank Neese              #
                  # Max Planck Institute for Chemical Energy Conversion #
                  #                  D-45470 Muelheim/Ruhr              #
                  #                       Germany                       #
                  #                                                     #
                  #                  All rights reserved                #
                  #                        -***-                        #
                  #######################################################


                         Program Version 4.0.0.2 - RELEASE -


 With contributions from (in alphabetic order):
   Daniel Aravena         : Magnetic Properties
   Michael Atanasov       : Ab Initio Ligand Field Theory
   Ute Becker             : Parallelization
   Martin Brehm           : Molecular dynamics
   Dmytro Bykov           : SCF Hessian
   Vijay G. Chilkuri      : MRCI spin determinant printing
   Dipayan Datta          : RHF DLPNO-CCSD density
   Achintya Kumar Dutta   : EOM-CC, STEOM-CC
   Dmitry Ganyushin       : Spin-Orbit,Spin-Spin,Magnetic field MRCI
   Yang Guo               : DLPNO-NEVPT2, CIM, IAO-localization
   Andreas Hansen         : Spin unrestricted coupled pair/coupled cluster methods
   Lee Huntington         : MR-EOM, pCC
   Robert Izsak           : Overlap fitted RIJCOSX, COSX-SCS-MP3, EOM
   Christian Kollmar      : KDIIS, OOCD, Brueckner-CCSD(T), CCSD density
   Simone Kossmann        : Meta GGA functionals, TD-DFT gradient, OOMP2, MP2 Hessian
   Martin Krupicka        : AUTO-CI
   Dagmar Lenk            : GEPOL surface
   Dimitrios Liakos       : Extrapolation schemes; parallel MDCI
   Dimitrios Manganas     : ROCIS; embedding schemes
   Dimitrios Pantazis     : SARC Basis sets
   Taras Petrenko         : DFT Hessian,TD-DFT gradient, ASA, ECA, R-Raman, ABS, FL, XAS/XES, NRVS
   Peter Pinski           : DLPNO-MP2
   Christoph Reimann      : Effective Core Potentials
   Marius Retegan         : Local ZFS, SOC
   Christoph Riplinger    : Optimizer, TS searches, QM/MM, DLPNO-CCSD(T), (RO)-DLPNO pert. Triples
   Tobias Risthaus        : Range-separated hybrids, TD-DFT gradient, RPA, STAB
   Michael Roemelt        : Restricted open shell CIS
   Masaaki Saitow         : Open-shell DLPNO
   Barbara Sandhoefer     : DKH picture change effects
   Kantharuban Sivalingam : CASSCF convergence, NEVPT2, FIC-MRCI
   Georgi Stoychev        : AutoAux
   Boris Wezisla          : Elementary symmetry handling
   Frank Wennmohs         : Technical directorship


 We gratefully acknowledge several colleagues who have allowed us to
 interface, adapt or use parts of their codes:
   Stefan Grimme, W. Hujo, H. Kruse,             : VdW corrections, initial TS optimization,
                  C. Bannwarth                     DFT functionals, gCP, sTDA/sTD-DF
   Ed Valeev                                     : LibInt (2-el integral package), F12 methods
   Garnet Chan, S. Sharma, J. Yang, R. Olivares  : DMRG
   Ulf Ekstrom                                   : XCFun DFT Library
   Mihaly Kallay                                 : mrcc  (arbitrary order and MRCC methods)
   Jiri Pittner, Ondrej Demel                    : Mk-CCSD
   Frank Weinhold                                : gennbo (NPA and NBO analysis)
   Christopher J. Cramer and Donald G. Truhlar   : smd solvation model


 Your calculation uses the libint2 library for the computation of 2-el integrals
 For citations please refer to: http://libint.valeyev.net

 This ORCA versions uses:
   CBLAS   interface :  Fast vector & matrix operations
   LAPACKE interface :  Fast linear algebra routines
   SCALAPACK package :  Parallel linear algebra routines


Your calculation utilizes the atom-pairwise dispersion correction
with the zero-damping scheme (D30)
Cite in your paper:
S.Grimme, J.Antony, S.Ehrlich and H.Krieg, J.Chem.Phys., 132, (2010), 154104 
   

XCFun DFT library Copyright 2009-2010 Ulf Ekstrom and contributors.
See http://admol.org/xcfun for more information. This is free soft-
ware; see the source code for copying conditions. There is ABSOLUTELY
NO WARRANTY; not even for MERCHANTABILITY or FITNESS FOR A PARTICULAR
PURPOSE. For details see the documentation. Scientific users of this 
library should cite U. Ekstrom, L. Visscher, R. Bast, A. J. Thorvald-
sen and K. Ruud; J.Chem.Theor.Comp. 2010, DOI: 10.1021/ct100117s
XCFun Version 0.99 
Your calculation utilizes the basis: 6-31G(d)
   H-He, Li-Ne : W. J. Hehre, R. Ditchfield and J.A. Pople, J. Chem. Phys. 56, 2257 (1972).
                 Note: He and Ne are unpublished basis sets taken from the Gaussian program.
                 Note: Li and B from J. D. Dill and J. A. Pople, J. Chem. Phys. 62, 2921 (1975).
   Na - Ar     : M. M. Francl, W. J. Pietro, W. J. Hehre, J. S. Binkley, M. S. Gordon, 
                 D. J. DeFrees and J. A. Pople, J. Chem. Phys. 77, 3654 (1982).
   K - Zn      : V. A. Rassolov, J. A. Pople, M. A. Ratner, and T. L. Windus, J. Chem. Phys. 109, 1223 (1998).

================================================================================
                                        WARNINGS
                       Please study these warnings very carefully!
================================================================================

Warning: TCutStore was < 0. Adjusted to Thresh (uncritical)

INFO   : the flag for use of LIBINT has been found!

================================================================================
                                       INPUT FILE
================================================================================
NAME = initial36.inp
|  1> ! WB97X-D3 6-31G(d) VerySlowConv
|  2> ! KDIIS NOSOSCF
|  3> %base "Scan_36"
|  4> 
|  5> %scf
|  6> maxiter 1999
|  7> end
|  8> 
|  9> * xyz 0 1
| 10> C         -4.469124893901    0.371584224421   -0.000000000000
| 11> N         -0.391233403180    0.492098641519   -0.000000000000
| 12> H         -5.579421702920    0.338847134060    0.000000000000
| 13> *
| 14> 
| 15>                          ****END OF INPUT****
================================================================================

                       ****************************
                       * Single Point Calculation *
                       ****************************

---------------------------------
CARTESIAN COORDINATES (ANGSTROEM)
---------------------------------
  C     -4.469125    0.371584   -0.000000
  N     -0.391233    0.492099   -0.000000
  H     -5.579422    0.338847    0.000000

----------------------------
CARTESIAN COORDINATES (A.U.)
----------------------------
  NO LB      ZA    FRAG     MASS         X           Y           Z
   0 C     6.0000    0    12.011   -8.445422    0.702192   -0.000000
   1 N     7.0000    0    14.007   -0.739324    0.929932   -0.000000
   2 H     1.0000    0     1.008  -10.543579    0.640328    0.000000

--------------------------------
INTERNAL COORDINATES (ANGSTROEM)
--------------------------------
 C      0   0   0     0.000000000000     0.00000000     0.00000000
 N      1   0   0     4.079671890584     0.00000000     0.00000000
 H      1   2   0     1.110779330562   179.99609983     0.00000000

---------------------------
INTERNAL COORDINATES (A.U.)
---------------------------
 C      0   0   0     0.000000000000     0.00000000     0.00000000
 N      1   0   0     7.709462589461     0.00000000     0.00000000
 H      1   2   0     2.099068729982   179.99609983     0.00000000

---------------------
BASIS SET INFORMATION
---------------------
There are 3 groups of distinct atoms

 Group   1 Type C   : 10s4p1d contracted to 3s2p1d pattern {631/31/1}
 Group   2 Type N   : 10s4p1d contracted to 3s2p1d pattern {631/31/1}
 Group   3 Type H   : 4s contracted to 2s pattern {31}

Atom   0C    basis set group =>   1
Atom   1N    basis set group =>   2
Atom   2H    basis set group =>   3
------------------------------------------------------------------------------
                           ORCA GTO INTEGRAL CALCULATION
------------------------------------------------------------------------------

                         BASIS SET STATISTICS AND STARTUP INFO

 # of primitive gaussian shells          ...   34
 # of primitive gaussian functions       ...   58
 # of contracted shells                  ...   14
 # of contracted basis functions         ...   30
 Highest angular momentum                ...    2
 Maximum contraction depth               ...    6
 Integral package used                   ... LIBINT
 Integral threshhold            Thresh   ...  1.000e-10
 Primitive cut-off              TCut     ...  1.000e-11


------------------------------ INTEGRAL EVALUATION ----------------------------


 * One electron integrals 
 Pre-screening matrix                    ... done
 Shell pair data                         ... done (   0.000 sec)

-------------------------------------------------------------------------------
                                 ORCA SCF
-------------------------------------------------------------------------------

------------
SCF SETTINGS
------------
Hamiltonian:
 Density Functional     Method          .... DFT(GTOs)
 Exchange Functional    Exchange        .... WB97X-D3
 Correlation Functional Correlation     .... WB97X-D3
 Gradients option       PostSCFGGA      .... off
 Hybrid DFT is turned on
   Fraction HF Exchange ScalHFX         ....  0.195728
   Scaling of DF-GGA-X  ScalDFX         ....  0.000000
   Scaling of DF-GGA-C  ScalDFC         ....  1.000000
   Scaling of DF-LDA-C  ScalLDAC        ....  1.000000
   Perturbative correction              ....  0.000000
 Long-range corrected/Screened/Range-Separated Hybrid DFT is turned on
   Amount of maximum screened exact exchange              ....  0.804272
   Range separation parameter mu (erf(mu*r12)/r12)        ....  0.250000


General Settings:
 Integral files         IntName         .... Scan_36
 Hartree-Fock type      HFTyp           .... RHF
 Total Charge           Charge          ....    0
 Multiplicity           Mult            ....    1
 Number of Electrons    NEL             ....   14
 Basis Dimension        Dim             ....   30
 Nuclear Repulsion      ENuc            ....      9.0199254414 Eh

Convergence Acceleration:
 DIIS                   CNVDIIS         .... on
   Start iteration      DIISMaxIt       ....     0
   Startup error        DIISStart       ....  0.200000
   # of expansion vecs  DIISMaxEq       ....     5
   Bias factor          DIISBfac        ....   1.050
   Max. coefficient     DIISMaxC        ....  10.000
 Newton-Raphson         CNVNR           .... off
 SOSCF                  CNVSOSCF        .... off
 Level Shifting         CNVShift        .... off
 Zerner damping         CNVZerner       .... off
 Static damping         CNVDamp         .... off
 Fernandez-Rico         CNVRico         .... off

SCF Procedure:
 Maximum # iterations   MaxIter         ....  1999
 SCF integral mode      SCFMode         .... Direct
   Integral package                     .... LIBINT
 Reset frequeny         DirectResetFreq ....    20
 Integral Threshold     Thresh          ....  1.000e-10 Eh
 Primitive CutOff       TCut            ....  1.000e-11 Eh

Convergence Tolerance:
 Convergence Check Mode ConvCheckMode   .... All-Criteria
 Convergence forced     ConvForced      .... 0
 Energy Change          TolE            ....  1.000e-06 Eh
 Max Density Change     TolMaxP         ....  1.000e-05
 RMS Density Change     TolRMSP         ....  1.000e-06
 DIIS Error             TolErr          ....  1.000e-06


Diagonalization of the overlap matrix:
Smallest eigenvalue                        ... 4.844e-02
Time for diagonalization                   ...    0.001 sec
Threshold for overlap eigenvalues          ... 1.000e-08
Number of eigenvalues below threshold      ... 0
Time for construction of square roots      ...    0.004 sec
Total time needed                          ...    0.005 sec

-------------------
DFT GRID GENERATION
-------------------

General Integration Accuracy     IntAcc      ...  4.340
Radial Grid Type                 RadialGrid  ... Gauss-Chebyshev
Angular Grid (max. acc.)         AngularGrid ... Lebedev-110
Angular grid pruning method      GridPruning ... 3 (G Style)
Weight generation scheme         WeightScheme... Becke
Basis function cutoff            BFCut       ...    1.0000e-10
Integration weight cutoff        WCut        ...    1.0000e-14
Grids for H and He will be reduced by one unit

# of grid points (after initial pruning)     ...   4152 (   0.0 sec)
# of grid points (after weights+screening)   ...   4117 (   0.0 sec)
nearest neighbour list constructed           ...    0.0 sec
Grid point re-assignment to atoms done       ...    0.0 sec
Grid point division into batches done        ...    0.0 sec
Reduced shell lists constructed in    0.0 sec

Total number of grid points                  ...     4117
Total number of batches                      ...       67
Average number of points per batch           ...       61
Average number of grid points per atom       ...     1372
Average number of shells per batch           ...     9.72 (69.43%)
Average number of basis functions per batch  ...    20.78 (69.26%)
Average number of large shells per batch     ...     8.13 (83.66%)
Average number of large basis fcns per batch ...    17.49 (84.15%)
Maximum spatial batch extension              ...  20.26, 25.60, 31.36 au
Average spatial batch extension              ...   5.09,  6.70,  6.88 au

Time for grid setup =    0.026 sec

------------------------------
INITIAL GUESS: MODEL POTENTIAL
------------------------------
Loading Hartree-Fock densities                     ... done
Calculating cut-offs                               ... done
Setting up the integral package                    ... done
Initializing the effective Hamiltonian             ... done
Starting the Coulomb interaction                   ... done (   0.0 sec)
Reading the grid                                   ... done
Mapping shells                                     ... done
Starting the XC term evaluation                    ... done (   0.0 sec)
  promolecular density results
     # of electrons  =     13.997206602
     EX              =    -11.613831559
     EC              =     -0.388742881
     EX+EC           =    -12.002574440
Transforming the Hamiltonian                       ... done (   0.0 sec)
Diagonalizing the Hamiltonian                      ... done (   0.0 sec)
Back transforming the eigenvectors                 ... done (   0.0 sec)
Now organizing SCF variables                       ... done
                      ------------------
                      INITIAL GUESS DONE (   0.1 sec)
                      ------------------
--------------
SCF ITERATIONS
--------------
ITER       Energy         Delta-E        Max-DP      RMS-DP      [F,P]   Gradient Norm
               ***  Starting incremental Fock matrix formation  ***
                             ****Resetting KDIIS****
                             ****Turning on KDIIS(Cayley)****
  0    -92.5190112347   0.000000000000 0.04755015  0.00346585  0.1516169   0.112166587
  1    -92.5492243554  -0.030213120744 0.03797723  0.00376879  0.1253896   0.094121703
  2    -92.5755668614  -0.026342505987 0.05951420  0.00584613  0.1003507   0.075535017
  3    -92.6058580263  -0.030291164869 0.08780345  0.00900504  0.0597995   0.045766104
  4    -92.6220128487  -0.016154822439 0.01739515  0.00126515  0.0089786   0.005161756
  5    -92.6221815513  -0.000168702571 0.09225538  0.00604865  0.0091038   0.004439776
  6    -92.6200565447   0.002125006558 0.02046625  0.00130108  0.0118998   0.006664960
  7    -92.6197342304   0.000322314288 0.13464043  0.00848331  0.0118552   0.006439033
  8    -92.6195794410   0.000154789394 0.03864948  0.00248837  0.0102896   0.004645699
  9    -92.6188922089   0.000687232166 0.08358223  0.00540874  0.0043194   0.003192212
 10    -92.6185961137   0.000296095158 0.02411432  0.00168377  0.0011037   0.001069400
 11    -92.6185800097   0.000016104034 0.01448861  0.00099292  0.0007695   0.000574746
 12    -92.6185763938   0.000003615894 0.00097198  0.00007829  0.0006925   0.000410851
                          ***Energy convergence achieved***
 13    -92.6185757828   0.000000610995 0.00852329  0.00059030  0.0005772   0.000457987
 14    -92.6185880766  -0.000012293827 0.00498762  0.00038968  0.0005771   0.000371521
 15    -92.6185731282   0.000014948429 0.02067259  0.00155675  0.0005842   0.000353979
 16    -92.6185282113   0.000044916929 0.00178760  0.00014772  0.0006018   0.000300151
 17    -92.6185353622  -0.000007150932 0.00124324  0.00010701  0.0005963   0.000289884
 18    -92.6185316065   0.000003755670 0.01204298  0.00099150  0.0005980   0.000288675
 19    -92.6185018706   0.000029735904 0.00306069  0.00032331  0.0006097   0.000284214
               *** Restarting incremental Fock matrix formation ***
                             ****Resetting KDIIS****
 20    -92.6184894080   0.000012462659 0.00013605  0.00001499  0.0006176   0.000301198
                          ***Energy convergence achieved***
 21    -92.6184902690  -0.000000861043 0.00013402  0.00001203  0.0006179   0.000310831
 22    -92.6184902372   0.000000031776 0.00043680  0.00004646  0.0006170   0.000292850
 23    -92.6184918018  -0.000001564533 0.00422460  0.00042696  0.0006146   0.000271431
 24    -92.6185104785  -0.000018676754 0.00018014  0.00001733  0.0006004   0.000259608
                          ***Energy convergence achieved***
 25    -92.6185098762   0.000000602300 0.00327791  0.00033494  0.0006010   0.000258875
 26    -92.6185244443  -0.000014568116 0.00037022  0.00002829  0.0005917   0.000257944
                          ***Energy convergence achieved***
 27    -92.6185242422   0.000000202184 0.00184873  0.00019928  0.0005922   0.000256271
 28    -92.6185324810  -0.000008238853 0.00105040  0.00009000  0.0005869   0.000256720
 29    -92.6185296659   0.000002815132 0.00109603  0.00010381  0.0005874   0.000257198
 30    -92.6185248974   0.000004768501 0.00003509  0.00000353  0.0005916   0.000257478
                          ***Energy convergence achieved***
 31    -92.6185248677   0.000000029680 0.00105833  0.00010600  0.0005917   0.000257362
 32    -92.6185201349   0.000004732797 0.00120396  0.00012916  0.0005947   0.000256377
 33    -92.6185255229  -0.000005387974 0.00136170  0.00013844  0.0005913   0.000257255
 34    -92.6185200644   0.000005458458 0.00090177  0.00006748  0.0005946   0.000257582
 35    -92.6185188100   0.000001254416 0.00166223  0.00015333  0.0005942   0.000258846
 36    -92.6185115799   0.000007230151 0.00019408  0.00001579  0.0006000   0.000257067
                          ***Energy convergence achieved***
 37    -92.6185108182   0.000000761699 0.00017815  0.00001388  0.0006004   0.000256539
 38    -92.6185101350   0.000000683163 0.00223656  0.00019644  0.0006011   0.000256969
 39    -92.6185037300   0.000006404983 0.01589137  0.00121581  0.0006041   0.000257892
               *** Restarting incremental Fock matrix formation ***
                             ****Resetting KDIIS****
 40    -92.6184811148   0.000022615185 0.00013500  0.00001161  0.0006070   0.000255431
                          ***Energy convergence achieved***
 41    -92.6184816978  -0.000000583017 0.00010972  0.00000908  0.0006065   0.000255227
 42    -92.6184821447  -0.000000446865 0.00050365  0.00004385  0.0006063   0.000253695
 43    -92.6184842888  -0.000002144055 0.03901423  0.00330745  0.0006052   0.000252178
 44    -92.6186331778  -0.000148889029 0.00094503  0.00007240  0.0004650   0.000245830
 45    -92.6186349224  -0.000001744579 0.01378628  0.00112091  0.0004661   0.000253433
 46    -92.6186775434  -0.000042620990 0.00545151  0.00039899  0.0003964   0.000226115
 47    -92.6186623002   0.000015243188 0.00085073  0.00007415  0.0004267   0.000223592
 48    -92.6186600882   0.000002211992 0.00843382  0.00071018  0.0004291   0.000228616
 49    -92.6186794035  -0.000019315371 0.01030318  0.00080599  0.0003786   0.000244922
 50    -92.6186990098  -0.000019606273 0.02662969  0.00207463  0.0003222   0.000243709
 51    -92.6187126487  -0.000013638879 0.00110168  0.00009181  0.0003434   0.000223811
 52    -92.6187108307   0.000001817955 0.02911796  0.00257946  0.0002611   0.000219488
 53    -92.6187300697  -0.000019238913 0.00931678  0.00079904  0.0001926   0.000190328
 54    -92.6187275842   0.000002485428 0.00265772  0.00022411  0.0002521   0.000153978
 55    -92.6187264551   0.000001129103 0.02008916  0.00165088  0.0002611   0.000151555
 56    -92.6187320413  -0.000005586137 0.00788554  0.00058498  0.0002049   0.000115568
 57    -92.6187339535  -0.000001912278 0.00242813  0.00018271  0.0002042   0.000114163
 58    -92.6187326645   0.000001289089 0.00490555  0.00037308  0.0002026   0.000108356
                          ***Energy convergence achieved***
 59    -92.6187320302   0.000000634269 0.00141801  0.00012837  0.0001958   0.000105212
               *** Restarting incremental Fock matrix formation ***
                             ****Resetting KDIIS****
 60    -92.6187308486   0.000001181567 0.00015678  0.00001219  0.0001972   0.000125550
                          ***Energy convergence achieved***
 61    -92.6187310002  -0.000000151549 0.00011368  0.00000938  0.0001960   0.000129288
 62    -92.6187309872   0.000000012953 0.00066212  0.00004913  0.0001926   0.000117075
 63    -92.6187312109  -0.000000223651 0.00185426  0.00013608  0.0001940   0.000101761
 64    -92.6187320999  -0.000000889060 0.00018160  0.00001327  0.0001960   0.000094402
 65    -92.6187320056   0.000000094319 0.00269210  0.00019632  0.0001958   0.000094137
 66    -92.6187333843  -0.000001378696 0.00618109  0.00044964  0.0001981   0.000094674
 67    -92.6187365731  -0.000003188837 0.00831535  0.00060457  0.0001996   0.000095749
 68    -92.6187322939   0.000004279243 0.02863352  0.00212649  0.0001915   0.000091662
 69    -92.6187162452   0.000016048646 0.06987202  0.00506397  0.0002584   0.000130269
 70    -92.6187563025  -0.000040057204 0.00149019  0.00010545  0.0003624   0.000228852
                          ***Energy convergence achieved***
 71    -92.6187572778  -0.000000975329 0.01339807  0.00094135  0.0003746   0.000242936
 72    -92.6187482171   0.000009060708 0.00458326  0.00032313  0.0002974   0.000212865
 73    -92.6187510306  -0.000002813545 0.09947304  0.00739795  0.0003235   0.000239354
 74    -92.6186821687   0.000068861964 0.23312441  0.01611378  0.0005759   0.000315825
 75    -92.6190016733  -0.000319504674 0.08514361  0.00550855  0.0020883   0.001508832
 76    -92.6187970776   0.000204595690 0.02569546  0.00173802  0.0007598   0.000580149
 77    -92.6187683020   0.000028775673 0.01216117  0.00084294  0.0004992   0.000408104
 78    -92.6187583972   0.000009904732 0.01123940  0.00078529  0.0003971   0.000301636
 79    -92.6187508629   0.000007534351 0.00118708  0.00008679  0.0003226   0.000247609
               *** Restarting incremental Fock matrix formation ***
                             ****Resetting KDIIS****
 80    -92.6187496311   0.000001231731 0.00024350  0.00001777  0.0003629   0.000291621
                          ***Energy convergence achieved***
 81    -92.6187499711  -0.000000339901 0.00073886  0.00005211  0.0003214   0.000250687
 82    -92.6187506109  -0.000000639826 0.00055136  0.00004024  0.0003187   0.000217520
 83    -92.6187511760  -0.000000565126 0.00023583  0.00002954  0.0003119   0.000172508
 84    -92.6187516101  -0.000000434070 0.04515042  0.00321133  0.0002967   0.000135189
 85    -92.6187293172   0.000022292897 0.05245081  0.00380687  0.0002245   0.000146349
 86    -92.6186950083   0.000034308922 0.08663351  0.00637713  0.0005475   0.000327794
 87    -92.6187460269  -0.000051018615 0.05479447  0.00373329  0.0002759   0.000184838
 88    -92.6187928074  -0.000046780520 0.02367520  0.00155584  0.0007178   0.000503676
 89    -92.6188297567  -0.000036949316 0.02939739  0.00193624  0.0010154   0.000692316
 90    -92.6187858716   0.000043885077 0.13753656  0.00985566  0.0006497   0.000423087
 91    -92.6186926594   0.000093212262 0.30116388  0.01989244  0.0005943   0.000422487
 92    -92.6193318878  -0.000639228432 0.09637402  0.00594443  0.0039012   0.003050181
 93    -92.6189127541   0.000419133647 0.06446116  0.00400298  0.0017424   0.001367266
 94    -92.6191614882  -0.000248734007 0.18179378  0.01172399  0.0029775   0.002346245
 95    -92.6187448859   0.000416602275 0.03524863  0.00252158  0.0004766   0.000353017
 96    -92.6187294405   0.000015445399 0.02215217  0.00159562  0.0002765   0.000218236
 97    -92.6187389725  -0.000009531977 0.01231087  0.00088053  0.0003059   0.000237542
 98    -92.6187338305   0.000005141926 0.00273316  0.00019664  0.0002469   0.000200512
 99    -92.6187349712  -0.000001140695 0.07093406  0.00517617  0.0002503   0.000202750
               *** Restarting incremental Fock matrix formation ***
                             ****Resetting KDIIS****
100    -92.6186889739   0.000045997300 0.00051890  0.00003724  0.0006215   0.000376499
                          ***Energy convergence achieved***
101    -92.6186898517  -0.000000877723 0.00137189  0.00009660  0.0006018   0.000331554
102    -92.6186918832  -0.000002031512 0.00152706  0.00010768  0.0005728   0.000303765
103    -92.6186933245  -0.000001441365 0.02077979  0.00145834  0.0005500   0.000281213
104    -92.6187105705  -0.000017246008 0.02586487  0.00188794  0.0003462   0.000168306
105    -92.6187265161  -0.000015945513 0.00642439  0.00048007  0.0003808   0.000198131
106    -92.6187221560   0.000004360005 0.02129362  0.00156689  0.0002742   0.000217451
107    -92.6187323072  -0.000010151166 0.05549572  0.00390351  0.0002144   0.000131426
108    -92.6187625514  -0.000030244160 0.09051240  0.00649088  0.0004254   0.000286970
109    -92.6187136162   0.000048935164 0.00358679  0.00025976  0.0003614   0.000246917
110    -92.6187159696  -0.000002353343 0.00162390  0.00011773  0.0003362   0.000230609
                          ***Energy convergence achieved***
111    -92.6187149758   0.000000993781 0.00038482  0.00002789  0.0003448   0.000230243
112    -92.6187147407   0.000000235029 0.00016399  0.00001383  0.0003462   0.000226707
113    -92.6187148860  -0.000000145254 0.04643051  0.00340802  0.0003355   0.000188544
114    -92.6187382317  -0.000023345719 0.01088994  0.00078215  0.0002150   0.000133920
115    -92.6187344722   0.000003759525 0.01141502  0.00082334  0.0004249   0.000189861
116    -92.6187396056  -0.000005133440 0.08764462  0.00597581  0.0004393   0.000207481
117    -92.6188165657  -0.000076960095 0.08597554  0.00585795  0.0009054   0.000617478
118    -92.6187389235   0.000077642270 0.02906731  0.00210726  0.0002290   0.000154077
119    -92.6187259148   0.000013008676 0.00560843  0.00041417  0.0002504   0.000175249
               *** Restarting incremental Fock matrix formation ***
                             ****Resetting KDIIS****
120    -92.6187237840   0.000002130780 0.00019647  0.00001574  0.0002891   0.000193857
                          ***Energy convergence achieved***
121    -92.6187240901  -0.000000306138 0.00021326  0.00001729  0.0003313   0.000190288
122    -92.6187241840  -0.000000093832 0.00065835  0.00005073  0.0003090   0.000162437
123    -92.6187242300  -0.000000045986 0.00688662  0.00051004  0.0002423   0.000129725
124    -92.6187276211  -0.000003391179 0.00675196  0.00049641  0.0002139   0.000100942
125    -92.6187309665  -0.000003345412 0.02023116  0.00146343  0.0002028   0.000115155
126    -92.6187398613  -0.000008894780 0.00194945  0.00013902  0.0002152   0.000113726
                          ***Energy convergence achieved***
127    -92.6187407572  -0.000000895912 0.02035701  0.00146882  0.0002222   0.000128403
128    -92.6187316329   0.000009124380 0.02882492  0.00214069  0.0002063   0.000107891
129    -92.6187161423   0.000015490577 0.11401001  0.00806744  0.0003180   0.000170405
130    -92.6187899589  -0.000073816622 0.00787181  0.00052781  0.0006793   0.000466913
131    -92.6187809004   0.000009058518 0.00117036  0.00007892  0.0005958   0.000408150
132    -92.6187796448   0.000001255543 0.00115515  0.00008044  0.0005835   0.000396186
133    -92.6187781488   0.000001496056 0.00565892  0.00038305  0.0005771   0.000422438
134    -92.6187723589   0.000005789865 0.04705590  0.00326677  0.0005271   0.000410549
135    -92.6187415110   0.000030847881 0.04270787  0.00311432  0.0002491   0.000200784
136    -92.6187213821   0.000020128966 0.06724076  0.00483567  0.0002912   0.000205405
137    -92.6187549349  -0.000033552825 0.00799546  0.00055252  0.0003472   0.000242606
138    -92.6187605135  -0.000005578569 0.01420527  0.00098454  0.0003997   0.000272970
139    -92.6187510756   0.000009437839 0.01119881  0.00079060  0.0003133   0.000228776
               *** Restarting incremental Fock matrix formation ***
                             ****Resetting KDIIS****
140    -92.6187456565   0.000005419135 0.00017836  0.00001371  0.0002483   0.000160777
                          ***Energy convergence achieved***
141    -92.6187458943  -0.000000237824 0.00011401  0.00001063  0.0002621   0.000164687
142    -92.6187458574   0.000000036880 0.00078438  0.00005624  0.0002416   0.000145005
143    -92.6187460783  -0.000000220909 0.00153976  0.00010923  0.0002442   0.000116547
144    -92.6187467866  -0.000000708267 0.00827767  0.00058425  0.0002492   0.000109078
145    -92.6187429257   0.000003860959 0.02053864  0.00147173  0.0002229   0.000119824
146    -92.6187336313   0.000009294393 0.00190879  0.00014090  0.0002152   0.000124234
                          ***Energy convergence achieved***
147    -92.6187330120   0.000000619283 0.01958038  0.00144406  0.0001870   0.000112256
148    -92.6187239307   0.000009081274 0.08389039  0.00595324  0.0002629   0.000140048
149    -92.6187693629  -0.000045432157 0.05201839  0.00362985  0.0004870   0.000340031
150    -92.6187379382   0.000031424694 0.00117630  0.00008462  0.0002291   0.000179072
                          ***Energy convergence achieved***
151    -92.6187374563   0.000000481876 0.01705569  0.00124045  0.0002282   0.000179773
152    -92.6187307550   0.000006701320 0.00044056  0.00004267  0.0002337   0.000189187
                          ***Energy convergence achieved***
153    -92.6187302478   0.000000507160 0.00481038  0.00035341  0.0002318   0.000150273
154    -92.6187280768   0.000002171022 0.05476081  0.00391017  0.0002436   0.000156328
155    -92.6187547393  -0.000026662505 0.00572215  0.00040091  0.0003242   0.000205822
156    -92.6187504541   0.000004285233 0.00081300  0.00005667  0.0003077   0.000218605
                          ***Energy convergence achieved***
157    -92.6187499952   0.000000458910 0.01141852  0.00080253  0.0003035   0.000215214
158    -92.6187442144   0.000005780800 0.09472827  0.00699745  0.0002555   0.000183300
159    -92.6186821819   0.000062032405 0.15453207  0.01113554  0.0007183   0.000399518
               *** Restarting incremental Fock matrix formation ***
                             ****Resetting KDIIS****
160    -92.6187939951  -0.000111813196 0.00053294  0.00003685  0.0007087   0.000468991
161    -92.6187951847  -0.000001189521 0.00153293  0.00010492  0.0007064   0.000417757
162    -92.6187979608  -0.000002776185 0.00058941  0.00004914  0.0007144   0.000369763
                          ***Energy convergence achieved***
163    -92.6187975469   0.000000413923 0.01223409  0.00082917  0.0006986   0.000317341
164    -92.6187820776   0.000015469348 0.04392239  0.00307234  0.0005665   0.000263728
165    -92.6187486843   0.000033393319 0.00319878  0.00023287  0.0002774   0.000188103
166    -92.6187501476  -0.000001463301 0.00168387  0.00012524  0.0002860   0.000171113
                          ***Energy convergence achieved***
167    -92.6187503183  -0.000000170788 0.00895713  0.00065948  0.0002996   0.000220688
168    -92.6187465651   0.000003753293 0.00329410  0.00026265  0.0002636   0.000206804
                          ***Energy convergence achieved***
169    -92.6187459109   0.000000654174 0.00842130  0.00059335  0.0002432   0.000162897
170    -92.6187501032  -0.000004192342 0.00136639  0.00010922  0.0002514   0.000127911
171    -92.6187511226  -0.000001019385 0.00657985  0.00046893  0.0002520   0.000139438
172    -92.6187485209   0.000002601663 0.00305267  0.00026096  0.0002253   0.000158910
                          ***Energy convergence achieved***
173    -92.6187488610  -0.000000340082 0.01955060  0.00149094  0.0002290   0.000159059
174    -92.6187386144   0.000010246626 0.00365759  0.00027063  0.0001969   0.000103436
175    -92.6187401587  -0.000001544266 0.00129760  0.00009271  0.0002016   0.000097174
                          ***Energy convergence achieved***
176    -92.6187407383  -0.000000579586 0.01992223  0.00143347  0.0002069   0.000104192
177    -92.6187326523   0.000008085905 0.00044732  0.00003984  0.0002052   0.000109845
                          ***Energy convergence achieved***
178    -92.6187322767   0.000000375601 0.01265562  0.00093649  0.0002133   0.000116746
179    -92.6187375215  -0.000005244774 0.00431958  0.00031825  0.0002000   0.000095131
               *** Restarting incremental Fock matrix formation ***
                             ****Resetting KDIIS****
180    -92.6187393277  -0.000001806215 0.00015812  0.00001140  0.0001933   0.000097975
                          ***Energy convergence achieved***
181    -92.6187394123  -0.000000084580 0.00006115  0.00000530  0.0001940   0.000098968
182    -92.6187394160  -0.000000003704 0.00011242  0.00000927  0.0001956   0.000092592
183    -92.6187393507   0.000000065363 0.00781344  0.00056273  0.0001989   0.000085500
184    -92.6187360844   0.000003266233 0.00035725  0.00002770  0.0001988   0.000088251
                          ***Energy convergence achieved***
185    -92.6187362129  -0.000000128454 0.00145338  0.00010545  0.0001984   0.000089061
186    -92.6187368422  -0.000000629361 0.02916087  0.00214317  0.0001982   0.000084145
187    -92.6187238063   0.000013035923 0.07373152  0.00528274  0.0002754   0.000132241
188    -92.6187599368  -0.000036130444 0.03256721  0.00228492  0.0003786   0.000241529
189    -92.6187417474   0.000018189309 0.00341306  0.00024308  0.0002341   0.000172450
190    -92.6187402939   0.000001453567 0.00597589  0.00042530  0.0002266   0.000163009
191    -92.6187428985  -0.000002604663 0.05404032  0.00396116  0.0002391   0.000172917
192    -92.6187184304   0.000024468120 0.06389590  0.00466830  0.0003245   0.000175801
193    -92.6187478259  -0.000029395458 0.01172358  0.00082908  0.0002569   0.000136718
194    -92.6187420880   0.000005737849 0.00874117  0.00063798  0.0002067   0.000110427
195    -92.6187385657   0.000003522347 0.00379433  0.00027443  0.0001905   0.000118284
196    -92.6187369825   0.000001583188 0.00529243  0.00038621  0.0001926   0.000108935
197    -92.6187391471  -0.000002164600 0.00459585  0.00032809  0.0002005   0.000098574
198    -92.6187411118  -0.000001964682 0.04028638  0.00293503  0.0002091   0.000102918
199    -92.6187230255   0.000018086300 0.01542395  0.00114417  0.0002822   0.000159238
               *** Restarting incremental Fock matrix formation ***
                             ****Resetting KDIIS****
200    -92.6187305153  -0.000007489840 0.00018293  0.00001389  0.0002324   0.000149928
                          ***Energy convergence achieved***
201    -92.6187306685  -0.000000153199 0.00032694  0.00002481  0.0002279   0.000136721
202    -92.6187309306  -0.000000262103 0.00056910  0.00004282  0.0002198   0.000120883
Warning: badly conditioned DIIS matrix, 1 vectors out of 4 destroyed
203    -92.6187311457  -0.000000215063 0.00474076  0.00035119  0.0002165   0.000107598
204    -92.6187333087  -0.000002162987 0.00017253  0.00001282  0.0002063   0.000096100
                          ***Energy convergence achieved***
205    -92.6187333886  -0.000000079903 0.00071134  0.00005257  0.0002060   0.000095984
206    -92.6187336924  -0.000000303793 0.00427047  0.00032077  0.0002046   0.000093281
207    -92.6187356858  -0.000001993385 0.00018522  0.00001695  0.0001977   0.000088470
                          ***Energy convergence achieved***
208    -92.6187355981   0.000000087622 0.00754332  0.00056954  0.0001891   0.000099161
209    -92.6187321381   0.000003460030 0.00184509  0.00013868  0.0002071   0.000089043
                          ***Energy convergence achieved***
210    -92.6187329516  -0.000000813546 0.00063680  0.00004886  0.0002035   0.000087267
211    -92.6187332630  -0.000000311400 0.00249625  0.00018560  0.0002028   0.000089732
212    -92.6187343880  -0.000001124935 0.00031868  0.00002586  0.0001997   0.000088728
                          ***Energy convergence achieved***
213    -92.6187343502   0.000000037789 0.00105417  0.00007902  0.0001966   0.000086556
214    -92.6187348296  -0.000000479420 0.00134370  0.00009811  0.0001929   0.000090600
215    -92.6187354257  -0.000000596071 0.00523234  0.00038841  0.0001970   0.000086932
216    -92.6187330581   0.000002367546 0.00029363  0.00002397  0.0002040   0.000088885
                          ***Energy convergence achieved***
217    -92.6187332083  -0.000000150121 0.00049088  0.00004265  0.0002034   0.000090829
218    -92.6187334355  -0.000000227265 0.00242260  0.00017994  0.0002024   0.000088501
219    -92.6187345349  -0.000001099425 0.00456738  0.00036410  0.0002018   0.000090430
               *** Restarting incremental Fock matrix formation ***
                             ****Resetting KDIIS****
220    -92.6187323624   0.000002172506 0.00016211  0.00001192  0.0002008   0.000085398
                          ***Energy convergence achieved***
221    -92.6187324336  -0.000000071116 0.00114238  0.00008375  0.0002003   0.000085502
222    -92.6187329347  -0.000000501121 0.00201718  0.00014704  0.0001994   0.000085154
223    -92.6187338007  -0.000000866018 0.01144267  0.00083085  0.0002007   0.000085214
224    -92.6187386821  -0.000004881416 0.02230787  0.00165302  0.0002042   0.000093426
225    -92.6187289313   0.000009750780 0.00574329  0.00048982  0.0002391   0.000131173
226    -92.6187316360  -0.000002704712 0.01497713  0.00109150  0.0002045   0.000091292
227    -92.6187382767  -0.000006640631 0.00595862  0.00045434  0.0002005   0.000106933
228    -92.6187354077   0.000002868962 0.00287710  0.00024507  0.0002097   0.000117544
229    -92.6187368168  -0.000001409046 0.00190138  0.00013651  0.0001889   0.000097296
                          ***Energy convergence achieved***
230    -92.6187376427  -0.000000825983 0.00324841  0.00024038  0.0001965   0.000086813
231    -92.6187361552   0.000001487565 0.00272575  0.00021654  0.0002000   0.000089834
232    -92.6187349058   0.000001249332 0.00381810  0.00029381  0.0002029   0.000092681
233    -92.6187332627   0.000001643104 0.00090430  0.00006145  0.0002035   0.000085928
                          ***Energy convergence achieved***
234    -92.6187334739  -0.000000211194 0.00411115  0.00030148  0.0002058   0.000095602
235    -92.6187351911  -0.000001717132 0.00436944  0.00031636  0.0001895   0.000092684
236    -92.6187370219  -0.000001830792 0.00400298  0.00029010  0.0001982   0.000084480
237    -92.6187353955   0.000001626404 0.00152720  0.00009988  0.0001988   0.000085735
                          ***Energy convergence achieved***
238    -92.6187350851   0.000000310365 0.00068903  0.00005014  0.0002005   0.000088971
239    -92.6187347835   0.000000301595 0.00199565  0.00016280  0.0002013   0.000087709
               *** Restarting incremental Fock matrix formation ***
                             ****Resetting KDIIS****
240    -92.6187339697   0.000000813762 0.00015991  0.00001186  0.0002007   0.000087316
241    -92.6187340461  -0.000000076407 0.00019075  0.00001397  0.0001996   0.000087377
242    -92.6187341275  -0.000000081344 0.00074463  0.00005381  0.0001972   0.000086786
243    -92.6187344148  -0.000000287310 0.05354414  0.00376705  0.0001988   0.000084233
244    -92.6187619252  -0.000027510387 0.00563818  0.00038837  0.0003920   0.000224790
245    -92.6187574748   0.000004450386 0.10042397  0.00730303  0.0003640   0.000242880
246    -92.6187015482   0.000055926627 0.12306933  0.00883598  0.0005292   0.000326121
247    -92.6187759365  -0.000074388361 0.03369429  0.00230734  0.0005470   0.000372967
248    -92.6187507028   0.000025233753 0.00325366  0.00022847  0.0003046   0.000221250
249    -92.6187489518   0.000001750976 0.00774335  0.00054297  0.0002900   0.000214838
250    -92.6187451584   0.000003793421 0.01353757  0.00096034  0.0002589   0.000187096
251    -92.6187392963   0.000005862097 0.02954215  0.00214855  0.0002254   0.000148880
252    -92.6187264883   0.000012808030 0.07570801  0.00536538  0.0002700   0.000184726
253    -92.6187658204  -0.000039332182 0.01594809  0.00109627  0.0004353   0.000287970
254    -92.6187539803   0.000011840181 0.01399013  0.00097598  0.0003346   0.000238955
255    -92.6187465233   0.000007456993 0.01646617  0.00114662  0.0002665   0.000189111
256    -92.6187554762  -0.000008952978 0.11116666  0.00816479  0.0003501   0.000253651
257    -92.6186851369   0.000070339325 0.13934338  0.01006957  0.0007202   0.000485699
258    -92.6187785153  -0.000093378345 0.01255661  0.00085556  0.0005732   0.000394762
259    -92.6187668027   0.000011712608 0.01816386  0.00122595  0.0004594   0.000311669
               *** Restarting incremental Fock matrix formation ***
                             ****Resetting KDIIS****
260    -92.6187843872  -0.000017584512 0.00047489  0.00003260  0.0006292   0.000426353
                          ***Energy convergence achieved***
261    -92.6187853188  -0.000000931604 0.00146471  0.00009873  0.0006259   0.000375812
262    -92.6187874895  -0.000002170731 0.00434646  0.00029069  0.0006330   0.000333254
263    -92.6187828579   0.000004631638 0.00793859  0.00053284  0.0005825   0.000282356
264    -92.6187752847   0.000007573201 0.05554651  0.00384507  0.0004997   0.000252257
265    -92.6187397552   0.000035529477 0.03627496  0.00264236  0.0002306   0.000167255
266    -92.6187239286   0.000015826587 0.02679421  0.00196281  0.0003024   0.000218030
267    -92.6187359683  -0.000012039676 0.05535964  0.00405863  0.0002244   0.000151666
268    -92.6187037590   0.000032209273 0.06977504  0.00514461  0.0005240   0.000339747
269    -92.6187422660  -0.000038506965 0.05713444  0.00392869  0.0002362   0.000156674
270    -92.6187811285  -0.000038862504 0.00072575  0.00004855  0.0005980   0.000404669
                          ***Energy convergence achieved***
271    -92.6187803554   0.000000773118 0.01059236  0.00071232  0.0005908   0.000399741
272    -92.6187701517   0.000010203673 0.00439872  0.00029671  0.0004911   0.000328559
273    -92.6187741826  -0.000004030881 0.08390330  0.00589427  0.0005301   0.000352598
274    -92.6187281208   0.000046061797 0.04573546  0.00326925  0.0002642   0.000191211
275    -92.6186963801   0.000031740624 0.11451753  0.00830242  0.0006127   0.000413610
276    -92.6187634636  -0.000067083415 0.01372844  0.00094144  0.0004231   0.000277637
277    -92.6187542324   0.000009231154 0.02059767  0.00143855  0.0003284   0.000201688
278    -92.6187437048   0.000010527593 0.01597241  0.00111812  0.0002431   0.000156025
279    -92.6187515506  -0.000007845835 0.04329625  0.00294269  0.0003046   0.000192592
               *** Restarting incremental Fock matrix formation ***
                             ****Resetting KDIIS****
280    -92.6187874103  -0.000035859695 0.00049739  0.00003421  0.0006544   0.000446177
281    -92.6187884522  -0.000001041897 0.00128107  0.00008729  0.0006513   0.000394683
282    -92.6187907079  -0.000002255716 0.00069684  0.00005230  0.0006542   0.000343187
283    -92.6187917662  -0.000001058230 0.01240590  0.00083112  0.0006526   0.000290681
284    -92.6187775134   0.000014252757 0.04806050  0.00331928  0.0005253   0.000233404
285    -92.6187444009   0.000033112477 0.00235710  0.00016742  0.0002530   0.000191651
286    -92.6187454195  -0.000001018548 0.01753417  0.00125003  0.0002587   0.000187206
287    -92.6187383546   0.000007064869 0.03068965  0.00218260  0.0002186   0.000137177
288    -92.6187518429  -0.000013488293 0.04626313  0.00331063  0.0003093   0.000197536
289    -92.6187322620   0.000019580914 0.09793399  0.00677501  0.0002275   0.000128943
290    -92.6187996730  -0.000067411023 0.10275219  0.00712890  0.0007501   0.000452452
291    -92.6187292134   0.000070459610 0.02059704  0.00151423  0.0002587   0.000198873
292    -92.6187182052   0.000011008219 0.02563695  0.00189593  0.0003625   0.000258924
293    -92.6187315940  -0.000013388791 0.06267954  0.00447731  0.0002416   0.000178189
294    -92.6186863505   0.000045243472 0.15336722  0.01097553  0.0007226   0.000477033
295    -92.6187944092  -0.000108058673 0.09732261  0.00619891  0.0007169   0.000474226
296    -92.6190379003  -0.000243491137 0.11878392  0.00762419  0.0022716   0.001738718
297    -92.6187710512   0.000266849096 0.14549821  0.00924996  0.0005026   0.000349765
298    -92.6191542172  -0.000383165976 0.22031088  0.01441967  0.0028197   0.002253490
299    -92.6187306796   0.000423537577 0.10485803  0.00724272  0.0003105   0.000242463
               *** Restarting incremental Fock matrix formation ***
                             ****Resetting KDIIS****
300    -92.6188055742  -0.000074894574 0.00062796  0.00004286  0.0008258   0.000609121
301    -92.6188073362  -0.000001762014 0.00175088  0.00011710  0.0008228   0.000532952
302    -92.6188111165  -0.000003780326 0.00042713  0.00003600  0.0008324   0.000460860
                          ***Energy convergence achieved***
303    -92.6188120119  -0.000000895316 0.01656246  0.00109360  0.0008227   0.000378939
304    -92.6187889591   0.000023052766 0.05266195  0.00359481  0.0006276   0.000285683
305    -92.6187466233   0.000042335814 0.03292577  0.00235337  0.0002757   0.000219795
306    -92.6187330299   0.000013593359 0.00099316  0.00007366  0.0002380   0.000184664
                          ***Energy convergence achieved***
307    -92.6187335074  -0.000000477452 0.00513238  0.00037410  0.0002281   0.000153279
308    -92.6187314113   0.000002096080 0.00046072  0.00003597  0.0002359   0.000152113
                          ***Energy convergence achieved***
309    -92.6187312273   0.000000184038 0.01208209  0.00087529  0.0002389   0.000158790
310    -92.6187362085  -0.000004981200 0.07792110  0.00539107  0.0002253   0.000157309
311    -92.6187871380  -0.000050929514 0.07566535  0.00522903  0.0006566   0.000448820
312    -92.6187370673   0.000050070677 0.03385831  0.00248858  0.0002270   0.000166131
313    -92.6187217955   0.000015271752 0.05897256  0.00427323  0.0003270   0.000217018
314    -92.6187477487  -0.000025953184 0.00760656  0.00053431  0.0002752   0.000187342
315    -92.6187442221   0.000003526665 0.01251470  0.00087919  0.0002494   0.000174191
316    -92.6187501805  -0.000005958453 0.00362739  0.00025373  0.0002988   0.000213908
317    -92.6187523012  -0.000002120731 0.09823979  0.00649504  0.0003093   0.000187323
318    -92.6188890702  -0.000136768994 0.13048263  0.00875691  0.0014226   0.000973972
319    -92.6187373597   0.000151710518 0.00572482  0.00041496  0.0002329   0.000186021
               *** Restarting incremental Fock matrix formation ***
                             ****Resetting KDIIS****
320    -92.6187350821   0.000002277655 0.00017317  0.00001290  0.0002314   0.000182379
                          ***Energy convergence achieved***
321    -92.6187352295  -0.000000147440 0.00049461  0.00003650  0.0002257   0.000156518
322    -92.6187355206  -0.000000291118 0.00043469  0.00003231  0.0002203   0.000137105
323    -92.6187357624  -0.000000241774 0.00352231  0.00025476  0.0002135   0.000113193
324    -92.6187372636  -0.000001501190 0.00140479  0.00010127  0.0001995   0.000085234
                          ***Energy convergence achieved***
325    -92.6187366939   0.000000569643 0.00220189  0.00015844  0.0001994   0.000084825
326    -92.6187375889  -0.000000894981 0.01152029  0.00083402  0.0001986   0.000085355
327    -92.6187328941   0.000004694789 0.00437277  0.00033365  0.0002040   0.000083685
328    -92.6187347260  -0.000001831904 0.00560985  0.00040542  0.0002011   0.000084575
329    -92.6187369896  -0.000002263596 0.00180083  0.00012873  0.0001886   0.000096735
                          ***Energy convergence achieved***
330    -92.6187377572  -0.000000767609 0.00289607  0.00021785  0.0001954   0.000085511
331    -92.6187389075  -0.000001150240 0.00948333  0.00068254  0.0002000   0.000092454
332    -92.6187350181   0.000003889375 0.00591515  0.00043837  0.0002029   0.000088734
333    -92.6187325800   0.000002438138 0.00854655  0.00066109  0.0002103   0.000091693
334    -92.6187362486  -0.000003668596 0.00254850  0.00018786  0.0001999   0.000084357
                          ***Energy convergence achieved***
335    -92.6187372383  -0.000000989729 0.00160316  0.00011600  0.0001895   0.000095916
336    -92.6187366014   0.000000636911 0.00348214  0.00026043  0.0001926   0.000089072
337    -92.6187379436  -0.000001342219 0.00288956  0.00020831  0.0001970   0.000088850
338    -92.6187367310   0.000001212596 0.00866386  0.00062831  0.0001988   0.000083302
339    -92.6187402004  -0.000003469382 0.00474316  0.00037597  0.0002061   0.000087424
               *** Restarting incremental Fock matrix formation ***
                             ****Resetting KDIIS****
340    -92.6187383851   0.000001815290 0.00015882  0.00001170  0.0001988   0.000082755
                          ***Energy convergence achieved***
341    -92.6187384545  -0.000000069378 0.00036004  0.00002644  0.0001982   0.000082569
342    -92.6187386120  -0.000000157476 0.00055798  0.00004038  0.0001974   0.000083114
343    -92.6187388421  -0.000000230103 0.01617579  0.00119386  0.0001991   0.000082878
344    -92.6187321386   0.000006703420 0.00555607  0.00043694  0.0002132   0.000091581
345    -92.6187296653   0.000002473320 0.02797260  0.00202769  0.0002434   0.000153598
346    -92.6187416172  -0.000011951926 0.00665962  0.00051797  0.0001994   0.000115198
347    -92.6187440957  -0.000002478498 0.03466044  0.00249569  0.0002295   0.000107856
348    -92.6187298675   0.000014228251 0.00717694  0.00057010  0.0002297   0.000120784
349    -92.6187264054   0.000003462106 0.05963986  0.00428012  0.0002410   0.000106367
350    -92.6187536824  -0.000027277052 0.01968539  0.00141019  0.0002933   0.000122413
351    -92.6187431537   0.000010528779 0.04516540  0.00328872  0.0002363   0.000146118
352    -92.6187240984   0.000019055269 0.00627323  0.00047642  0.0002679   0.000115488
353    -92.6187205751   0.000003523281 0.03562499  0.00261714  0.0002993   0.000151727
354    -92.6187372357  -0.000016660593 0.01831046  0.00130341  0.0001885   0.000134531
355    -92.6187448455  -0.000007609786 0.12416701  0.00888907  0.0002171   0.000129400
356    -92.6186379228   0.000106922695 0.06330077  0.00430004  0.0011850   0.000668458
357    -92.6187139672  -0.000076044440 0.03707626  0.00273605  0.0004155   0.000295921
358    -92.6187348363  -0.000020869088 0.00619315  0.00045353  0.0002230   0.000150208
359    -92.6187319103   0.000002925999 0.02869127  0.00207835  0.0002336   0.000140276
               *** Restarting incremental Fock matrix formation ***
                             ****Resetting KDIIS****
360    -92.6187429571  -0.000011046737 0.00017643  0.00001308  0.0002297   0.000124826
                          ***Energy convergence achieved***
361    -92.6187430701  -0.000000112992 0.00045896  0.00003424  0.0002271   0.000114129
362    -92.6187433434  -0.000000273384 0.00043141  0.00003170  0.0002244   0.000105969
363    -92.6187435441  -0.000000200631 0.00011336  0.00001224  0.0002233   0.000099193
364    -92.6187434934   0.000000050660 0.01294569  0.00097012  0.0002204   0.000097280
365    -92.6187378605   0.000005632899 0.00079825  0.00005971  0.0002020   0.000087207
                          ***Energy convergence achieved***
366    -92.6187381903  -0.000000329825 0.00105568  0.00006449  0.0001981   0.000083204
367    -92.6187380397   0.000000150648 0.00143045  0.00009940  0.0002105   0.000109599
368    -92.6187384520  -0.000000412302 0.00290331  0.00021078  0.0002039   0.000093639
369    -92.6187397049  -0.000001252951 0.00135175  0.00008603  0.0002027   0.000088165
                          ***Energy convergence achieved***
370    -92.6187397974  -0.000000092431 0.00129685  0.00008181  0.0002052   0.000090071
371    -92.6187397467   0.000000050678 0.00248068  0.00017750  0.0001973   0.000089013
372    -92.6187407408  -0.000000994080 0.00137002  0.00009709  0.0001975   0.000092461
373    -92.6187413173  -0.000000576558 0.01295650  0.00096802  0.0002032   0.000085900
374    -92.6187360870   0.000005230315 0.00820167  0.00059908  0.0002000   0.000088517
375    -92.6187325813   0.000003505668 0.01545648  0.00111961  0.0002153   0.000114538
376    -92.6187389065  -0.000006325117 0.00465823  0.00033354  0.0001999   0.000086252
377    -92.6187408499  -0.000001943464 0.00282473  0.00020127  0.0002057   0.000091619
378    -92.6187420106  -0.000001160693 0.00877696  0.00062460  0.0002118   0.000090859
379    -92.6187384569   0.000003553670 0.00265246  0.00019871  0.0001896   0.000105706
               *** Restarting incremental Fock matrix formation ***
                             ****Resetting KDIIS****
380    -92.6187395007  -0.000001043737 0.00015741  0.00001134  0.0001911   0.000106544
                          ***Energy convergence achieved***
381    -92.6187395926  -0.000000091949 0.00007004  0.00000628  0.0001922   0.000106508
382    -92.6187395953  -0.000000002653 0.00018962  0.00001455  0.0001950   0.000095335
383    -92.6187396352  -0.000000039945 0.01954563  0.00141186  0.0001988   0.000084910
384    -92.6187316625   0.000007972780 0.01991051  0.00147126  0.0002161   0.000102645
385    -92.6187216406   0.000010021822 0.09895440  0.00698919  0.0003062   0.000165797
386    -92.6187767959  -0.000055155250 0.07337283  0.00511305  0.0005475   0.000337253
387    -92.6187337738   0.000043022058 0.00823339  0.00059922  0.0002298   0.000171929
388    -92.6187302843   0.000003489493 0.05850273  0.00417239  0.0002448   0.000163704
389    -92.6186876545   0.000042629855 0.07730029  0.00562337  0.0007060   0.000457816
390    -92.6187386094  -0.000050954915 0.00066945  0.00004800  0.0002211   0.000136945
                          ***Energy convergence achieved***
391    -92.6187388901  -0.000000280749 0.00781647  0.00055666  0.0002207   0.000132747
392    -92.6187421232  -0.000003233020 0.00632123  0.00045001  0.0002324   0.000141765
393    -92.6187394915   0.000002631642 0.01070679  0.00075965  0.0002228   0.000137078
394    -92.6187440322  -0.000004540664 0.12938748  0.00921421  0.0002442   0.000156789
395    -92.6186266431   0.000117389106 0.12082074  0.00852617  0.0013094   0.000802126
396    -92.6187398795  -0.000113236381 0.00143718  0.00010240  0.0002240   0.000138220
                          ***Energy convergence achieved***
397    -92.6187404684  -0.000000588988 0.00497262  0.00035307  0.0002260   0.000140013
398    -92.6187425564  -0.000002087914 0.00392865  0.00027896  0.0002356   0.000148375
399    -92.6187442876  -0.000001731259 0.00538516  0.00038167  0.0002461   0.000156374
               *** Restarting incremental Fock matrix formation ***
                             ****Resetting KDIIS****
400    -92.6187419308   0.000002356790 0.00017743  0.00001285  0.0002332   0.000148945
                          ***Energy convergence achieved***
401    -92.6187420519  -0.000000121119 0.00057814  0.00004128  0.0002295   0.000130389
402    -92.6187423415  -0.000000289584 0.00050815  0.00003652  0.0002274   0.000118972
403    -92.6187426081  -0.000000266613 0.00222720  0.00015822  0.0002239   0.000104717
404    -92.6187436388  -0.000001030698 0.05489494  0.00400492  0.0002208   0.000093100
405    -92.6187181108   0.000025528004 0.06899632  0.00499522  0.0003524   0.000203745
406    -92.6187504430  -0.000032332144 0.04061883  0.00277008  0.0002860   0.000161213
407    -92.6187817463  -0.000031303362 0.07011082  0.00485933  0.0005990   0.000403260
408    -92.6187370468   0.000044699561 0.00221311  0.00016123  0.0002243   0.000167313
                          ***Energy convergence achieved***
409    -92.6187361959   0.000000850917 0.08868507  0.00632237  0.0002216   0.000154198
410    -92.6186658597   0.000070336161 0.13798044  0.01011806  0.0009425   0.000623136
411    -92.6187650489  -0.000099189153 0.00084679  0.00006044  0.0004347   0.000272517
                          ***Energy convergence achieved***
412    -92.6187643906   0.000000658210 0.01290400  0.00087270  0.0004282   0.000268867
413    -92.6187756226  -0.000011231991 0.00978205  0.00066077  0.0005409   0.000352448
414    -92.6187668079   0.000008814714 0.00359556  0.00024576  0.0004553   0.000297598
415    -92.6187639167   0.000002891266 0.04427837  0.00308589  0.0004300   0.000302065
416    -92.6187396570   0.000024259668 0.03027446  0.00219553  0.0002355   0.000186659
417    -92.6187270698   0.000012587197 0.00972849  0.00072286  0.0002687   0.000186642
418    -92.6187218834   0.000005186347 0.00203321  0.00014784  0.0003125   0.000182161
419    -92.6187207314   0.000001152032 0.02663744  0.00196497  0.0003257   0.000194728
               *** Restarting incremental Fock matrix formation ***
                             ****Resetting KDIIS****
420    -92.6187337304  -0.000012998955 0.00015524  0.00001187  0.0002179   0.000120471
                          ***Energy convergence achieved***
421    -92.6187338422  -0.000000111865 0.00021807  0.00001653  0.0002149   0.000114665
422    -92.6187339859  -0.000000143681 0.00061576  0.00004498  0.0002089   0.000105014
423    -92.6187342127  -0.000000226743 0.00378292  0.00027507  0.0002079   0.000092245
424    -92.6187357907  -0.000001578047 0.00085094  0.00006205  0.0001999   0.000086698
                          ***Energy convergence achieved***
425    -92.6187354334   0.000000357303 0.00281582  0.00020439  0.0002002   0.000086050
426    -92.6187365989  -0.000001165535 0.00494399  0.00036154  0.0001996   0.000087503
427    -92.6187345299   0.000002068998 0.00717179  0.00052126  0.0002033   0.000089281
428    -92.6187315535   0.000002976455 0.08833044  0.00614268  0.0002137   0.000092264
429    -92.6187859701  -0.000054416567 0.11783672  0.00832923  0.0006465   0.000460605
430    -92.6187150988   0.000070871300 0.00709822  0.00050327  0.0003953   0.000279325
431    -92.6187099934   0.000005105317 0.02242090  0.00155160  0.0004540   0.000316433
432    -92.6186892973   0.000020696166 0.05317363  0.00378022  0.0006841   0.000431966
433    -92.6187285266  -0.000039229356 0.06812701  0.00478522  0.0002557   0.000167611
434    -92.6186708115   0.000057715162 0.08069560  0.00573752  0.0008803   0.000547486
435    -92.6187342503  -0.000063438852 0.00345451  0.00026767  0.0002165   0.000113488
436    -92.6187329589   0.000001291446 0.00883481  0.00066458  0.0002225   0.000122125
437    -92.6187363545  -0.000003395664 0.02100862  0.00149511  0.0002157   0.000119716
438    -92.6187452032  -0.000008848642 0.00924884  0.00065599  0.0002495   0.000156634
439    -92.6187411928   0.000004010377 0.04816362  0.00351965  0.0002291   0.000157464
               *** Restarting incremental Fock matrix formation ***
                             ****Resetting KDIIS****
440    -92.6187190607   0.000022132088 0.00026082  0.00001972  0.0003355   0.000184412
                          ***Energy convergence achieved***
441    -92.6187193152  -0.000000254447 0.00049784  0.00003756  0.0003283   0.000169523
442    -92.6187197878  -0.000000472636 0.00081637  0.00006118  0.0003155   0.000154936
443    -92.6187201672  -0.000000379383 0.01351841  0.00100114  0.0003101   0.000143223
444    -92.6187276238  -0.000007456594 0.00671190  0.00049881  0.0002379   0.000115394
445    -92.6187311360  -0.000003512235 0.01850796  0.00134869  0.0002197   0.000132371
446    -92.6187391915  -0.000008055522 0.01230353  0.00089812  0.0002157   0.000139981
447    -92.6187335326   0.000005658884 0.01042212  0.00076263  0.0002253   0.000158761
448    -92.6187290529   0.000004479785 0.00095324  0.00007617  0.0002203   0.000130275
                          ***Energy convergence achieved***
449    -92.6187293586  -0.000000305704 0.01394921  0.00104197  0.0002114   0.000125174
450    -92.6187218539   0.000007504675 0.02331254  0.00173723  0.0002884   0.000118657
451    -92.6187342894  -0.000012435482 0.01510130  0.00110218  0.0002098   0.000143942
452    -92.6187409880  -0.000006698605 0.01920129  0.00140075  0.0002125   0.000123690
453    -92.6187319989   0.000008989096 0.00538748  0.00039603  0.0002275   0.000139233
454    -92.6187298472   0.000002151663 0.00520921  0.00039460  0.0002362   0.000140482
455    -92.6187321449  -0.000002297720 0.03052987  0.00225558  0.0001932   0.000157127
456    -92.6187147007   0.000017444206 0.04502732  0.00333807  0.0003718   0.000171968
457    -92.6187392805  -0.000024579770 0.00701507  0.00051635  0.0002107   0.000151552
458    -92.6187424954  -0.000003214887 0.01748160  0.00126299  0.0002181   0.000133544
459    -92.6187346380   0.000007857348 0.00195587  0.00014435  0.0002222   0.000152240
               *** Restarting incremental Fock matrix formation ***
                             ****Resetting KDIIS****
                          ***Energy convergence achieved***
460    -92.6187339782   0.000000659835 0.00017834  0.00001564  0.0002201   0.000154653
461    -92.6187342047  -0.000000226518 0.00016064  0.00001356  0.0002422   0.000156841
462    -92.6187342088  -0.000000004122 0.00056577  0.00004906  0.0002103   0.000138396
463    -92.6187343904  -0.000000181569 0.00876561  0.00078869  0.0002094   0.000119266
464    -92.6187288316   0.000005558856 0.00209527  0.00015716  0.0002307   0.000102726
465    -92.6187277937   0.000001037899 0.00289555  0.00021596  0.0002396   0.000105244
466    -92.6187291911  -0.000001397405 0.02454168  0.00177912  0.0002269   0.000097944
467    -92.6187391975  -0.000010006405 0.08579081  0.00586028  0.0002173   0.000138292
468    -92.6188081711  -0.000068973593 0.13415865  0.00939760  0.0008327   0.000550622
469    -92.6187152299   0.000092941171 0.02958220  0.00217527  0.0003915   0.000260541
470    -92.6187312930  -0.000016063136 0.03638562  0.00260317  0.0002370   0.000153286
471    -92.6187466437  -0.000015350649 0.01045515  0.00073750  0.0002630   0.000170043
472    -92.6187419695   0.000004674218 0.00897709  0.00064085  0.0002332   0.000150479
473    -92.6187382712   0.000003698255 0.00387563  0.00027829  0.0002200   0.000136322
474    -92.6187366840   0.000001587163 0.07847091  0.00565413  0.0002215   0.000145724
475    -92.6186821291   0.000054554908 0.07766194  0.00559134  0.0007556   0.000450371
476    -92.6187363449  -0.000054215817 0.02876014  0.00204017  0.0002212   0.000144252
477    -92.6187490533  -0.000012708376 0.00050971  0.00004741  0.0002795   0.000177871
                          ***Energy convergence achieved***
478    -92.6187492485  -0.000000195159 0.01493104  0.00104978  0.0002825   0.000177232
479    -92.6187422992   0.000006949288 0.01901097  0.00136547  0.0002322   0.000140793
               *** Restarting incremental Fock matrix formation ***
                             ****Resetting KDIIS****
480    -92.6187346948   0.000007604381 0.00016129  0.00001244  0.0002184   0.000138052
                          ***Energy convergence achieved***
481    -92.6187348504  -0.000000155561 0.00016993  0.00001320  0.0002150   0.000134750
482    -92.6187349261  -0.000000075740 0.00057890  0.00004276  0.0002074   0.000117227
483    -92.6187350400  -0.000000113871 0.00438860  0.00031647  0.0002061   0.000096861
484    -92.6187367631  -0.000001723112 0.00108209  0.00007794  0.0001993   0.000086323
                          ***Energy convergence achieved***
485    -92.6187363214   0.000000441716 0.01254307  0.00089686  0.0001993   0.000084927
486    -92.6187414157  -0.000005094356 0.25574012  0.01670929  0.0002107   0.000094003
487    -92.6181414281   0.000599987606 0.29123533  0.01968112  0.0046016   0.002640187
488    -92.6187663719  -0.000624943796 0.00077616  0.00005274  0.0004490   0.000285901
                          ***Energy convergence achieved***
489    -92.6187658884   0.000000483547 0.00633524  0.00042901  0.0004389   0.000255201
490    -92.6187712767  -0.000005388300 0.00655393  0.00044392  0.0004929   0.000293040
491    -92.6187656752   0.000005601491 0.01437646  0.00098396  0.0004381   0.000259941
492    -92.6187554372   0.000010238003 0.03881565  0.00273152  0.0003395   0.000208627
493    -92.6187368840   0.000018553159 0.02241834  0.00163277  0.0002252   0.000162722
494    -92.6187272649   0.000009619167 0.03684013  0.00266113  0.0002713   0.000198822
495    -92.6187428140  -0.000015549173 0.00667036  0.00047337  0.0002420   0.000170906
496    -92.6187400458   0.000002768238 0.04790412  0.00350803  0.0002280   0.000154099
497    -92.6187172393   0.000022806474 0.10399504  0.00737908  0.0003653   0.000228393
498    -92.6187747526  -0.000057513295 0.13147513  0.00947753  0.0005348   0.000353120
499    -92.6186918444   0.000082908190 0.07423104  0.00542309  0.0006613   0.000440140
               *** Restarting incremental Fock matrix formation ***
                             ****Resetting KDIIS****
500    -92.6187389674  -0.000047122931 0.00016862  0.00001234  0.0002249   0.000151262
                          ***Energy convergence achieved***
501    -92.6187390868  -0.000000119414 0.00049936  0.00003626  0.0002208   0.000132097
502    -92.6187393579  -0.000000271139 0.00041517  0.00003025  0.0002171   0.000118152
503    -92.6187395633  -0.000000205372 0.00317553  0.00022666  0.0002130   0.000102543
504    -92.6187409243  -0.000001360981 0.02914432  0.00210689  0.0002077   0.000087670
505    -92.6187288522   0.000012072086 0.01459982  0.00106609  0.0002371   0.000117471
506    -92.6187350448  -0.000006192616 0.02487014  0.00182553  0.0001978   0.000085077
507    -92.6187236619   0.000011382878 0.15102960  0.01034487  0.0002806   0.000129763
508    -92.6188616145  -0.000137952597 0.13947947  0.00950115  0.0012573   0.000937990
509    -92.6187290664   0.000132548128 0.01550306  0.00114649  0.0002573   0.000197450
510    -92.6187209894   0.000008077005 0.05255711  0.00364914  0.0003315   0.000235175
511    -92.6186723492   0.000048640207 0.05037902  0.00349185  0.0008740   0.000585468
512    -92.6187197759  -0.000047426683 0.00022800  0.00001647  0.0003416   0.000229318
                          ***Energy convergence achieved***
513    -92.6187196388   0.000000137054 0.03310732  0.00243565  0.0003431   0.000230389
Warning: badly conditioned DIIS matrix, 1 vectors out of 5 destroyed
514    -92.6187356837  -0.000016044924 0.01175964  0.00085415  0.0002186   0.000127740
515    -92.6187307865   0.000004897189 0.01024053  0.00074444  0.0002370   0.000139927
516    -92.6187350657  -0.000004279186 0.11193264  0.00762221  0.0002199   0.000129950
517    -92.6188339053  -0.000098839590 0.17834088  0.01257918  0.0010538   0.000775562
518    -92.6186871729   0.000146732380 0.18318954  0.01288743  0.0007175   0.000497505
519    -92.6188433922  -0.000156219278 0.14182789  0.00975904  0.0011229   0.000817751
               *** Restarting incremental Fock matrix formation ***
                             ****Resetting KDIIS****
520    -92.6187233540   0.000120038180 0.00023374  0.00001774  0.0003099   0.000234023
                          ***Energy convergence achieved***
521    -92.6187236031  -0.000000249118 0.00069607  0.00005221  0.0003007   0.000199618
522    -92.6187240773  -0.000000474193 0.00138544  0.00010368  0.0002914   0.000178457
523    -92.6187249654  -0.000000888100 0.00615306  0.00045582  0.0002751   0.000148700
524    -92.6187281005  -0.000003135051 0.04561240  0.00327178  0.0002309   0.000101378
525    -92.6187475854  -0.000019484908 0.02625890  0.00186533  0.0002600   0.000153690
526    -92.6187361791   0.000011406305 0.03617061  0.00255654  0.0002172   0.000151281
527    -92.6187528271  -0.000016647973 0.13021742  0.00953521  0.0003033   0.000152334
528    -92.6186509659   0.000101861154 0.14631663  0.01078020  0.0010685   0.000626441
529    -92.6187649692  -0.000114003268 0.00580372  0.00039359  0.0004349   0.000276323
530    -92.6187697867  -0.000004817544 0.07079172  0.00496382  0.0004831   0.000309288
531    -92.6187316472   0.000038139502 0.00034852  0.00002558  0.0002442   0.000192460
                          ***Energy convergence achieved***
532    -92.6187315531   0.000000094090 0.00371763  0.00027188  0.0002416   0.000178404
533    -92.6187298934   0.000001659713 0.00121737  0.00008931  0.0002529   0.000190988
                          ***Energy convergence achieved***
534    -92.6187293788   0.000000514637 0.08259059  0.00575735  0.0002546   0.000184602
535    -92.6186522245   0.000077154291 0.10232596  0.00727583  0.0010714   0.000682845
536    -92.6187382529  -0.000086028438 0.00456615  0.00032684  0.0002198   0.000134164
537    -92.6187401205  -0.000001867609 0.00268443  0.00019306  0.0002237   0.000134767
538    -92.6187412332  -0.000001112611 0.00260287  0.00018496  0.0002278   0.000136914
539    -92.6187423340  -0.000001100838 0.00613284  0.00043619  0.0002328   0.000139668
               *** Restarting incremental Fock matrix formation ***
                             ****Resetting KDIIS****
540    -92.6187397724   0.000002561592 0.00016843  0.00001227  0.0002227   0.000134418
                          ***Energy convergence achieved***
541    -92.6187398780  -0.000000105577 0.00057044  0.00004094  0.0002192   0.000118631
542    -92.6187401462  -0.000000268197 0.00081338  0.00005836  0.0002173   0.000109570
543    -92.6187405263  -0.000000380118 0.00188557  0.00013484  0.0002142   0.000098303
544    -92.6187413617  -0.000000835425 0.02721060  0.00197029  0.0002099   0.000089138
545    -92.6187301438   0.000011217931 0.04231281  0.00304147  0.0002260   0.000098131
546    -92.6187484323  -0.000018288560 0.00641132  0.00044899  0.0002475   0.000102544
547    -92.6187517203  -0.000003287933 0.01765395  0.00123943  0.0002860   0.000134789
548    -92.6187429715   0.000008748752 0.00178591  0.00012766  0.0002200   0.000098503
                          ***Energy convergence achieved***
549    -92.6187422157   0.000000755824 0.04680210  0.00341873  0.0002164   0.000098541
550    -92.6187216440   0.000020571722 0.09543290  0.00678083  0.0002912   0.000131781
551    -92.6187727635  -0.000051119534 0.04337742  0.00299613  0.0005072   0.000327652
552    -92.6187442455   0.000028518036 0.02805435  0.00201290  0.0002784   0.000215092
553    -92.6187326818   0.000011563655 0.00979012  0.00071897  0.0002328   0.000162142
554    -92.6187284843   0.000004197494 0.01699009  0.00125143  0.0002558   0.000168039
555    -92.6187195126   0.000008971753 0.00094985  0.00008262  0.0003359   0.000188887
                          ***Energy convergence achieved***
556    -92.6187200744  -0.000000561845 0.02787730  0.00205583  0.0003245   0.000172181
557    -92.6187337934  -0.000013718941 0.05696761  0.00400384  0.0002122   0.000105710
558    -92.6187619963  -0.000028202906 0.14954223  0.00956927  0.0004089   0.000270647
559    -92.6191181644  -0.000356168085 0.04939492  0.00306459  0.0027323   0.002173367
               *** Restarting incremental Fock matrix formation ***
                             ****Resetting KDIIS****
560    -92.6189325093   0.000185655052 0.00130536  0.00008666  0.0017227   0.001358121
561    -92.6189406531  -0.000008143825 0.00369081  0.00023467  0.0017320   0.001189675
562    -92.6189576256  -0.000016972518 0.02105052  0.00132953  0.0017830   0.001014706
563    -92.6188964903   0.000061135315 0.03258657  0.00209564  0.0014180   0.000791529
564    -92.6188308453   0.000065645078 0.14275194  0.00994371  0.0010622   0.000684608
565    -92.6187161237   0.000114721518 0.07091979  0.00479517  0.0003379   0.000295714
566    -92.6186279491   0.000088174644 0.02797578  0.00183550  0.0013128   0.000861111
567    -92.6186741616  -0.000046212528 0.10960859  0.00810340  0.0008452   0.000520167
568    -92.6187499292  -0.000075767555 0.02087329  0.00147169  0.0002626   0.000105239
569    -92.6187402441   0.000009685041 0.01751012  0.00126037  0.0002162   0.000102900
570    -92.6187331092   0.000007134959 0.06325018  0.00443916  0.0002230   0.000120921
571    -92.6187656625  -0.000032553378 0.00968410  0.00066129  0.0004458   0.000295191
572    -92.6187585050   0.000007157523 0.00720152  0.00049582  0.0003756   0.000254303
573    -92.6187539596   0.000004545422 0.04350730  0.00307778  0.0003309   0.000224188
574    -92.6187341996   0.000019760048 0.00225980  0.00016472  0.0002292   0.000168335
                          ***Energy convergence achieved***
575    -92.6187350370  -0.000000837415 0.06241320  0.00435951  0.0002281   0.000166451
576    -92.6187689413  -0.000033904336 0.08128582  0.00573783  0.0004867   0.000356018
577    -92.6187268428   0.000042098504 0.00459317  0.00034938  0.0002758   0.000200340
578    -92.6187289653  -0.000002122498 0.03523032  0.00253833  0.0002566   0.000182066
579    -92.6187436350  -0.000014669707 0.04032758  0.00291269  0.0002460   0.000170101
               *** Restarting incremental Fock matrix formation ***
                             ****Resetting KDIIS****
580    -92.6187264610   0.000017173980 0.00020797  0.00001571  0.0002775   0.000197254
                          ***Energy convergence achieved***
581    -92.6187266514  -0.000000190367 0.00061382  0.00004603  0.0002701   0.000169996
582    -92.6187270517  -0.000000400319 0.00061280  0.00004588  0.0002623   0.000152088
583    -92.6187274261  -0.000000374393 0.00576333  0.00042495  0.0002530   0.000130897
584    -92.6187301713  -0.000002745154 0.03968693  0.00284801  0.0002184   0.000095727
585    -92.6187472756  -0.000017104331 0.04313093  0.00310548  0.0002531   0.000141673
586    -92.6187284052   0.000018870414 0.02938127  0.00213641  0.0002527   0.000171022
587    -92.6187112198   0.000017185419 0.05714059  0.00421530  0.0004235   0.000243413
588    -92.6187407185  -0.000029498778 0.02370403  0.00171953  0.0002230   0.000147557
589    -92.6187306637   0.000010054854 0.01122660  0.00081741  0.0002344   0.000131227
590    -92.6187354095  -0.000004745802 0.00849974  0.00061290  0.0002109   0.000106508
591    -92.6187387654  -0.000003355909 0.01052893  0.00075567  0.0002172   0.000124957
592    -92.6187349471   0.000003818271 0.13102373  0.00885113  0.0002062   0.000136134
593    -92.6188707714  -0.000135824295 0.13553483  0.00917971  0.0013175   0.000981673
594    -92.6187324850   0.000138286426 0.00560731  0.00040936  0.0002380   0.000182560
595    -92.6187300641   0.000002420909 0.00368562  0.00027041  0.0002513   0.000190301
596    -92.6187316920  -0.000001627946 0.00424615  0.00030930  0.0002407   0.000176468
597    -92.6187334888  -0.000001796758 0.01350720  0.00097290  0.0002315   0.000164771
598    -92.6187389468  -0.000005458024 0.06659751  0.00459559  0.0002276   0.000163250
599    -92.6187828687  -0.000043921877 0.10871258  0.00767246  0.0006137   0.000415868
               *** Restarting incremental Fock matrix formation ***
                             ****Resetting KDIIS****
600    -92.6187192867   0.000063582030 0.00026011  0.00001997  0.0003497   0.000241142
                          ***Energy convergence achieved***
601    -92.6187195789  -0.000000292216 0.00082302  0.00006132  0.0003396   0.000207912
602    -92.6187201975  -0.000000618606 0.00131856  0.00009846  0.0003288   0.000188513
603    -92.6187211590  -0.000000961546 0.00378823  0.00027959  0.0003118   0.000163556
Warning: badly conditioned DIIS matrix, 1 vectors out of 5 destroyed
Warning: badly conditioned DIIS matrix, 1 vectors out of 4 destroyed
604    -92.6187233286  -0.000002169586 0.01502850  0.00111758  0.0002869   0.000135474
605    -92.6187310983  -0.000007769700 0.00976310  0.00072091  0.0002256   0.000125501
606    -92.6187357444  -0.000004646042 0.00448671  0.00034146  0.0002073   0.000113616
607    -92.6187334815   0.000002262839 0.01202367  0.00088269  0.0002077   0.000103955
608    -92.6187390791  -0.000005597612 0.00332125  0.00024082  0.0001909   0.000123841
609    -92.6187403253  -0.000001246129 0.00140238  0.00009875  0.0001954   0.000124482
                          ***Energy convergence achieved***
610    -92.6187401424   0.000000182827 0.00150450  0.00011199  0.0002007   0.000108913
611    -92.6187401991  -0.000000056704 0.00597376  0.00049331  0.0001912   0.000111684
612    -92.6187422135  -0.000002014365 0.00165002  0.00011872  0.0002151   0.000093739
                          ***Energy convergence achieved***
613    -92.6187428943  -0.000000680760 0.00239325  0.00019208  0.0002207   0.000099701
614    -92.6187419775   0.000000916786 0.00621414  0.00044698  0.0002128   0.000094476
615    -92.6187393483   0.000002629126 0.00029019  0.00001966  0.0002074   0.000103282
                          ***Energy convergence achieved***
616    -92.6187392596   0.000000088713 0.00143179  0.00008925  0.0002084   0.000104271
617    -92.6187395068  -0.000000247173 0.00853313  0.00062246  0.0001922   0.000119344
618    -92.6187359885   0.000003518347 0.04058670  0.00300608  0.0001826   0.000135692
619    -92.6187154228   0.000020565706 0.06614026  0.00482792  0.0003685   0.000188676
               *** Restarting incremental Fock matrix formation ***
                             ****Resetting KDIIS****
620    -92.6187472719  -0.000031849101 0.00019647  0.00001489  0.0002534   0.000145522
                          ***Energy convergence achieved***
621    -92.6187474484  -0.000000176510 0.00022324  0.00001672  0.0002512   0.000139769
622    -92.6187475975  -0.000000149142 0.00061012  0.00004572  0.0002453   0.000124547
623    -92.6187478457  -0.000000248234 0.00696032  0.00052371  0.0002462   0.000112183
624    -92.6187440787   0.000003767043 0.00513104  0.00040591  0.0002262   0.000099745
625    -92.6187419627   0.000002115977 0.00765576  0.00057360  0.0002129   0.000113842
626    -92.6187388284   0.000003134274 0.00239490  0.00020632  0.0002069   0.000093319
                          ***Energy convergence achieved***
627    -92.6187395704  -0.000000741909 0.00095666  0.00007353  0.0001901   0.000120030
628    -92.6187400603  -0.000000489920 0.00018235  0.00001315  0.0002067   0.000091284
629    -92.6187401312  -0.000000070957 0.00534510  0.00039427  0.0002068   0.000090384
630    -92.6187422817  -0.000002150489 0.00469963  0.00034883  0.0002140   0.000089867
631    -92.6187404080   0.000001873698 0.00209540  0.00015570  0.0002057   0.000088137
                          ***Energy convergence achieved***
632    -92.6187395941   0.000000813966 0.00205562  0.00014793  0.0002044   0.000087342
633    -92.6187404424  -0.000000848361 0.00360479  0.00025668  0.0001995   0.000086438
634    -92.6187419450  -0.000001502617 0.00378722  0.00027125  0.0002060   0.000090019
635    -92.6187403677   0.000001577368 0.06366959  0.00471503  0.0002066   0.000091827
636    -92.6187055391   0.000034828539 0.09787267  0.00710428  0.0005011   0.000289744
[...]
1342    -92.6187248690  -0.000000460342 0.00079038  0.00005905  0.0002764   0.000142084
1343    -92.6187253577  -0.000000488709 0.00599474  0.00044638  0.0002679   0.000129873
1344    -92.6187284438  -0.000003086068 0.02323323  0.00170503  0.0002301   0.000102717
1345    -92.6187390853  -0.000010641490 0.01453640  0.00106523  0.0002063   0.000115762
1346    -92.6187324140   0.000006671258 0.00084870  0.00006334  0.0002207   0.000129795
                          ***Energy convergence achieved***
1347    -92.6187321472   0.000000266842 0.00564981  0.00042230  0.0002062   0.000100561
1348    -92.6187294672   0.000002679977 0.00435765  0.00033815  0.0002180   0.000103545
1349    -92.6187316368  -0.000002169578 0.00293471  0.00021481  0.0002054   0.000101147
1350    -92.6187303724   0.000001264382 0.04673347  0.00333939  0.0002139   0.000101808
1351    -92.6187502232  -0.000019850794 0.00314525  0.00021888  0.0002777   0.000154813
1352    -92.6187519102  -0.000001686990 0.02688084  0.00189540  0.0002947   0.000170019
1353    -92.6187395592   0.000012350989 0.00650772  0.00046695  0.0002165   0.000142380
1354    -92.6187424227  -0.000002863519 0.03253550  0.00235085  0.0002255   0.000143898
1355    -92.6187288574   0.000013565288 0.05970976  0.00426031  0.0002537   0.000175004
1356    -92.6187559295  -0.000027072109 0.00295558  0.00021649  0.0003407   0.000231576
1357    -92.6187539693   0.000001960175 0.02437779  0.00166915  0.0003221   0.000209229
1358    -92.6187720331  -0.000018063731 0.03798201  0.00263562  0.0005042   0.000336539
1359    -92.6187470707   0.000024962338 0.00133546  0.00011302  0.0002655   0.000191793
               *** Restarting incremental Fock matrix formation ***
                             ****Resetting KDIIS****
                          ***Energy convergence achieved***
1360    -92.6187475959  -0.000000525149 0.00020850  0.00001543  0.0002704   0.000201639
1361    -92.6187478114  -0.000000215561 0.00039609  0.00002933  0.0002664   0.000179098
1362    -92.6187481962  -0.000000384788 0.00051413  0.00003856  0.0002596   0.000150228
1363    -92.6187484023  -0.000000206073 0.00118792  0.00008804  0.0002577   0.000125721
1364    -92.6187477271   0.000000675236 0.01401146  0.00103494  0.0002491   0.000110513
1365    -92.6187413083   0.000006418780 0.00204511  0.00015233  0.0002122   0.000112081
                          ***Energy convergence achieved***
1366    -92.6187420957  -0.000000787403 0.00972309  0.00072714  0.0002100   0.000114129
1367    -92.6187383258   0.000003769845 0.00594451  0.00043089  0.0002104   0.000107286
1368    -92.6187406446  -0.000002318713 0.00355822  0.00025254  0.0002051   0.000095195
1369    -92.6187421552  -0.000001510651 0.02404390  0.00173359  0.0002142   0.000097929
1370    -92.6187320667   0.000010088464 0.00706912  0.00052946  0.0002174   0.000102348
1371    -92.6187351083  -0.000003041563 0.00218517  0.00017622  0.0002144   0.000119399
1372    -92.6187363420  -0.000001233732 0.00115873  0.00007007  0.0001988   0.000105023
                          ***Energy convergence achieved***
1373    -92.6187361582   0.000000183819 0.00853036  0.00061340  0.0001995   0.000102623
1374    -92.6187396838  -0.000003525616 0.00785472  0.00056324  0.0001919   0.000109910
1375    -92.6187365078   0.000003176031 0.01013157  0.00072694  0.0001883   0.000113156
1376    -92.6187407040  -0.000004196176 0.01724736  0.00127250  0.0001958   0.000109274
1377    -92.6187334929   0.000007211069 0.01618487  0.00116352  0.0001986   0.000111165
1378    -92.6187398852  -0.000006392260 0.02488286  0.00175245  0.0002089   0.000117930
1379    -92.6187516017  -0.000011716495 0.06302875  0.00453724  0.0002881   0.000150552
               *** Restarting incremental Fock matrix formation ***
                             ****Resetting KDIIS****
1380    -92.6187231951   0.000028406561 0.00022282  0.00001746  0.0002951   0.000179369
                          ***Energy convergence achieved***
1381    -92.6187234444  -0.000000249288 0.00029728  0.00002275  0.0002892   0.000170592
1382    -92.6187236942  -0.000000249781 0.00077682  0.00005896  0.0002774   0.000150731
1383    -92.6187239541  -0.000000259926 0.00866193  0.00064831  0.0002736   0.000130161
1384    -92.6187284468  -0.000004492700 0.01189810  0.00088464  0.0002310   0.000109179
1385    -92.6187342351  -0.000005788310 0.00477700  0.00035695  0.0002085   0.000106629
1386    -92.6187318698   0.000002365282 0.00370747  0.00027140  0.0002207   0.000120752
1387    -92.6187335608  -0.000001690940 0.00314174  0.00023033  0.0002129   0.000121354
1388    -92.6187323093   0.000001251430 0.00080629  0.00006083  0.0002053   0.000107740
                          ***Energy convergence achieved***
1389    -92.6187320078   0.000000301523 0.00931725  0.00068237  0.0002094   0.000101862
1390    -92.6187363121  -0.000004304288 0.01940945  0.00143455  0.0001959   0.000108572
1391    -92.6187269512   0.000009360914 0.00877150  0.00065126  0.0002395   0.000112626
1392    -92.6187312453  -0.000004294133 0.00293290  0.00027590  0.0002179   0.000116327
                          ***Energy convergence achieved***
1393    -92.6187320748  -0.000000829461 0.00352368  0.00021487  0.0002132   0.000108501
1394    -92.6187330322  -0.000000957386 0.00779617  0.00056826  0.0002030   0.000107745
1395    -92.6187360594  -0.000003027249 0.01616366  0.00115618  0.0001887   0.000116537
1396    -92.6187425325  -0.000006473122 0.08983893  0.00656069  0.0002101   0.000102408
1397    -92.6186818330   0.000060699560 0.10054041  0.00743320  0.0007518   0.000437704
1398    -92.6187484992  -0.000066666196 0.01141145  0.00084282  0.0002879   0.000198642
1399    -92.6187439670   0.000004532218 0.00068816  0.00005245  0.0002363   0.000173545
               *** Restarting incremental Fock matrix formation ***
                             ****Resetting KDIIS****
                          ***Energy convergence achieved***
1400    -92.6187436635   0.000000303426 0.00019013  0.00001606  0.0002363   0.000186658
1401    -92.6187438809  -0.000000217366 0.00031441  0.00002623  0.0002323   0.000169228
1402    -92.6187442141  -0.000000333203 0.00045786  0.00003984  0.0002244   0.000143628
1403    -92.6187444404  -0.000000226251 0.00680855  0.00061117  0.0002217   0.000124963
1404    -92.6187398446   0.000004595745 0.00423099  0.00030013  0.0002073   0.000094995
1405    -92.6187386841   0.000001160563 0.00046549  0.00003362  0.0002013   0.000086895
                          ***Energy convergence achieved***
1406    -92.6187388866  -0.000000202578 0.00091712  0.00008205  0.0002030   0.000090303
1407    -92.6187392936  -0.000000406971 0.00168492  0.00012095  0.0001957   0.000086281
1408    -92.6187399954  -0.000000701771 0.00904354  0.00064906  0.0001980   0.000084809
1409    -92.6187363516   0.000003643764 0.00635195  0.00046656  0.0001948   0.000087557
1410    -92.6187388552  -0.000002503630 0.00246808  0.00018446  0.0001972   0.000087112
1411    -92.6187398876  -0.000001032384 0.00589512  0.00042637  0.0001998   0.000087244
1412    -92.6187374651   0.000002422527 0.00166744  0.00012120  0.0001933   0.000084697
                          ***Energy convergence achieved***
1413    -92.6187381512  -0.000000686111 0.00041712  0.00002991  0.0001940   0.000084019
1414    -92.6187383223  -0.000000171122 0.00432896  0.00031401  0.0001943   0.000084047
1415    -92.6187365942   0.000001728150 0.00188213  0.00014367  0.0001947   0.000082053
                          ***Energy convergence achieved***
1416    -92.6187373391  -0.000000744875 0.00084643  0.00006211  0.0001950   0.000083456

            ***Energy convergence in two consecutive cycles with***
                    ***'reasonable' density convergence***
                       *** signaling convergence ***

                    *** KDIIS BlockDiag ( 0.000 sec) ***

               *****************************************************
               *                     SUCCESS                       *
               *           SCF CONVERGED AFTER 1417 CYCLES          *
               *****************************************************

Setting up the final grid:

General Integration Accuracy     IntAcc      ...  4.670
Radial Grid Type                 RadialGrid  ... Gauss-Chebyshev
Angular Grid (max. acc.)         AngularGrid ... Lebedev-302
Angular grid pruning method      GridPruning ... 3 (G Style)
Weight generation scheme         WeightScheme... Becke
Basis function cutoff            BFCut       ...    1.0000e-10
Integration weight cutoff        WCut        ...    1.0000e-14
Grids for H and He will be reduced by one unit

# of grid points (after initial pruning)     ...  15818 (   0.0 sec)
# of grid points (after weights+screening)   ...  15750 (   0.0 sec)
nearest neighbour list constructed           ...    0.0 sec
Grid point re-assignment to atoms done       ...    0.0 sec
Grid point division into batches done        ...    0.1 sec
Reduced shell lists constructed in    0.1 sec

Total number of grid points                  ...    15750
Total number of batches                      ...      248
Average number of points per batch           ...       63
Average number of grid points per atom       ...     5250
Average number of shells per batch           ...     8.43 (60.24%)
Average number of basis functions per batch  ...    17.85 (59.49%)
Average number of large shells per batch     ...     6.96 (82.57%)
Average number of large basis fcns per batch ...    14.96 (83.80%)
Maximum spatial batch extension              ...  20.44, 21.49, 24.37 au
Average spatial batch extension              ...   3.53,  4.25,  4.23 au

Final grid set up in    0.1 sec
Final integration                            ... done (   0.1 sec)
Change in XC energy                          ...     0.000488906
Integrated number of electrons               ...    14.000016176
Previous integrated no of electrons          ...    13.999773975

----------------
TOTAL SCF ENERGY
----------------

Total Energy       :          -92.61824809 Eh           -2520.27066 eV

Components:
Nuclear Repulsion  :            9.01992544 Eh             245.44465 eV
Electronic Energy  :         -101.63817353 Eh           -2765.71531 eV
One Electron Energy:         -143.03830523 Eh           -3892.27016 eV
Two Electron Energy:           41.40013170 Eh            1126.55486 eV

Virial components:
Potential Energy   :         -184.84763079 Eh           -5029.95975 eV
Kinetic Energy     :           92.22938270 Eh            2509.68909 eV
Virial Ratio       :            2.00421629


DFT components:
N(Alpha)           :        7.000008087857 electrons
N(Beta)            :        7.000008087857 electrons
N(Total)           :       14.000016175714 electrons
E(XC)              :       -8.496317337088 Eh       

---------------
SCF CONVERGENCE
---------------

  Last Energy change         ...    3.4582e-07  Tolerance :   1.0000e-06
  Last MAX-Density change    ...    9.2583e-05  Tolerance :   1.0000e-05
  Last RMS-Density change    ...    7.8007e-06  Tolerance :   1.0000e-06
  Last DIIS Error            ...    1.9533e-04  Tolerance :   1.0000e-06

             **** THE GBW FILE WAS UPDATED (Scan_36.gbw) ****
             **** DENSITY FILE WAS UPDATED (Scan_36.scfp.tmp) ****
             **** ENERGY FILE WAS UPDATED (Scan_36.en.tmp) ****
----------------
ORBITAL ENERGIES
----------------

  NO   OCC          E(Eh)            E(eV) 
   0   2.0000     -14.182438      -385.9238 
   1   2.0000     -10.763051      -292.8775 
   2   2.0000      -1.024067       -27.8663 
   3   2.0000      -0.666631       -18.1400 
   4   2.0000      -0.504256       -13.7215 
   5   2.0000      -0.051154        -1.3920 
   6   2.0000      -0.048939        -1.3317 
   7   0.0000      -0.293896        -7.9973 
   8   0.0000      -0.293715        -7.9924 
   9   0.0000       0.021013         0.5718 
  10   0.0000       0.211513         5.7556 
  11   0.0000       0.439418        11.9572 
  12   0.0000       0.439770        11.9668 
  13   0.0000       0.486648        13.2424 
  14   0.0000       0.533956        14.5297 
  15   0.0000       0.744101        20.2480 
  16   0.0000       1.048948        28.5433 
  17   0.0000       1.052059        28.6280 
  18   0.0000       1.057534        28.7770 
  19   0.0000       1.134904        30.8823 
  20   0.0000       1.463450        39.8225 
  21   0.0000       1.463567        39.8257 
  22   0.0000       1.479766        40.2665 
  23   0.0000       1.480399        40.2837 
  24   0.0000       1.928646        52.4811 
  25   0.0000       2.111756        57.4638 
  26   0.0000       2.113056        57.4992 
  27   0.0000       2.115314        57.5606 
  28   0.0000       2.150632        58.5217 
  29   0.0000       2.151230        58.5380 

                    ********************************
                    * MULLIKEN POPULATION ANALYSIS *
                    ********************************

-----------------------
MULLIKEN ATOMIC CHARGES
-----------------------
   0 C :    0.682423
   1 N :   -0.939685
   2 H :    0.257262
Sum of atomic charges:   -0.0000000

--------------------------------
MULLIKEN REDUCED ORBITAL CHARGES
--------------------------------
  0 C s       :     3.972048  s :     3.972048
      pz      :     0.000073  p :     1.327601
      px      :     1.326385
      py      :     0.001142
      dz2     :     0.004480  d :     0.017928
      dxz     :     0.000000
      dyz     :     0.000000
      dx2y2   :     0.013400
      dxy     :     0.000047
  1 N s       :     3.999576  s :     3.999576
      pz      :     1.999909  p :     3.939869
      px      :     1.939023
      py      :     0.000936
      dz2     :     0.000072  d :     0.000241
      dxz     :     0.000018
      dyz     :     0.000000
      dx2y2   :     0.000151
      dxy     :     0.000000
  2 H s       :     0.742738  s :     0.742738


                     *******************************
                     * LOEWDIN POPULATION ANALYSIS *
                     *******************************

----------------------
LOEWDIN ATOMIC CHARGES
----------------------
   0 C :    0.760303
   1 N :   -0.938131
   2 H :    0.177827

-------------------------------
LOEWDIN REDUCED ORBITAL CHARGES
-------------------------------
  0 C s       :     3.796058  s :     3.796058
      pz      :     0.000068  p :     1.420611
      px      :     1.419320
      py      :     0.001222
      dz2     :     0.005754  d :     0.023028
      dxz     :     0.000000
      dyz     :     0.000000
      dx2y2   :     0.017213
      dxy     :     0.000060
  1 N s       :     3.999613  s :     3.999613
      pz      :     1.999914  p :     3.938278
      px      :     1.937429
      py      :     0.000935
      dz2     :     0.000071  d :     0.000240
      dxz     :     0.000018
      dyz     :     0.000000
      dx2y2   :     0.000151
      dxy     :     0.000000
  2 H s       :     0.822173  s :     0.822173


                      *****************************
                      * MAYER POPULATION ANALYSIS *
                      *****************************

  NA   - Mulliken gross atomic population
  ZA   - Total nuclear charge
  QA   - Mulliken gross atomic charge
  VA   - Mayer's total valence
  BVA  - Mayer's bonded valence
  FA   - Mayer's free valence

  ATOM       NA         ZA         QA         VA         BVA        FA
  0 C      5.3176     6.0000     0.6824     0.8069     0.8069    -0.0000
  1 N      7.9397     7.0000    -0.9397     0.1171     0.1171    -0.0000
  2 H      0.7427     1.0000     0.2573     0.8801     0.8801    -0.0000

  Mayer bond orders larger than 0.1
B(  0-C ,  2-H ) :   0.7850 

-------
TIMINGS
-------

Total SCF time: 0 days 0 hours 7 min 21 sec 

Total time                  ....     441.317 sec
Sum of individual times     ....     429.904 sec  ( 97.4%)

Fock matrix formation       ....     429.157 sec  ( 97.2%)
  XC integration            ....      66.787 sec  ( 15.6% of F)
    Basis function eval.    ....      15.735 sec  ( 23.6% of XC)
    Density eval.           ....       3.174 sec  (  4.8% of XC)
    XC-Functional eval.     ....      19.657 sec  ( 29.4% of XC)
    XC-Potential eval.      ....       1.640 sec  (  2.5% of XC)
Diagonalization             ....       0.453 sec  (  0.1%)
Density matrix formation    ....       0.013 sec  (  0.0%)
Population analysis         ....       0.009 sec  (  0.0%)
Initial guess               ....       0.119 sec  (  0.0%)
Orbital Transformation      ....       0.000 sec  (  0.0%)
Orbital Orthonormalization  ....       0.000 sec  (  0.0%)
DIIS solution               ....       0.000 sec  (  0.0%)
Grid generation             ....       0.152 sec  (  0.0%)


-------------------------------------------------------------------------------
                          DFT DISPERSION CORRECTION                            
                                                                               
                              DFTD3 V3.1  Rev 1                                
                              USING zero damping                               
-------------------------------------------------------------------------------
The omegaB97X-D3 functional is recognized. Fit by Chai et al.
Active option DFTDOPT                   ...         3   

molecular C6(AA) [au] = 177.240949 


            DFT-D V3
 parameters
 s6 scaling factor         :     1.0000 
 rs6 scaling factor        :     1.2810 
 s8 scaling factor         :     1.0000 
 rs8 scaling factor        :     1.0940 
 Damping factor alpha6     :    14.0000 
 Damping factor alpha8     :    16.0000 
 ad hoc parameters k1-k3   :    16.0000     1.3333    -4.0000 

 Edisp/kcal,au: -0.107660017659  -0.000171567141 
 E6   /kcal   :  -0.066563667 
 E8   /kcal   :  -0.041096351 
 % E8         :  38.172342604 

-------------------------   ----------------
Dispersion correction           -0.000171567
-------------------------   ----------------


-------------------------   --------------------
FINAL SINGLE POINT ENERGY       -92.618419654766
-------------------------   --------------------


                            ***************************************
                            *     ORCA property calculations      *
                            ***************************************

                                    ---------------------
                                    Active property flags
                                    ---------------------
   (+) Dipole Moment


------------------------------------------------------------------------------
                       ORCA ELECTRIC PROPERTIES CALCULATION
------------------------------------------------------------------------------

Dipole Moment Calculation                       ... on
Quadrupole Moment Calculation                   ... off
Polarizability Calculation                      ... off
GBWName                                         ... Scan_36.gbw
Electron density file                           ... Scan_36.scfp.tmp

-------------
DIPOLE MOMENT
-------------
                                X             Y             Z
Electronic contribution:     -4.87436      -0.14364       0.00000
Nuclear contribution   :     -2.97458      -0.08784       0.00000
                        -----------------------------------------
Total Dipole Moment    :     -7.84893      -0.23148       0.00000
                        -----------------------------------------
Magnitude (a.u.)       :      7.85235
Magnitude (Debye)      :     19.95908


Timings for individual modules:

Sum of individual times         ...      441.668 sec (=   7.361 min)
GTO integral calculation        ...        0.328 sec (=   0.005 min)   0.1 %
SCF iterations                  ...      441.340 sec (=   7.356 min)  99.9 %
                             ****ORCA TERMINATED NORMALLY****
TOTAL RUN TIME: 0 days 0 hours 7 minutes 22 seconds 35 msec
