
                                 *****************
                                 * O   R   C   A *
                                 *****************

           --- An Ab Initio, DFT and Semiempirical electronic structure package ---

                  #######################################################
                  #                        -***-                        #
                  #  Department of molecular theory and spectroscopy    #
                  #              Directorship: Frank Neese              #
                  # Max Planck Institute for Chemical Energy Conversion #
                  #                  D-45470 Muelheim/Ruhr              #
                  #                       Germany                       #
                  #                                                     #
                  #                  All rights reserved                #
                  #                        -***-                        #
                  #######################################################


                         Program Version 4.0.0.2 - RELEASE -


 With contributions from (in alphabetic order):
   Daniel Aravena         : Magnetic Properties
   Michael Atanasov       : Ab Initio Ligand Field Theory
   Ute Becker             : Parallelization
   Martin Brehm           : Molecular dynamics
   Dmytro Bykov           : SCF Hessian
   Vijay G. Chilkuri      : MRCI spin determinant printing
   Dipayan Datta          : RHF DLPNO-CCSD density
   Achintya Kumar Dutta   : EOM-CC, STEOM-CC
   Dmitry Ganyushin       : Spin-Orbit,Spin-Spin,Magnetic field MRCI
   Yang Guo               : DLPNO-NEVPT2, CIM, IAO-localization
   Andreas Hansen         : Spin unrestricted coupled pair/coupled cluster methods
   Lee Huntington         : MR-EOM, pCC
   Robert Izsak           : Overlap fitted RIJCOSX, COSX-SCS-MP3, EOM
   Christian Kollmar      : KDIIS, OOCD, Brueckner-CCSD(T), CCSD density
   Simone Kossmann        : Meta GGA functionals, TD-DFT gradient, OOMP2, MP2 Hessian
   Martin Krupicka        : AUTO-CI
   Dagmar Lenk            : GEPOL surface
   Dimitrios Liakos       : Extrapolation schemes; parallel MDCI
   Dimitrios Manganas     : ROCIS; embedding schemes
   Dimitrios Pantazis     : SARC Basis sets
   Taras Petrenko         : DFT Hessian,TD-DFT gradient, ASA, ECA, R-Raman, ABS, FL, XAS/XES, NRVS
   Peter Pinski           : DLPNO-MP2
   Christoph Reimann      : Effective Core Potentials
   Marius Retegan         : Local ZFS, SOC
   Christoph Riplinger    : Optimizer, TS searches, QM/MM, DLPNO-CCSD(T), (RO)-DLPNO pert. Triples
   Tobias Risthaus        : Range-separated hybrids, TD-DFT gradient, RPA, STAB
   Michael Roemelt        : Restricted open shell CIS
   Masaaki Saitow         : Open-shell DLPNO
   Barbara Sandhoefer     : DKH picture change effects
   Kantharuban Sivalingam : CASSCF convergence, NEVPT2, FIC-MRCI
   Georgi Stoychev        : AutoAux
   Boris Wezisla          : Elementary symmetry handling
   Frank Wennmohs         : Technical directorship


 We gratefully acknowledge several colleagues who have allowed us to
 interface, adapt or use parts of their codes:
   Stefan Grimme, W. Hujo, H. Kruse,             : VdW corrections, initial TS optimization,
                  C. Bannwarth                     DFT functionals, gCP, sTDA/sTD-DF
   Ed Valeev                                     : LibInt (2-el integral package), F12 methods
   Garnet Chan, S. Sharma, J. Yang, R. Olivares  : DMRG
   Ulf Ekstrom                                   : XCFun DFT Library
   Mihaly Kallay                                 : mrcc  (arbitrary order and MRCC methods)
   Jiri Pittner, Ondrej Demel                    : Mk-CCSD
   Frank Weinhold                                : gennbo (NPA and NBO analysis)
   Christopher J. Cramer and Donald G. Truhlar   : smd solvation model


 Your calculation uses the libint2 library for the computation of 2-el integrals
 For citations please refer to: http://libint.valeyev.net

 This ORCA versions uses:
   CBLAS   interface :  Fast vector & matrix operations
   LAPACKE interface :  Fast linear algebra routines
   SCALAPACK package :  Parallel linear algebra routines


Your calculation utilizes the atom-pairwise dispersion correction
with the zero-damping scheme (D30)
Cite in your paper:
S.Grimme, J.Antony, S.Ehrlich and H.Krieg, J.Chem.Phys., 132, (2010), 154104 
   

XCFun DFT library Copyright 2009-2010 Ulf Ekstrom and contributors.
See http://admol.org/xcfun for more information. This is free soft-
ware; see the source code for copying conditions. There is ABSOLUTELY
NO WARRANTY; not even for MERCHANTABILITY or FITNESS FOR A PARTICULAR
PURPOSE. For details see the documentation. Scientific users of this 
library should cite U. Ekstrom, L. Visscher, R. Bast, A. J. Thorvald-
sen and K. Ruud; J.Chem.Theor.Comp. 2010, DOI: 10.1021/ct100117s
XCFun Version 0.99 
Your calculation utilizes the basis: 6-31G(d)
   H-He, Li-Ne : W. J. Hehre, R. Ditchfield and J.A. Pople, J. Chem. Phys. 56, 2257 (1972).
                 Note: He and Ne are unpublished basis sets taken from the Gaussian program.
                 Note: Li and B from J. D. Dill and J. A. Pople, J. Chem. Phys. 62, 2921 (1975).
   Na - Ar     : M. M. Francl, W. J. Pietro, W. J. Hehre, J. S. Binkley, M. S. Gordon, 
                 D. J. DeFrees and J. A. Pople, J. Chem. Phys. 77, 3654 (1982).
   K - Zn      : V. A. Rassolov, J. A. Pople, M. A. Ratner, and T. L. Windus, J. Chem. Phys. 109, 1223 (1998).

================================================================================
                                        WARNINGS
                       Please study these warnings very carefully!
================================================================================

Warning: TCutStore was < 0. Adjusted to Thresh (uncritical)

INFO   : the flag for use of LIBINT has been found!

================================================================================
                                       INPUT FILE
================================================================================
NAME = initial37.inp
|  1> ! WB97X-D3 6-31G(d) VerySlowConv
|  2> ! KDIIS NOSOSCF
|  3> %base "Scan_37"
|  4> 
|  5> %scf
|  6> maxiter 999
|  7> end
|  8> 
|  9> * xyz 0 1
| 10> C         -4.503203958842    0.370573997791    0.000000000000
| 11> N         -0.323086063293    0.494111681375    0.000000000000
| 12> H         -5.613489977865    0.337844320834   -0.000000000000
| 13> **                         ****END OF INPUT****
================================================================================

                       ****************************
                       * Single Point Calculation *
                       ****************************

---------------------------------
CARTESIAN COORDINATES (ANGSTROEM)
---------------------------------
  C     -4.503204    0.370574    0.000000
  N     -0.323086    0.494112    0.000000
  H     -5.613490    0.337844   -0.000000

----------------------------
CARTESIAN COORDINATES (A.U.)
----------------------------
  NO LB      ZA    FRAG     MASS         X           Y           Z
   0 C     6.0000    0    12.011   -8.509822    0.700283    0.000000
   1 N     7.0000    0    14.007   -0.610544    0.933736    0.000000
   2 H     1.0000    0     1.008  -10.607959    0.638433   -0.000000

--------------------------------
INTERNAL COORDINATES (ANGSTROEM)
--------------------------------
 C      0   0   0     0.000000000000     0.00000000     0.00000000
 N      1   0   0     4.181942990998     0.00000000     0.00000000
 H      1   2   0     1.110768326786   179.99570446     0.00000000

---------------------------
INTERNAL COORDINATES (A.U.)
---------------------------
 C      0   0   0     0.000000000000     0.00000000     0.00000000
 N      1   0   0     7.902726960657     0.00000000     0.00000000
 H      1   2   0     2.099047935860   179.99570446     0.00000000

---------------------
BASIS SET INFORMATION
---------------------
There are 3 groups of distinct atoms

 Group   1 Type C   : 10s4p1d contracted to 3s2p1d pattern {631/31/1}
 Group   2 Type N   : 10s4p1d contracted to 3s2p1d pattern {631/31/1}
 Group   3 Type H   : 4s contracted to 2s pattern {31}

Atom   0C    basis set group =>   1
Atom   1N    basis set group =>   2
Atom   2H    basis set group =>   3
------------------------------------------------------------------------------
                           ORCA GTO INTEGRAL CALCULATION
------------------------------------------------------------------------------

                         BASIS SET STATISTICS AND STARTUP INFO

 # of primitive gaussian shells          ...   34
 # of primitive gaussian functions       ...   58
 # of contracted shells                  ...   14
 # of contracted basis functions         ...   30
 Highest angular momentum                ...    2
 Maximum contraction depth               ...    6
 Integral package used                   ... LIBINT
 Integral threshhold            Thresh   ...  1.000e-10
 Primitive cut-off              TCut     ...  1.000e-11


------------------------------ INTEGRAL EVALUATION ----------------------------


 * One electron integrals 
 Pre-screening matrix                    ... done
 Shell pair data                         ... done (   0.000 sec)

-------------------------------------------------------------------------------
                                 ORCA SCF
-------------------------------------------------------------------------------

------------
SCF SETTINGS
------------
Hamiltonian:
 Density Functional     Method          .... DFT(GTOs)
 Exchange Functional    Exchange        .... WB97X-D3
 Correlation Functional Correlation     .... WB97X-D3
 Gradients option       PostSCFGGA      .... off
 Hybrid DFT is turned on
   Fraction HF Exchange ScalHFX         ....  0.195728
   Scaling of DF-GGA-X  ScalDFX         ....  0.000000
   Scaling of DF-GGA-C  ScalDFC         ....  1.000000
   Scaling of DF-LDA-C  ScalLDAC        ....  1.000000
   Perturbative correction              ....  0.000000
 Long-range corrected/Screened/Range-Separated Hybrid DFT is turned on
   Amount of maximum screened exact exchange              ....  0.804272
   Range separation parameter mu (erf(mu*r12)/r12)        ....  0.250000


General Settings:
 Integral files         IntName         .... Scan_37
 Hartree-Fock type      HFTyp           .... RHF
 Total Charge           Charge          ....    0
 Multiplicity           Mult            ....    1
 Number of Electrons    NEL             ....   14
 Basis Dimension        Dim             ....   30
 Nuclear Repulsion      ENuc            ....      8.8729357189 Eh

Convergence Acceleration:
 DIIS                   CNVDIIS         .... on
   Start iteration      DIISMaxIt       ....     0
   Startup error        DIISStart       ....  0.200000
   # of expansion vecs  DIISMaxEq       ....     5
   Bias factor          DIISBfac        ....   1.050
   Max. coefficient     DIISMaxC        ....  10.000
 Newton-Raphson         CNVNR           .... off
 SOSCF                  CNVSOSCF        .... off
 Level Shifting         CNVShift        .... off
 Zerner damping         CNVZerner       .... off
 Static damping         CNVDamp         .... off
 Fernandez-Rico         CNVRico         .... off

SCF Procedure:
 Maximum # iterations   MaxIter         ....   999
 SCF integral mode      SCFMode         .... Direct
   Integral package                     .... LIBINT
 Reset frequeny         DirectResetFreq ....    20
 Integral Threshold     Thresh          ....  1.000e-10 Eh
 Primitive CutOff       TCut            ....  1.000e-11 Eh

Convergence Tolerance:
 Convergence Check Mode ConvCheckMode   .... All-Criteria
 Convergence forced     ConvForced      .... 0
 Energy Change          TolE            ....  1.000e-06 Eh
 Max Density Change     TolMaxP         ....  1.000e-05
 RMS Density Change     TolRMSP         ....  1.000e-06
 DIIS Error             TolErr          ....  1.000e-06


Diagonalization of the overlap matrix:
Smallest eigenvalue                        ... 4.847e-02
Time for diagonalization                   ...    0.001 sec
Threshold for overlap eigenvalues          ... 1.000e-08
Number of eigenvalues below threshold      ... 0
Time for construction of square roots      ...    0.004 sec
Total time needed                          ...    0.005 sec

-------------------
DFT GRID GENERATION
-------------------

General Integration Accuracy     IntAcc      ...  4.340
Radial Grid Type                 RadialGrid  ... Gauss-Chebyshev
Angular Grid (max. acc.)         AngularGrid ... Lebedev-110
Angular grid pruning method      GridPruning ... 3 (G Style)
Weight generation scheme         WeightScheme... Becke
Basis function cutoff            BFCut       ...    1.0000e-10
Integration weight cutoff        WCut        ...    1.0000e-14
Grids for H and He will be reduced by one unit

# of grid points (after initial pruning)     ...   4152 (   0.0 sec)
# of grid points (after weights+screening)   ...   4118 (   0.0 sec)
nearest neighbour list constructed           ...    0.0 sec
Grid point re-assignment to atoms done       ...    0.0 sec
Grid point division into batches done        ...    0.0 sec
Reduced shell lists constructed in    0.0 sec

Total number of grid points                  ...     4118
Total number of batches                      ...       67
Average number of points per batch           ...       61
Average number of grid points per atom       ...     1373
Average number of shells per batch           ...     9.65 (68.91%)
Average number of basis functions per batch  ...    20.62 (68.73%)
Average number of large shells per batch     ...     8.01 (83.08%)
Average number of large basis fcns per batch ...    17.25 (83.67%)
Maximum spatial batch extension              ...  20.26, 25.60, 31.36 au
Average spatial batch extension              ...   5.12,  6.68,  6.84 au

Time for grid setup =    0.024 sec

------------------------------
INITIAL GUESS: MODEL POTENTIAL
------------------------------
Loading Hartree-Fock densities                     ... done
Calculating cut-offs                               ... done
Setting up the integral package                    ... done
Initializing the effective Hamiltonian             ... done
Starting the Coulomb interaction                   ... done (   0.0 sec)
Reading the grid                                   ... done
Mapping shells                                     ... done
Starting the XC term evaluation                    ... done (   0.0 sec)
  promolecular density results
     # of electrons  =     13.997211423
     EX              =    -11.613808381
     EC              =     -0.388724694
     EX+EC           =    -12.002533075
Transforming the Hamiltonian                       ... done (   0.0 sec)
Diagonalizing the Hamiltonian                      ... done (   0.0 sec)
Back transforming the eigenvectors                 ... done (   0.0 sec)
Now organizing SCF variables                       ... done
                      ------------------
                      INITIAL GUESS DONE (   0.1 sec)
                      ------------------
--------------
SCF ITERATIONS
--------------
ITER       Energy         Delta-E        Max-DP      RMS-DP      [F,P]   Gradient Norm
               ***  Starting incremental Fock matrix formation  ***
                             ****Resetting KDIIS****
                             ****Turning on KDIIS(Cayley)****
  0    -92.5161842956   0.000000000000 0.04608612  0.00339379  0.1518314   0.112106053
  1    -92.5458472685  -0.029662972892 0.03811300  0.00366915  0.1259248   0.094310723
  2    -92.5720488963  -0.026201627712 0.06026619  0.00590714  0.1008251   0.075620012
  3    -92.6027023151  -0.030653418812 0.09237413  0.00922695  0.0598250   0.045650223
  4    -92.6195920466  -0.016889731494 0.06032771  0.00440690  0.0225120   0.011121102
  5    -92.6173862652   0.002205781315 0.13800494  0.00919954  0.0239247   0.013631619
  6    -92.6160878310   0.001298434291 0.30027600  0.02168493  0.0346688   0.019737614
  7    -92.6219482688  -0.005860437848 0.06569001  0.00630713  0.0277641   0.018271715
  8    -92.6283686848  -0.006420416004 0.17900875  0.01046926  0.0193931   0.009293476
  9    -92.6272241809   0.001144503890 0.02193067  0.00140031  0.0034796   0.003217895
 10    -92.6273066068  -0.000082425878 0.11245426  0.00595980  0.0042216   0.001765470
 11    -92.6275285064  -0.000221899564 0.01672314  0.00097248  0.0018145   0.001521995
 12    -92.6275629594  -0.000034453040 0.01182533  0.00063188  0.0007775   0.000440357
 13    -92.6275754093  -0.000012449932 0.00571172  0.00034950  0.0007654   0.000416591
 14    -92.6275642915   0.000011117807 0.00650823  0.00037584  0.0007766   0.000358898
 15    -92.6275728650  -0.000008573468 0.00434731  0.00039833  0.0007667   0.000337993
 16    -92.6275934827  -0.000020617736 0.02751474  0.00234857  0.0007388   0.000322107
 17    -92.6277026590  -0.000109176277 0.00423311  0.00036058  0.0005571   0.000289323
 18    -92.6276888830   0.000013776031 0.02002347  0.00170900  0.0005909   0.000311776
 19    -92.6277500081  -0.000061125149 0.02842367  0.00239010  0.0004443   0.000337975
               *** Restarting incremental Fock matrix formation ***
                             ****Resetting KDIIS****
 20    -92.6278055382  -0.000055530115 0.00010315  0.00000899  0.0003377   0.000228198
                          ***Energy convergence achieved***
 21    -92.6278058860  -0.000000347791 0.00016140  0.00001324  0.0003777   0.000228845
 22    -92.6278057354   0.000000150637 0.00032705  0.00002829  0.0003222   0.000203791
 23    -92.6278058298  -0.000000094421 0.00131912  0.00012766  0.0002015   0.000156326
 24    -92.6278077176  -0.000001887760 0.00077803  0.00006797  0.0001961   0.000090236
                          ***Energy convergence achieved***
 25    -92.6278086887  -0.000000971095 0.00009691  0.00000998  0.0001871   0.000085805
 26    -92.6278085543   0.000000134365 0.00074508  0.00006377  0.0001881   0.000082045
 27    -92.6278093566  -0.000000802257 0.00175994  0.00014816  0.0001823   0.000076474
 28    -92.6278111910  -0.000001834461 0.00266381  0.00022463  0.0001672   0.000073285
 29    -92.6278137838  -0.000002592803 0.00032391  0.00002825  0.0001434   0.000080051
                          ***Energy convergence achieved***
 30    -92.6278139806  -0.000000196822 0.00311595  0.00026323  0.0001403   0.000076459
 31    -92.6278163110  -0.000002330318 0.00477593  0.00040208  0.0001152   0.000070645
 32    -92.6278190281  -0.000002717094 0.00072857  0.00006241  0.0000788   0.000065737
                          ***Energy convergence achieved***
 33    -92.6278194348  -0.000000406746 0.00439807  0.00037016  0.0001310   0.000068993
 34    -92.6278205484  -0.000001113600 0.00329237  0.00027678  0.0000705   0.000048084
                          ***Energy convergence achieved***
 35    -92.6278208269  -0.000000278464 0.00015588  0.00001266  0.0000537   0.000034327
 36    -92.6278209229  -0.000000096088 0.00155620  0.00013131  0.0001077   0.000044150
 37    -92.6278207457   0.000000177289 0.00055793  0.00004732  0.0000402   0.000025314
 38    -92.6278206944   0.000000051299 0.00024359  0.00002113  0.0000273   0.000020621
 39    -92.6278206728   0.000000021589 0.00027664  0.00002388  0.0000376   0.000021016
               *** Restarting incremental Fock matrix formation ***
                             ****Resetting KDIIS****
                           ***RMSP convergence achieved***
                           ***MAXP convergence achieved***
                    *** KDIIS BlockDiag ( 0.000 sec) ***

               *****************************************************
               *                     SUCCESS                       *
               *           SCF CONVERGED AFTER  40 CYCLES          *
               *****************************************************

Setting up the final grid:

General Integration Accuracy     IntAcc      ...  4.670
Radial Grid Type                 RadialGrid  ... Gauss-Chebyshev
Angular Grid (max. acc.)         AngularGrid ... Lebedev-302
Angular grid pruning method      GridPruning ... 3 (G Style)
Weight generation scheme         WeightScheme... Becke
Basis function cutoff            BFCut       ...    1.0000e-10
Integration weight cutoff        WCut        ...    1.0000e-14
Grids for H and He will be reduced by one unit

# of grid points (after initial pruning)     ...  15818 (   0.0 sec)
# of grid points (after weights+screening)   ...  15753 (   0.0 sec)
nearest neighbour list constructed           ...    0.0 sec
Grid point re-assignment to atoms done       ...    0.0 sec
Grid point division into batches done        ...    0.1 sec
Reduced shell lists constructed in    0.1 sec

Total number of grid points                  ...    15753
Total number of batches                      ...      247
Average number of points per batch           ...       63
Average number of grid points per atom       ...     5251
Average number of shells per batch           ...     8.35 (59.62%)
Average number of basis functions per batch  ...    17.61 (58.71%)
Average number of large shells per batch     ...     6.88 (82.42%)
Average number of large basis fcns per batch ...    14.78 (83.93%)
Maximum spatial batch extension              ...  19.22, 21.49, 24.37 au
Average spatial batch extension              ...   3.59,  4.23,  4.26 au

Final grid set up in    0.1 sec
Final integration                            ... done (   0.1 sec)
Change in XC energy                          ...     0.000434401
Integrated number of electrons               ...    14.000015873
Previous integrated no of electrons          ...    13.998818525

----------------
TOTAL SCF ENERGY
----------------

Total Energy       :          -92.62738622 Eh           -2520.51932 eV

Components:
Nuclear Repulsion  :            8.87293572 Eh             241.44486 eV
Electronic Energy  :         -101.50032194 Eh           -2761.96418 eV
One Electron Energy:         -142.55349681 Eh           -3879.07786 eV
Two Electron Energy:           41.05317487 Eh            1117.11368 eV

Virial components:
Potential Energy   :         -184.87430142 Eh           -5030.68550 eV
Kinetic Energy     :           92.24691520 Eh            2510.16618 eV
Virial Ratio       :            2.00412449


DFT components:
N(Alpha)           :        7.000007936279 electrons
N(Beta)            :        7.000007936279 electrons
N(Total)           :       14.000015872558 electrons
E(XC)              :       -8.476886899156 Eh       

---------------
SCF CONVERGENCE
---------------

  Last Energy change         ...    4.9558e-08  Tolerance :   1.0000e-06
  Last MAX-Density change    ...    6.8540e-06  Tolerance :   1.0000e-05
  Last RMS-Density change    ...    7.1951e-07  Tolerance :   1.0000e-06
  Last DIIS Error            ...    2.6558e-05  Tolerance :   1.0000e-06

             **** THE GBW FILE WAS UPDATED (Scan_37.gbw) ****
             **** DENSITY FILE WAS UPDATED (Scan_37.scfp.tmp) ****
             **** ENERGY FILE WAS UPDATED (Scan_37.en.tmp) ****
----------------
ORBITAL ENERGIES
----------------

  NO   OCC          E(Eh)            E(eV) 
   0   2.0000     -14.240242      -387.4967 
   1   2.0000     -10.735841      -292.1371 
   2   2.0000      -0.994716       -27.0676 
   3   2.0000      -0.644658       -17.5420 
   4   2.0000      -0.552466       -15.0334 
   5   2.0000      -0.097175        -2.6443 
   6   2.0000      -0.086564        -2.3555 
   7   0.0000      -0.271974        -7.4008 
   8   0.0000      -0.271813        -7.3964 
   9   0.0000       0.035103         0.9552 
  10   0.0000       0.167419         4.5557 
  11   0.0000       0.456893        12.4327 
  12   0.0000       0.457206        12.4412 
  13   0.0000       0.495562        13.4849 
  14   0.0000       0.555000        15.1023 
  15   0.0000       0.767181        20.8761 
  16   0.0000       1.008399        27.4399 
  17   0.0000       1.010995        27.5106 
  18   0.0000       1.013749        27.5855 
  19   0.0000       1.093048        29.7434 
  20   0.0000       1.487650        40.4810 
  21   0.0000       1.487747        40.4837 
  22   0.0000       1.502711        40.8908 
  23   0.0000       1.503323        40.9075 
  24   0.0000       1.954534        53.1856 
  25   0.0000       2.063460        56.1496 
  26   0.0000       2.063888        56.1613 
  27   0.0000       2.068518        56.2872 
  28   0.0000       2.101703        57.1902 
  29   0.0000       2.101850        57.1943 

                    ********************************
                    * MULLIKEN POPULATION ANALYSIS *
                    ********************************

-----------------------
MULLIKEN ATOMIC CHARGES
-----------------------
   0 C :    0.673248
   1 N :   -0.798852
   2 H :    0.125604
Sum of atomic charges:   -0.0000000

--------------------------------
MULLIKEN REDUCED ORBITAL CHARGES
--------------------------------
  0 C s       :     3.953294  s :     3.953294
      pz      :     0.000036  p :     1.356111
      px      :     1.354925
      py      :     0.001151
      dz2     :     0.004335  d :     0.017347
      dxz     :     0.000000
      dyz     :     0.000000
      dx2y2   :     0.012967
      dxy     :     0.000045
  1 N s       :     3.999765  s :     3.999765
      pz      :     1.999952  p :     3.798859
      px      :     1.798174
      py      :     0.000733
      dz2     :     0.000083  d :     0.000227
      dxz     :     0.000012
      dyz     :     0.000000
      dx2y2   :     0.000131
      dxy     :     0.000000
  2 H s       :     0.874396  s :     0.874396


                     *******************************
                     * LOEWDIN POPULATION ANALYSIS *
                     *******************************

----------------------
LOEWDIN ATOMIC CHARGES
----------------------
   0 C :    0.711472
   1 N :   -0.803235
   2 H :    0.091763

-------------------------------
LOEWDIN REDUCED ORBITAL CHARGES
-------------------------------
  0 C s       :     3.813829  s :     3.813829
      pz      :     0.000033  p :     1.449440
      px      :     1.448176
      py      :     0.001231
      dz2     :     0.006313  d :     0.025259
      dxz     :     0.000000
      dyz     :     0.000000
      dx2y2   :     0.018880
      dxy     :     0.000066
  1 N s       :     3.999809  s :     3.999809
      pz      :     1.999954  p :     3.803197
      px      :     1.802507
      py      :     0.000735
      dz2     :     0.000084  d :     0.000229
      dxz     :     0.000012
      dyz     :     0.000000
      dx2y2   :     0.000133
      dxy     :     0.000000
  2 H s       :     0.908237  s :     0.908237


                      *****************************
                      * MAYER POPULATION ANALYSIS *
                      *****************************

  NA   - Mulliken gross atomic population
  ZA   - Total nuclear charge
  QA   - Mulliken gross atomic charge
  VA   - Mayer's total valence
  BVA  - Mayer's bonded valence
  FA   - Mayer's free valence

  ATOM       NA         ZA         QA         VA         BVA        FA
  0 C      5.3268     6.0000     0.6732     0.6537     0.6537    -0.0000
  1 N      7.7989     7.0000    -0.7989     0.3620     0.3620    -0.0000
  2 H      0.8744     1.0000     0.1256     0.9688     0.9688    -0.0000

  Mayer bond orders larger than 0.1
B(  0-C ,  2-H ) :   0.6302 B(  1-N ,  2-H ) :   0.3385 

-------
TIMINGS
-------

Total SCF time: 0 days 0 hours 0 min 11 sec 

Total time                  ....      11.929 sec
Sum of individual times     ....      11.483 sec  ( 96.3%)

Fock matrix formation       ....      11.207 sec  ( 93.9%)
  XC integration            ....       2.274 sec  ( 20.3% of F)
    Basis function eval.    ....       0.430 sec  ( 18.9% of XC)
    Density eval.           ....       0.085 sec  (  3.8% of XC)
    XC-Functional eval.     ....       0.547 sec  ( 24.1% of XC)
    XC-Potential eval.      ....       0.045 sec  (  2.0% of XC)
Diagonalization             ....       0.014 sec  (  0.1%)
Density matrix formation    ....       0.000 sec  (  0.0%)
Population analysis         ....       0.010 sec  (  0.1%)
Initial guess               ....       0.110 sec  (  0.9%)
Orbital Transformation      ....       0.000 sec  (  0.0%)
Orbital Orthonormalization  ....       0.000 sec  (  0.0%)
DIIS solution               ....       0.000 sec  (  0.0%)
Grid generation             ....       0.142 sec  (  1.2%)


-------------------------------------------------------------------------------
                          DFT DISPERSION CORRECTION                            
                                                                               
                              DFTD3 V3.1  Rev 1                                
                              USING zero damping                               
-------------------------------------------------------------------------------
The omegaB97X-D3 functional is recognized. Fit by Chai et al.
Active option DFTDOPT                   ...         3   

molecular C6(AA) [au] = 177.241212 


            DFT-D V3
 parameters
 s6 scaling factor         :     1.0000 
 rs6 scaling factor        :     1.2810 
 s8 scaling factor         :     1.0000 
 rs8 scaling factor        :     1.0940 
 Damping factor alpha6     :    14.0000 
 Damping factor alpha8     :    16.0000 
 ad hoc parameters k1-k3   :    16.0000     1.3333    -4.0000 

 Edisp/kcal,au: -0.098208060913  -0.000156504490 
 E6   /kcal   :  -0.064078833 
 E8   /kcal   :  -0.034129228 
 % E8         :  34.751962023 

-------------------------   ----------------
Dispersion correction           -0.000156504
-------------------------   ----------------


-------------------------   --------------------
FINAL SINGLE POINT ENERGY       -92.627542726426
-------------------------   --------------------


                            ***************************************
                            *     ORCA property calculations      *
                            ***************************************

                                    ---------------------
                                    Active property flags
                                    ---------------------
   (+) Dipole Moment


------------------------------------------------------------------------------
                       ORCA ELECTRIC PROPERTIES CALCULATION
------------------------------------------------------------------------------

Dipole Moment Calculation                       ... on
Quadrupole Moment Calculation                   ... off
Polarizability Calculation                      ... off
GBWName                                         ... Scan_37.gbw
Electron density file                           ... Scan_37.scfp.tmp

-------------
DIPOLE MOMENT
-------------
                                X             Y             Z
Electronic contribution:     -3.68693      -0.10862      -0.00000
Nuclear contribution   :     -3.02400      -0.08930       0.00000
                        -----------------------------------------
Total Dipole Moment    :     -6.71093      -0.19791      -0.00000
                        -----------------------------------------
Magnitude (a.u.)       :      6.71385
Magnitude (Debye)      :     17.06524


Timings for individual modules:

Sum of individual times         ...       12.249 sec (=   0.204 min)
GTO integral calculation        ...        0.297 sec (=   0.005 min)   2.4 %
SCF iterations                  ...       11.952 sec (=   0.199 min)  97.6 %
                             ****ORCA TERMINATED NORMALLY****
TOTAL RUN TIME: 0 days 0 hours 0 minutes 12 seconds 573 msec
