
                                 *****************
                                 * O   R   C   A *
                                 *****************

           --- An Ab Initio, DFT and Semiempirical electronic structure package ---

                  #######################################################
                  #                        -***-                        #
                  #  Department of molecular theory and spectroscopy    #
                  #              Directorship: Frank Neese              #
                  # Max Planck Institute for Chemical Energy Conversion #
                  #                  D-45470 Muelheim/Ruhr              #
                  #                       Germany                       #
                  #                                                     #
                  #                  All rights reserved                #
                  #                        -***-                        #
                  #######################################################


                         Program Version 4.0.0.2 - RELEASE -


 With contributions from (in alphabetic order):
   Daniel Aravena         : Magnetic Properties
   Michael Atanasov       : Ab Initio Ligand Field Theory
   Ute Becker             : Parallelization
   Martin Brehm           : Molecular dynamics
   Dmytro Bykov           : SCF Hessian
   Vijay G. Chilkuri      : MRCI spin determinant printing
   Dipayan Datta          : RHF DLPNO-CCSD density
   Achintya Kumar Dutta   : EOM-CC, STEOM-CC
   Dmitry Ganyushin       : Spin-Orbit,Spin-Spin,Magnetic field MRCI
   Yang Guo               : DLPNO-NEVPT2, CIM, IAO-localization
   Andreas Hansen         : Spin unrestricted coupled pair/coupled cluster methods
   Lee Huntington         : MR-EOM, pCC
   Robert Izsak           : Overlap fitted RIJCOSX, COSX-SCS-MP3, EOM
   Christian Kollmar      : KDIIS, OOCD, Brueckner-CCSD(T), CCSD density
   Simone Kossmann        : Meta GGA functionals, TD-DFT gradient, OOMP2, MP2 Hessian
   Martin Krupicka        : AUTO-CI
   Dagmar Lenk            : GEPOL surface
   Dimitrios Liakos       : Extrapolation schemes; parallel MDCI
   Dimitrios Manganas     : ROCIS; embedding schemes
   Dimitrios Pantazis     : SARC Basis sets
   Taras Petrenko         : DFT Hessian,TD-DFT gradient, ASA, ECA, R-Raman, ABS, FL, XAS/XES, NRVS
   Peter Pinski           : DLPNO-MP2
   Christoph Reimann      : Effective Core Potentials
   Marius Retegan         : Local ZFS, SOC
   Christoph Riplinger    : Optimizer, TS searches, QM/MM, DLPNO-CCSD(T), (RO)-DLPNO pert. Triples
   Tobias Risthaus        : Range-separated hybrids, TD-DFT gradient, RPA, STAB
   Michael Roemelt        : Restricted open shell CIS
   Masaaki Saitow         : Open-shell DLPNO
   Barbara Sandhoefer     : DKH picture change effects
   Kantharuban Sivalingam : CASSCF convergence, NEVPT2, FIC-MRCI
   Georgi Stoychev        : AutoAux
   Boris Wezisla          : Elementary symmetry handling
   Frank Wennmohs         : Technical directorship


 We gratefully acknowledge several colleagues who have allowed us to
 interface, adapt or use parts of their codes:
   Stefan Grimme, W. Hujo, H. Kruse,             : VdW corrections, initial TS optimization,
                  C. Bannwarth                     DFT functionals, gCP, sTDA/sTD-DF
   Ed Valeev                                     : LibInt (2-el integral package), F12 methods
   Garnet Chan, S. Sharma, J. Yang, R. Olivares  : DMRG
   Ulf Ekstrom                                   : XCFun DFT Library
   Mihaly Kallay                                 : mrcc  (arbitrary order and MRCC methods)
   Jiri Pittner, Ondrej Demel                    : Mk-CCSD
   Frank Weinhold                                : gennbo (NPA and NBO analysis)
   Christopher J. Cramer and Donald G. Truhlar   : smd solvation model


 Your calculation uses the libint2 library for the computation of 2-el integrals
 For citations please refer to: http://libint.valeyev.net

 This ORCA versions uses:
   CBLAS   interface :  Fast vector & matrix operations
   LAPACKE interface :  Fast linear algebra routines
   SCALAPACK package :  Parallel linear algebra routines


Your calculation utilizes the atom-pairwise dispersion correction
with the zero-damping scheme (D30)
Cite in your paper:
S.Grimme, J.Antony, S.Ehrlich and H.Krieg, J.Chem.Phys., 132, (2010), 154104 
   

XCFun DFT library Copyright 2009-2010 Ulf Ekstrom and contributors.
See http://admol.org/xcfun for more information. This is free soft-
ware; see the source code for copying conditions. There is ABSOLUTELY
NO WARRANTY; not even for MERCHANTABILITY or FITNESS FOR A PARTICULAR
PURPOSE. For details see the documentation. Scientific users of this 
library should cite U. Ekstrom, L. Visscher, R. Bast, A. J. Thorvald-
sen and K. Ruud; J.Chem.Theor.Comp. 2010, DOI: 10.1021/ct100117s
XCFun Version 0.99 
Your calculation utilizes the basis: 6-31G(d)
   H-He, Li-Ne : W. J. Hehre, R. Ditchfield and J.A. Pople, J. Chem. Phys. 56, 2257 (1972).
                 Note: He and Ne are unpublished basis sets taken from the Gaussian program.
                 Note: Li and B from J. D. Dill and J. A. Pople, J. Chem. Phys. 62, 2921 (1975).
   Na - Ar     : M. M. Francl, W. J. Pietro, W. J. Hehre, J. S. Binkley, M. S. Gordon, 
                 D. J. DeFrees and J. A. Pople, J. Chem. Phys. 77, 3654 (1982).
   K - Zn      : V. A. Rassolov, J. A. Pople, M. A. Ratner, and T. L. Windus, J. Chem. Phys. 109, 1223 (1998).

================================================================================
                                        WARNINGS
                       Please study these warnings very carefully!
================================================================================

Warning: TCutStore was < 0. Adjusted to Thresh (uncritical)

INFO   : the flag for use of LIBINT has been found!

================================================================================
                                       INPUT FILE
================================================================================
NAME = initial38.inp
|  1> ! WB97X-D3 6-31G(d) VerySlowConv
|  2> ! KDIIS NOSOSCF
|  3> %base "Scan_38"
|  4> 
|  5> %scf
|  6> maxiter 999
|  7> end
|  8> 
|  9> * xyz 0 1
| 10> C         -4.537282998340    0.369563466061    0.000000000000
| 11> N         -0.254938387704    0.496124700974    0.000000000000
| 12> H         -5.647558613957    0.336841832966   -0.000000000000
| 13> **                         ****END OF INPUT****
================================================================================

                       ****************************
                       * Single Point Calculation *
                       ****************************

---------------------------------
CARTESIAN COORDINATES (ANGSTROEM)
---------------------------------
  C     -4.537283    0.369563    0.000000
  N     -0.254938    0.496125    0.000000
  H     -5.647559    0.336842   -0.000000

----------------------------
CARTESIAN COORDINATES (A.U.)
----------------------------
  NO LB      ZA    FRAG     MASS         X           Y           Z
   0 C     6.0000    0    12.011   -8.574222    0.698374    0.000000
   1 N     7.0000    0    14.007   -0.481764    0.937540    0.000000
   2 H     1.0000    0     1.008  -10.672339    0.636539   -0.000000

--------------------------------
INTERNAL COORDINATES (ANGSTROEM)
--------------------------------
 C      0   0   0     0.000000000000     0.00000000     0.00000000
 N      1   0   0     4.284214409950     0.00000000     0.00000000
 H      1   2   0     1.110757690906   179.99527371     0.00000000

---------------------------
INTERNAL COORDINATES (A.U.)
---------------------------
 C      0   0   0     0.000000000000     0.00000000     0.00000000
 N      1   0   0     8.095991933805     0.00000000     0.00000000
 H      1   2   0     2.099027836958   179.99527371     0.00000000

---------------------
BASIS SET INFORMATION
---------------------
There are 3 groups of distinct atoms

 Group   1 Type C   : 10s4p1d contracted to 3s2p1d pattern {631/31/1}
 Group   2 Type N   : 10s4p1d contracted to 3s2p1d pattern {631/31/1}
 Group   3 Type H   : 4s contracted to 2s pattern {31}

Atom   0C    basis set group =>   1
Atom   1N    basis set group =>   2
Atom   2H    basis set group =>   3
------------------------------------------------------------------------------
                           ORCA GTO INTEGRAL CALCULATION
------------------------------------------------------------------------------

                         BASIS SET STATISTICS AND STARTUP INFO

 # of primitive gaussian shells          ...   34
 # of primitive gaussian functions       ...   58
 # of contracted shells                  ...   14
 # of contracted basis functions         ...   30
 Highest angular momentum                ...    2
 Maximum contraction depth               ...    6
 Integral package used                   ... LIBINT
 Integral threshhold            Thresh   ...  1.000e-10
 Primitive cut-off              TCut     ...  1.000e-11


------------------------------ INTEGRAL EVALUATION ----------------------------


 * One electron integrals 
 Pre-screening matrix                    ... done
 Shell pair data                         ... done (   0.000 sec)

-------------------------------------------------------------------------------
                                 ORCA SCF
-------------------------------------------------------------------------------

------------
SCF SETTINGS
------------
Hamiltonian:
 Density Functional     Method          .... DFT(GTOs)
 Exchange Functional    Exchange        .... WB97X-D3
 Correlation Functional Correlation     .... WB97X-D3
 Gradients option       PostSCFGGA      .... off
 Hybrid DFT is turned on
   Fraction HF Exchange ScalHFX         ....  0.195728
   Scaling of DF-GGA-X  ScalDFX         ....  0.000000
   Scaling of DF-GGA-C  ScalDFC         ....  1.000000
   Scaling of DF-LDA-C  ScalLDAC        ....  1.000000
   Perturbative correction              ....  0.000000
 Long-range corrected/Screened/Range-Separated Hybrid DFT is turned on
   Amount of maximum screened exact exchange              ....  0.804272
   Range separation parameter mu (erf(mu*r12)/r12)        ....  0.250000


General Settings:
 Integral files         IntName         .... Scan_38
 Hartree-Fock type      HFTyp           .... RHF
 Total Charge           Charge          ....    0
 Multiplicity           Mult            ....    1
 Number of Electrons    NEL             ....   14
 Basis Dimension        Dim             ....   30
 Nuclear Repulsion      ENuc            ....      8.7328280975 Eh

Convergence Acceleration:
 DIIS                   CNVDIIS         .... on
   Start iteration      DIISMaxIt       ....     0
   Startup error        DIISStart       ....  0.200000
   # of expansion vecs  DIISMaxEq       ....     5
   Bias factor          DIISBfac        ....   1.050
   Max. coefficient     DIISMaxC        ....  10.000
 Newton-Raphson         CNVNR           .... off
 SOSCF                  CNVSOSCF        .... off
 Level Shifting         CNVShift        .... off
 Zerner damping         CNVZerner       .... off
 Static damping         CNVDamp         .... off
 Fernandez-Rico         CNVRico         .... off

SCF Procedure:
 Maximum # iterations   MaxIter         ....   999
 SCF integral mode      SCFMode         .... Direct
   Integral package                     .... LIBINT
 Reset frequeny         DirectResetFreq ....    20
 Integral Threshold     Thresh          ....  1.000e-10 Eh
 Primitive CutOff       TCut            ....  1.000e-11 Eh

Convergence Tolerance:
 Convergence Check Mode ConvCheckMode   .... All-Criteria
 Convergence forced     ConvForced      .... 0
 Energy Change          TolE            ....  1.000e-06 Eh
 Max Density Change     TolMaxP         ....  1.000e-05
 RMS Density Change     TolRMSP         ....  1.000e-06
 DIIS Error             TolErr          ....  1.000e-06


Diagonalization of the overlap matrix:
Smallest eigenvalue                        ... 4.850e-02
Time for diagonalization                   ...    0.001 sec
Threshold for overlap eigenvalues          ... 1.000e-08
Number of eigenvalues below threshold      ... 0
Time for construction of square roots      ...    0.006 sec
Total time needed                          ...    0.006 sec

-------------------
DFT GRID GENERATION
-------------------

General Integration Accuracy     IntAcc      ...  4.340
Radial Grid Type                 RadialGrid  ... Gauss-Chebyshev
Angular Grid (max. acc.)         AngularGrid ... Lebedev-110
Angular grid pruning method      GridPruning ... 3 (G Style)
Weight generation scheme         WeightScheme... Becke
Basis function cutoff            BFCut       ...    1.0000e-10
Integration weight cutoff        WCut        ...    1.0000e-14
Grids for H and He will be reduced by one unit

# of grid points (after initial pruning)     ...   4152 (   0.0 sec)
# of grid points (after weights+screening)   ...   4119 (   0.0 sec)
nearest neighbour list constructed           ...    0.0 sec
Grid point re-assignment to atoms done       ...    0.0 sec
Grid point division into batches done        ...    0.0 sec
Reduced shell lists constructed in    0.0 sec

Total number of grid points                  ...     4119
Total number of batches                      ...       67
Average number of points per batch           ...       61
Average number of grid points per atom       ...     1373
Average number of shells per batch           ...     9.47 (67.65%)
Average number of basis functions per batch  ...    20.12 (67.06%)
Average number of large shells per batch     ...     7.69 (81.21%)
Average number of large basis fcns per batch ...    16.60 (82.53%)
Maximum spatial batch extension              ...  20.53, 25.60, 31.36 au
Average spatial batch extension              ...   5.06,  6.51,  6.65 au

Time for grid setup =    0.025 sec

------------------------------
INITIAL GUESS: MODEL POTENTIAL
------------------------------
Loading Hartree-Fock densities                     ... done
Calculating cut-offs                               ... done
Setting up the integral package                    ... done
Initializing the effective Hamiltonian             ... done
Starting the Coulomb interaction                   ... done (   0.0 sec)
Reading the grid                                   ... done
Mapping shells                                     ... done
Starting the XC term evaluation                    ... done (   0.0 sec)
  promolecular density results
     # of electrons  =     13.997246009
     EX              =    -11.613812587
     EC              =     -0.388715232
     EX+EC           =    -12.002527819
Transforming the Hamiltonian                       ... done (   0.0 sec)
Diagonalizing the Hamiltonian                      ... done (   0.0 sec)
Back transforming the eigenvectors                 ... done (   0.0 sec)
Now organizing SCF variables                       ... done
                      ------------------
                      INITIAL GUESS DONE (   0.1 sec)
                      ------------------
--------------
SCF ITERATIONS
--------------
ITER       Energy         Delta-E        Max-DP      RMS-DP      [F,P]   Gradient Norm
               ***  Starting incremental Fock matrix formation  ***
                             ****Resetting KDIIS****
                             ****Turning on KDIIS(Cayley)****
  0    -92.5134813526   0.000000000000 0.04423520  0.00331406  0.1520146   0.112071425
  1    -92.5426130906  -0.029131737966 0.03818538  0.00359260  0.1264360   0.094538152
  2    -92.5687778607  -0.026164770166 0.06064306  0.00593777  0.1012859   0.075750035
  3    -92.5996251114  -0.030847250673 0.08878620  0.00893500  0.0600284   0.045628029
  4    -92.6192169197  -0.019591808291 0.05170848  0.00396202  0.0267983   0.012017000
  5    -92.6157591804   0.003457739285 0.01297137  0.00128003  0.0127412   0.006220031
  6    -92.6150545418   0.000704638592 0.01972452  0.00132114  0.0067981   0.003942922
  7    -92.6147605436   0.000293998168 0.02895383  0.00210196  0.0077239   0.004448890
  8    -92.6149714095  -0.000210865855 0.09662460  0.00600857  0.0062940   0.002864899
  9    -92.6139390628   0.001032346708 0.00784317  0.00052432  0.0035269   0.002043852
 10    -92.6140356709  -0.000096608156 0.06980770  0.00426989  0.0037623   0.002089253
 11    -92.6135954398   0.000440231180 0.04497627  0.00279424  0.0016683   0.001384177
 12    -92.6135118856   0.000083554118 0.00235221  0.00017607  0.0014592   0.001038849
 13    -92.6135366912  -0.000024805560 0.01322354  0.00085363  0.0019565   0.000887136
 14    -92.6135082169   0.000028474353 0.00328241  0.00023655  0.0005960   0.000366268
 15    -92.6135137094  -0.000005492530 0.00150209  0.00011211  0.0005899   0.000252013
 16    -92.6135197462  -0.000006036780 0.00111634  0.00008288  0.0005838   0.000243498
 17    -92.6135242442  -0.000004498014 0.00088241  0.00006110  0.0005787   0.000247914
 18    -92.6135254675  -0.000001223322 0.00297366  0.00023873  0.0005776   0.000239812
 19    -92.6135371602  -0.000011692719 0.00004630  0.00000363  0.0005653   0.000239337
               *** Restarting incremental Fock matrix formation ***
                             ****Resetting KDIIS****
                          ***Energy convergence achieved***
 20    -92.6135372878  -0.000000127630 0.00012769  0.00001088  0.0005652   0.000239325

            ***Energy convergence in two consecutive cycles with***
                    ***'reasonable' density convergence***
                       *** signaling convergence ***

                    *** KDIIS BlockDiag ( 0.000 sec) ***

               *****************************************************
               *                     SUCCESS                       *
               *           SCF CONVERGED AFTER  21 CYCLES          *
               *****************************************************

Setting up the final grid:

General Integration Accuracy     IntAcc      ...  4.670
Radial Grid Type                 RadialGrid  ... Gauss-Chebyshev
Angular Grid (max. acc.)         AngularGrid ... Lebedev-302
Angular grid pruning method      GridPruning ... 3 (G Style)
Weight generation scheme         WeightScheme... Becke
Basis function cutoff            BFCut       ...    1.0000e-10
Integration weight cutoff        WCut        ...    1.0000e-14
Grids for H and He will be reduced by one unit

# of grid points (after initial pruning)     ...  15818 (   0.0 sec)
# of grid points (after weights+screening)   ...  15753 (   0.0 sec)
nearest neighbour list constructed           ...    0.0 sec
Grid point re-assignment to atoms done       ...    0.0 sec
Grid point division into batches done        ...    0.1 sec
Reduced shell lists constructed in    0.1 sec

Total number of grid points                  ...    15753
Total number of batches                      ...      247
Average number of points per batch           ...       63
Average number of grid points per atom       ...     5251
Average number of shells per batch           ...     8.30 (59.30%)
Average number of basis functions per batch  ...    17.54 (58.45%)
Average number of large shells per batch     ...     6.77 (81.50%)
Average number of large basis fcns per batch ...    14.56 (83.01%)
Maximum spatial batch extension              ...  19.22, 21.49, 24.37 au
Average spatial batch extension              ...   3.58,  4.32,  4.27 au

Final grid set up in    0.1 sec
Final integration                            ... done (   0.1 sec)
Change in XC energy                          ...     0.000347066
Integrated number of electrons               ...    14.000020498
Previous integrated no of electrons          ...    13.999372946

----------------
TOTAL SCF ENERGY
----------------

Total Energy       :          -92.61319074 Eh           -2520.13304 eV

Components:
Nuclear Repulsion  :            8.73282810 Eh             237.63233 eV
Electronic Energy  :         -101.34601884 Eh           -2757.76537 eV
One Electron Energy:         -142.49342406 Eh           -3877.44319 eV
Two Electron Energy:           41.14740522 Eh            1119.67782 eV

Virial components:
Potential Energy   :         -184.80838521 Eh           -5028.89183 eV
Kinetic Energy     :           92.19519447 Eh            2508.75878 eV
Virial Ratio       :            2.00453382


DFT components:
N(Alpha)           :        7.000010248891 electrons
N(Beta)            :        7.000010248891 electrons
N(Total)           :       14.000020497782 electrons
E(XC)              :       -8.498995593452 Eh       

---------------
SCF CONVERGENCE
---------------

  Last Energy change         ...   -5.1873e-07  Tolerance :   1.0000e-06
  Last MAX-Density change    ...    8.0811e-05  Tolerance :   1.0000e-05
  Last RMS-Density change    ...    6.7253e-06  Tolerance :   1.0000e-06
  Last DIIS Error            ...    5.6459e-04  Tolerance :   1.0000e-06

             **** THE GBW FILE WAS UPDATED (Scan_38.gbw) ****
             **** DENSITY FILE WAS UPDATED (Scan_38.scfp.tmp) ****
             **** ENERGY FILE WAS UPDATED (Scan_38.en.tmp) ****
----------------
ORBITAL ENERGIES
----------------

  NO   OCC          E(Eh)            E(eV) 
   0   2.0000     -14.160607      -385.3297 
   1   2.0000     -10.784701      -293.4666 
   2   2.0000      -1.042356       -28.3640 
   3   2.0000      -0.683464       -18.5980 
   4   2.0000      -0.484115       -13.1734 
   5   2.0000      -0.032729        -0.8906 
   6   2.0000      -0.031764        -0.8643 
   7   0.0000      -0.309978        -8.4349 
   8   0.0000      -0.309837        -8.4311 
   9   0.0000       0.012184         0.3316 
  10   0.0000       0.230063         6.2603 
  11   0.0000       0.425654        11.5826 
  12   0.0000       0.425932        11.5902 
  13   0.0000       0.472934        12.8692 
  14   0.0000       0.519415        14.1340 
  15   0.0000       0.729776        19.8582 
  16   0.0000       1.066078        29.0094 
  17   0.0000       1.070025        29.1169 
  18   0.0000       1.070769        29.1371 
  19   0.0000       1.151701        31.3394 
  20   0.0000       1.446123        39.3510 
  21   0.0000       1.446220        39.3537 
  22   0.0000       1.463116        39.8134 
  23   0.0000       1.463797        39.8320 
  24   0.0000       1.910462        51.9863 
  25   0.0000       2.132004        58.0148 
  26   0.0000       2.133771        58.0629 
  27   0.0000       2.135023        58.0969 
  28   0.0000       2.171411        59.0871 
  29   0.0000       2.171867        59.0995 

                    ********************************
                    * MULLIKEN POPULATION ANALYSIS *
                    ********************************

-----------------------
MULLIKEN ATOMIC CHARGES
-----------------------
   0 C :    0.684640
   1 N :   -0.983566
   2 H :    0.298927
Sum of atomic charges:   -0.0000000

--------------------------------
MULLIKEN REDUCED ORBITAL CHARGES
--------------------------------
  0 C s       :     3.974143  s :     3.974143
      pz      :     0.000033  p :     1.322989
      px      :     1.321727
      py      :     0.001229
      dz2     :     0.004556  d :     0.018229
      dxz     :     0.000000
      dyz     :     0.000000
      dx2y2   :     0.013625
      dxy     :     0.000049
  1 N s       :     3.999713  s :     3.999713
      pz      :     1.999951  p :     3.983609
      px      :     1.920458
      py      :     0.063201
      dz2     :     0.000066  d :     0.000244
      dxz     :     0.000016
      dyz     :     0.000000
      dx2y2   :     0.000140
      dxy     :     0.000021
  2 H s       :     0.701073  s :     0.701073


                     *******************************
                     * LOEWDIN POPULATION ANALYSIS *
                     *******************************

----------------------
LOEWDIN ATOMIC CHARGES
----------------------
   0 C :    0.779669
   1 N :   -0.983318
   2 H :    0.203650

-------------------------------
LOEWDIN REDUCED ORBITAL CHARGES
-------------------------------
  0 C s       :     3.792897  s :     3.792897
      pz      :     0.000031  p :     1.404595
      px      :     1.403262
      py      :     0.001303
      dz2     :     0.005708  d :     0.022839
      dxz     :     0.000000
      dyz     :     0.000000
      dx2y2   :     0.017070
      dxy     :     0.000060
  1 N s       :     3.999735  s :     3.999735
      pz      :     1.999953  p :     3.983339
      px      :     1.920187
      py      :     0.063199
      dz2     :     0.000066  d :     0.000244
      dxz     :     0.000016
      dyz     :     0.000000
      dx2y2   :     0.000140
      dxy     :     0.000021
  2 H s       :     0.796350  s :     0.796350


                      *****************************
                      * MAYER POPULATION ANALYSIS *
                      *****************************

  NA   - Mulliken gross atomic population
  ZA   - Total nuclear charge
  QA   - Mulliken gross atomic charge
  VA   - Mayer's total valence
  BVA  - Mayer's bonded valence
  FA   - Mayer's free valence

  ATOM       NA         ZA         QA         VA         BVA        FA
  0 C      5.3154     6.0000     0.6846     0.8338     0.8338    -0.0000
  1 N      7.9836     7.0000    -0.9836     0.0326     0.0326    -0.0000
  2 H      0.7011     1.0000     0.2989     0.8435     0.8435    -0.0000

  Mayer bond orders larger than 0.1
B(  0-C ,  2-H ) :   0.8223 

-------
TIMINGS
-------

Total SCF time: 0 days 0 hours 0 min 7 sec 

Total time                  ....       7.046 sec
Sum of individual times     ....       6.736 sec  ( 95.6%)

Fock matrix formation       ....       6.456 sec  ( 91.6%)
  XC integration            ....       1.201 sec  ( 18.6% of F)
    Basis function eval.    ....       0.256 sec  ( 21.3% of XC)
    Density eval.           ....       0.051 sec  (  4.2% of XC)
    XC-Functional eval.     ....       0.335 sec  ( 27.9% of XC)
    XC-Potential eval.      ....       0.027 sec  (  2.3% of XC)
Diagonalization             ....       0.008 sec  (  0.1%)
Density matrix formation    ....       0.000 sec  (  0.0%)
Population analysis         ....       0.012 sec  (  0.2%)
Initial guess               ....       0.111 sec  (  1.6%)
Orbital Transformation      ....       0.000 sec  (  0.0%)
Orbital Orthonormalization  ....       0.000 sec  (  0.0%)
DIIS solution               ....       0.000 sec  (  0.0%)
Grid generation             ....       0.149 sec  (  2.1%)


-------------------------------------------------------------------------------
                          DFT DISPERSION CORRECTION                            
                                                                               
                              DFTD3 V3.1  Rev 1                                
                              USING zero damping                               
-------------------------------------------------------------------------------
The omegaB97X-D3 functional is recognized. Fit by Chai et al.
Active option DFTDOPT                   ...         3   

molecular C6(AA) [au] = 177.241418 


            DFT-D V3
 parameters
 s6 scaling factor         :     1.0000 
 rs6 scaling factor        :     1.2810 
 s8 scaling factor         :     1.0000 
 rs8 scaling factor        :     1.0940 
 Damping factor alpha6     :    14.0000 
 Damping factor alpha8     :    16.0000 
 ad hoc parameters k1-k3   :    16.0000     1.3333    -4.0000 

 Edisp/kcal,au: -0.088778279576  -0.000141477179 
 E6   /kcal   :  -0.060402787 
 E8   /kcal   :  -0.028375493 
 % E8         :  31.962201394 

-------------------------   ----------------
Dispersion correction           -0.000141477
-------------------------   ----------------


-------------------------   --------------------
FINAL SINGLE POINT ENERGY       -92.613332217621
-------------------------   --------------------


                            ***************************************
                            *     ORCA property calculations      *
                            ***************************************

                                    ---------------------
                                    Active property flags
                                    ---------------------
   (+) Dipole Moment


------------------------------------------------------------------------------
                       ORCA ELECTRIC PROPERTIES CALCULATION
------------------------------------------------------------------------------

Dipole Moment Calculation                       ... on
Quadrupole Moment Calculation                   ... off
Polarizability Calculation                      ... off
GBWName                                         ... Scan_38.gbw
Electron density file                           ... Scan_38.scfp.tmp

-------------
DIPOLE MOMENT
-------------
                                X             Y             Z
Electronic contribution:     -5.59610      -0.17081       0.00000
Nuclear contribution   :     -3.07343      -0.09075       0.00000
                        -----------------------------------------
Total Dipole Moment    :     -8.66953      -0.26156       0.00000
                        -----------------------------------------
Magnitude (a.u.)       :      8.67347
Magnitude (Debye)      :     22.04621


Timings for individual modules:

Sum of individual times         ...        7.378 sec (=   0.123 min)
GTO integral calculation        ...        0.310 sec (=   0.005 min)   4.2 %
SCF iterations                  ...        7.068 sec (=   0.118 min)  95.8 %
                             ****ORCA TERMINATED NORMALLY****
TOTAL RUN TIME: 0 days 0 hours 0 minutes 7 seconds 716 msec
