
                                 *****************
                                 * O   R   C   A *
                                 *****************

           --- An Ab Initio, DFT and Semiempirical electronic structure package ---

                  #######################################################
                  #                        -***-                        #
                  #  Department of molecular theory and spectroscopy    #
                  #              Directorship: Frank Neese              #
                  # Max Planck Institute for Chemical Energy Conversion #
                  #                  D-45470 Muelheim/Ruhr              #
                  #                       Germany                       #
                  #                                                     #
                  #                  All rights reserved                #
                  #                        -***-                        #
                  #######################################################


                         Program Version 4.0.0.2 - RELEASE -


 With contributions from (in alphabetic order):
   Daniel Aravena         : Magnetic Properties
   Michael Atanasov       : Ab Initio Ligand Field Theory
   Ute Becker             : Parallelization
   Martin Brehm           : Molecular dynamics
   Dmytro Bykov           : SCF Hessian
   Vijay G. Chilkuri      : MRCI spin determinant printing
   Dipayan Datta          : RHF DLPNO-CCSD density
   Achintya Kumar Dutta   : EOM-CC, STEOM-CC
   Dmitry Ganyushin       : Spin-Orbit,Spin-Spin,Magnetic field MRCI
   Yang Guo               : DLPNO-NEVPT2, CIM, IAO-localization
   Andreas Hansen         : Spin unrestricted coupled pair/coupled cluster methods
   Lee Huntington         : MR-EOM, pCC
   Robert Izsak           : Overlap fitted RIJCOSX, COSX-SCS-MP3, EOM
   Christian Kollmar      : KDIIS, OOCD, Brueckner-CCSD(T), CCSD density
   Simone Kossmann        : Meta GGA functionals, TD-DFT gradient, OOMP2, MP2 Hessian
   Martin Krupicka        : AUTO-CI
   Dagmar Lenk            : GEPOL surface
   Dimitrios Liakos       : Extrapolation schemes; parallel MDCI
   Dimitrios Manganas     : ROCIS; embedding schemes
   Dimitrios Pantazis     : SARC Basis sets
   Taras Petrenko         : DFT Hessian,TD-DFT gradient, ASA, ECA, R-Raman, ABS, FL, XAS/XES, NRVS
   Peter Pinski           : DLPNO-MP2
   Christoph Reimann      : Effective Core Potentials
   Marius Retegan         : Local ZFS, SOC
   Christoph Riplinger    : Optimizer, TS searches, QM/MM, DLPNO-CCSD(T), (RO)-DLPNO pert. Triples
   Tobias Risthaus        : Range-separated hybrids, TD-DFT gradient, RPA, STAB
   Michael Roemelt        : Restricted open shell CIS
   Masaaki Saitow         : Open-shell DLPNO
   Barbara Sandhoefer     : DKH picture change effects
   Kantharuban Sivalingam : CASSCF convergence, NEVPT2, FIC-MRCI
   Georgi Stoychev        : AutoAux
   Boris Wezisla          : Elementary symmetry handling
   Frank Wennmohs         : Technical directorship


 We gratefully acknowledge several colleagues who have allowed us to
 interface, adapt or use parts of their codes:
   Stefan Grimme, W. Hujo, H. Kruse,             : VdW corrections, initial TS optimization,
                  C. Bannwarth                     DFT functionals, gCP, sTDA/sTD-DF
   Ed Valeev                                     : LibInt (2-el integral package), F12 methods
   Garnet Chan, S. Sharma, J. Yang, R. Olivares  : DMRG
   Ulf Ekstrom                                   : XCFun DFT Library
   Mihaly Kallay                                 : mrcc  (arbitrary order and MRCC methods)
   Jiri Pittner, Ondrej Demel                    : Mk-CCSD
   Frank Weinhold                                : gennbo (NPA and NBO analysis)
   Christopher J. Cramer and Donald G. Truhlar   : smd solvation model


 Your calculation uses the libint2 library for the computation of 2-el integrals
 For citations please refer to: http://libint.valeyev.net

 This ORCA versions uses:
   CBLAS   interface :  Fast vector & matrix operations
   LAPACKE interface :  Fast linear algebra routines
   SCALAPACK package :  Parallel linear algebra routines


Your calculation utilizes the atom-pairwise dispersion correction
with the zero-damping scheme (D30)
Cite in your paper:
S.Grimme, J.Antony, S.Ehrlich and H.Krieg, J.Chem.Phys., 132, (2010), 154104 
   

XCFun DFT library Copyright 2009-2010 Ulf Ekstrom and contributors.
See http://admol.org/xcfun for more information. This is free soft-
ware; see the source code for copying conditions. There is ABSOLUTELY
NO WARRANTY; not even for MERCHANTABILITY or FITNESS FOR A PARTICULAR
PURPOSE. For details see the documentation. Scientific users of this 
library should cite U. Ekstrom, L. Visscher, R. Bast, A. J. Thorvald-
sen and K. Ruud; J.Chem.Theor.Comp. 2010, DOI: 10.1021/ct100117s
XCFun Version 0.99 
Your calculation utilizes the basis: 6-31G(d)
   H-He, Li-Ne : W. J. Hehre, R. Ditchfield and J.A. Pople, J. Chem. Phys. 56, 2257 (1972).
                 Note: He and Ne are unpublished basis sets taken from the Gaussian program.
                 Note: Li and B from J. D. Dill and J. A. Pople, J. Chem. Phys. 62, 2921 (1975).
   Na - Ar     : M. M. Francl, W. J. Pietro, W. J. Hehre, J. S. Binkley, M. S. Gordon, 
                 D. J. DeFrees and J. A. Pople, J. Chem. Phys. 77, 3654 (1982).
   K - Zn      : V. A. Rassolov, J. A. Pople, M. A. Ratner, and T. L. Windus, J. Chem. Phys. 109, 1223 (1998).

================================================================================
                                        WARNINGS
                       Please study these warnings very carefully!
================================================================================

Warning: TCutStore was < 0. Adjusted to Thresh (uncritical)

INFO   : the flag for use of LIBINT has been found!

================================================================================
                                       INPUT FILE
================================================================================
NAME = initial39.inp
|  1> ! WB97X-D3 6-31G(d) VerySlowConv
|  2> ! KDIIS NOSOSCF
|  3> %base "Scan_39"
|  4> 
|  5> %scf
|  6> maxiter 999
|  7> end
|  8> 
|  9> * xyz 0 1
| 10> C         -4.571362053809    0.368552600952   -0.000000000000
| 11> N         -0.186790167375    0.498137703714    0.000000000000
| 12> H         -5.681627778817    0.335839695334    0.000000000000
| 13> **                         ****END OF INPUT****
================================================================================

                       ****************************
                       * Single Point Calculation *
                       ****************************

---------------------------------
CARTESIAN COORDINATES (ANGSTROEM)
---------------------------------
  C     -4.571362    0.368553   -0.000000
  N     -0.186790    0.498138    0.000000
  H     -5.681628    0.335840    0.000000

----------------------------
CARTESIAN COORDINATES (A.U.)
----------------------------
  NO LB      ZA    FRAG     MASS         X           Y           Z
   0 C     6.0000    0    12.011   -8.638622    0.696463   -0.000000
   1 N     7.0000    0    14.007   -0.352982    0.941344    0.000000
   2 H     1.0000    0     1.008  -10.736720    0.634645    0.000000

--------------------------------
INTERNAL COORDINATES (ANGSTROEM)
--------------------------------
 C      0   0   0     0.000000000000     0.00000000     0.00000000
 N      1   0   0     4.386486398721     0.00000000     0.00000000
 H      1   2   0     1.110747547520   179.99480450     0.00000000

---------------------------
INTERNAL COORDINATES (A.U.)
---------------------------
 C      0   0   0     0.000000000000     0.00000000     0.00000000
 N      1   0   0     8.289257983753     0.00000000     0.00000000
 H      1   2   0     2.099008668737   179.99480450     0.00000000

---------------------
BASIS SET INFORMATION
---------------------
There are 3 groups of distinct atoms

 Group   1 Type C   : 10s4p1d contracted to 3s2p1d pattern {631/31/1}
 Group   2 Type N   : 10s4p1d contracted to 3s2p1d pattern {631/31/1}
 Group   3 Type H   : 4s contracted to 2s pattern {31}

Atom   0C    basis set group =>   1
Atom   1N    basis set group =>   2
Atom   2H    basis set group =>   3
------------------------------------------------------------------------------
                           ORCA GTO INTEGRAL CALCULATION
------------------------------------------------------------------------------

                         BASIS SET STATISTICS AND STARTUP INFO

 # of primitive gaussian shells          ...   34
 # of primitive gaussian functions       ...   58
 # of contracted shells                  ...   14
 # of contracted basis functions         ...   30
 Highest angular momentum                ...    2
 Maximum contraction depth               ...    6
 Integral package used                   ... LIBINT
 Integral threshhold            Thresh   ...  1.000e-10
 Primitive cut-off              TCut     ...  1.000e-11


------------------------------ INTEGRAL EVALUATION ----------------------------


 * One electron integrals 
 Pre-screening matrix                    ... done
 Shell pair data                         ... done (   0.000 sec)

-------------------------------------------------------------------------------
                                 ORCA SCF
-------------------------------------------------------------------------------

------------
SCF SETTINGS
------------
Hamiltonian:
 Density Functional     Method          .... DFT(GTOs)
 Exchange Functional    Exchange        .... WB97X-D3
 Correlation Functional Correlation     .... WB97X-D3
 Gradients option       PostSCFGGA      .... off
 Hybrid DFT is turned on
   Fraction HF Exchange ScalHFX         ....  0.195728
   Scaling of DF-GGA-X  ScalDFX         ....  0.000000
   Scaling of DF-GGA-C  ScalDFC         ....  1.000000
   Scaling of DF-LDA-C  ScalLDAC        ....  1.000000
   Perturbative correction              ....  0.000000
 Long-range corrected/Screened/Range-Separated Hybrid DFT is turned on
   Amount of maximum screened exact exchange              ....  0.804272
   Range separation parameter mu (erf(mu*r12)/r12)        ....  0.250000


General Settings:
 Integral files         IntName         .... Scan_39
 Hartree-Fock type      HFTyp           .... RHF
 Total Charge           Charge          ....    0
 Multiplicity           Mult            ....    1
 Number of Electrons    NEL             ....   14
 Basis Dimension        Dim             ....   30
 Nuclear Repulsion      ENuc            ....      8.5991279050 Eh

Convergence Acceleration:
 DIIS                   CNVDIIS         .... on
   Start iteration      DIISMaxIt       ....     0
   Startup error        DIISStart       ....  0.200000
   # of expansion vecs  DIISMaxEq       ....     5
   Bias factor          DIISBfac        ....   1.050
   Max. coefficient     DIISMaxC        ....  10.000
 Newton-Raphson         CNVNR           .... off
 SOSCF                  CNVSOSCF        .... off
 Level Shifting         CNVShift        .... off
 Zerner damping         CNVZerner       .... off
 Static damping         CNVDamp         .... off
 Fernandez-Rico         CNVRico         .... off

SCF Procedure:
 Maximum # iterations   MaxIter         ....   999
 SCF integral mode      SCFMode         .... Direct
   Integral package                     .... LIBINT
 Reset frequeny         DirectResetFreq ....    20
 Integral Threshold     Thresh          ....  1.000e-10 Eh
 Primitive CutOff       TCut            ....  1.000e-11 Eh

Convergence Tolerance:
 Convergence Check Mode ConvCheckMode   .... All-Criteria
 Convergence forced     ConvForced      .... 0
 Energy Change          TolE            ....  1.000e-06 Eh
 Max Density Change     TolMaxP         ....  1.000e-05
 RMS Density Change     TolRMSP         ....  1.000e-06
 DIIS Error             TolErr          ....  1.000e-06


Diagonalization of the overlap matrix:
Smallest eigenvalue                        ... 4.851e-02
Time for diagonalization                   ...    0.001 sec
Threshold for overlap eigenvalues          ... 1.000e-08
Number of eigenvalues below threshold      ... 0
Time for construction of square roots      ...    0.005 sec
Total time needed                          ...    0.006 sec

-------------------
DFT GRID GENERATION
-------------------

General Integration Accuracy     IntAcc      ...  4.340
Radial Grid Type                 RadialGrid  ... Gauss-Chebyshev
Angular Grid (max. acc.)         AngularGrid ... Lebedev-110
Angular grid pruning method      GridPruning ... 3 (G Style)
Weight generation scheme         WeightScheme... Becke
Basis function cutoff            BFCut       ...    1.0000e-10
Integration weight cutoff        WCut        ...    1.0000e-14
Grids for H and He will be reduced by one unit

# of grid points (after initial pruning)     ...   4152 (   0.0 sec)
# of grid points (after weights+screening)   ...   4119 (   0.0 sec)
nearest neighbour list constructed           ...    0.0 sec
Grid point re-assignment to atoms done       ...    0.0 sec
Grid point division into batches done        ...    0.0 sec
Reduced shell lists constructed in    0.0 sec

Total number of grid points                  ...     4119
Total number of batches                      ...       67
Average number of points per batch           ...       61
Average number of grid points per atom       ...     1373
Average number of shells per batch           ...     9.29 (66.39%)
Average number of basis functions per batch  ...    19.65 (65.49%)
Average number of large shells per batch     ...     7.49 (80.54%)
Average number of large basis fcns per batch ...    16.04 (81.66%)
Maximum spatial batch extension              ...  20.65, 25.60, 31.36 au
Average spatial batch extension              ...   5.08,  6.44,  6.74 au

Time for grid setup =    0.024 sec

------------------------------
INITIAL GUESS: MODEL POTENTIAL
------------------------------
Loading Hartree-Fock densities                     ... done
Calculating cut-offs                               ... done
Setting up the integral package                    ... done
Initializing the effective Hamiltonian             ... done
Starting the Coulomb interaction                   ... done (   0.0 sec)
Reading the grid                                   ... done
Mapping shells                                     ... done
Starting the XC term evaluation                    ... done (   0.0 sec)
  promolecular density results
     # of electrons  =     13.997300479
     EX              =    -11.613825282
     EC              =     -0.388710901
     EX+EC           =    -12.002536182
Transforming the Hamiltonian                       ... done (   0.0 sec)
Diagonalizing the Hamiltonian                      ... done (   0.0 sec)
Back transforming the eigenvectors                 ... done (   0.0 sec)
Now organizing SCF variables                       ... done
                      ------------------
                      INITIAL GUESS DONE (   0.1 sec)
                      ------------------
--------------
SCF ITERATIONS
--------------
ITER       Energy         Delta-E        Max-DP      RMS-DP      [F,P]   Gradient Norm
               ***  Starting incremental Fock matrix formation  ***
                             ****Resetting KDIIS****
                             ****Turning on KDIIS(Cayley)****
  0    -92.5109738740   0.000000000000 0.04246466  0.00323847  0.1521589   0.112040789
  1    -92.5396300247  -0.028656150703 0.03818554  0.00353678  0.1268843   0.094750009
  2    -92.5658052835  -0.026175258772 0.06071682  0.00593331  0.1017051   0.075879406
  3    -92.5966808388  -0.030875555377 0.09238548  0.00926802  0.0603411   0.045667854
  4    -92.6119603088  -0.015279470009 0.05057641  0.00389356  0.0139709   0.008401325
  5    -92.6133997770  -0.001439468136 0.03020666  0.00206753  0.0094420   0.005329347
  6    -92.6126312285   0.000768548507 0.14727843  0.01056904  0.0120059   0.006218064
  7    -92.6134851141  -0.000853885654 0.05608368  0.00468707  0.0179936   0.009525332
  8    -92.6153405279  -0.001855413753 0.34959542  0.02194448  0.0104243   0.004298858
  9    -92.6111583109   0.004182217022 0.10443885  0.00643195  0.0062573   0.004238344
 10    -92.6121876549  -0.001029344070 0.07245245  0.00454127  0.0114619   0.004850614
 11    -92.6110896249   0.001098029987 0.02493234  0.00166418  0.0054849   0.003860571
 12    -92.6111054126  -0.000015787707 0.00432596  0.00044094  0.0022642   0.001020637
 13    -92.6112028267  -0.000097414014 0.02051694  0.00136973  0.0047793   0.002063623
 14    -92.6110644622   0.000138364432 0.00400961  0.00029525  0.0005982   0.000410798
 15    -92.6110691358  -0.000004673551 0.00194111  0.00018231  0.0005974   0.000282744
 16    -92.6110780698  -0.000008934002 0.00219558  0.00017465  0.0005936   0.000297819
 17    -92.6110682123   0.000009857443 0.00102397  0.00009382  0.0005981   0.000262517
 18    -92.6110727350  -0.000004522714 0.00429426  0.00039458  0.0005954   0.000262574
 19    -92.6110539755   0.000018759543 0.00025912  0.00001985  0.0006074   0.000259286
               *** Restarting incremental Fock matrix formation ***
                             ****Resetting KDIIS****
 20    -92.6110550613  -0.000001085763 0.00013195  0.00001192  0.0006067   0.000259262
                          ***Energy convergence achieved***
 21    -92.6110556760  -0.000000614744 0.00007700  0.00000728  0.0006064   0.000261323
 22    -92.6110559420  -0.000000266012 0.00035096  0.00003045  0.0006062   0.000257607
 23    -92.6110573836  -0.000001441536 0.00055280  0.00004787  0.0006051   0.000253329
 24    -92.6110554823   0.000001901251 0.00100826  0.00007868  0.0006062   0.000250941
 25    -92.6110580528  -0.000002570485 0.00608081  0.00044976  0.0006041   0.000248011
 26    -92.6110827286  -0.000024675777 0.00309484  0.00023655  0.0005847   0.000255230
 27    -92.6110700571   0.000012671468 0.00115450  0.00010863  0.0005943   0.000252963
 28    -92.6110654084   0.000004648742 0.00070475  0.00005650  0.0005977   0.000248304
 29    -92.6110682876  -0.000002879276 0.00128033  0.00009541  0.0005953   0.000248526
 30    -92.6110631303   0.000005157307 0.00784562  0.00061336  0.0005996   0.000249788
 31    -92.6110942989  -0.000031168587 0.00200484  0.00014658  0.0005719   0.000258979
 32    -92.6111021676  -0.000007868728 0.00195237  0.00012369  0.0005652   0.000267513
                          ***Energy convergence achieved***
 33    -92.6111025402  -0.000000372558 0.00111108  0.00007211  0.0005629   0.000237977
 34    -92.6111036022  -0.000001061982 0.00326457  0.00024364  0.0005617   0.000241960
 35    -92.6111154619  -0.000011859711 0.01784136  0.00128018  0.0005497   0.000236518
 36    -92.6111767414  -0.000061279479 0.00313911  0.00022349  0.0004775   0.000231157
 37    -92.6111668738   0.000009867569 0.01980325  0.00139240  0.0004917   0.000239453
 38    -92.6112251488  -0.000058274984 0.00024401  0.00001910  0.0003993   0.000226626
                          ***Energy convergence achieved***
 39    -92.6112258121  -0.000000663329 0.00800816  0.00061842  0.0003984   0.000230036
               *** Restarting incremental Fock matrix formation ***
                             ****Resetting KDIIS****
 40    -92.6112479333  -0.000022121197 0.00025332  0.00001688  0.0003585   0.000224828
                          ***Energy convergence achieved***
 41    -92.6112483593  -0.000000425970 0.00008950  0.00000780  0.0003580   0.000223629
 42    -92.6112484006  -0.000000041281 0.00015996  0.00001470  0.0003572   0.000210006
 43    -92.6112486291  -0.000000228532 0.00755445  0.00048156  0.0003558   0.000201744
 44    -92.6112403799   0.000008249225 0.00267840  0.00018994  0.0003685   0.000180696
 45    -92.6112431791  -0.000002799264 0.00130625  0.00010969  0.0003651   0.000165555
 46    -92.6112462269  -0.000003047777 0.00152152  0.00010560  0.0003586   0.000151205
 47    -92.6112497397  -0.000003512766 0.00017598  0.00001238  0.0003507   0.000148088
                          ***Energy convergence achieved***
 48    -92.6112501633  -0.000000423573 0.00691104  0.00049677  0.0003497   0.000149805
 49    -92.6112649107  -0.000014747420 0.00327149  0.00022672  0.0003099   0.000142365
 50    -92.6112713493  -0.000006438652 0.00083782  0.00007280  0.0002924   0.000136782
 51    -92.6112730577  -0.000001708362 0.00159558  0.00010916  0.0002870   0.000139118
 52    -92.6112758392  -0.000002781510 0.00810820  0.00056148  0.0002778   0.000135862
 53    -92.6112898559  -0.000014016707 0.00142643  0.00009742  0.0002301   0.000140288
 54    -92.6112874937   0.000002362237 0.00372461  0.00025316  0.0002385   0.000127352
 55    -92.6112814648   0.000006028861 0.00973056  0.00065621  0.0002611   0.000130370
 56    -92.6112956744  -0.000014209634 0.00333894  0.00023738  0.0002036   0.000146063
 57    -92.6113004481  -0.000004773613 0.00392227  0.00026455  0.0002003   0.000133096
 58    -92.6113046179  -0.000004169858 0.00407856  0.00027250  0.0002135   0.000133533
 59    -92.6113085573  -0.000003939384 0.00035785  0.00002604  0.0002202   0.000135057
               *** Restarting incremental Fock matrix formation ***
                             ****Resetting KDIIS****
                          ***Energy convergence achieved***
 60    -92.6113081646   0.000000392739 0.00017825  0.00001130  0.0002211   0.000124517

            ***Energy convergence in two consecutive cycles with***
                    ***'reasonable' density convergence***
                       *** signaling convergence ***

                    *** KDIIS BlockDiag ( 0.000 sec) ***

               *****************************************************
               *                     SUCCESS                       *
               *           SCF CONVERGED AFTER  61 CYCLES          *
               *****************************************************

Setting up the final grid:

General Integration Accuracy     IntAcc      ...  4.670
Radial Grid Type                 RadialGrid  ... Gauss-Chebyshev
Angular Grid (max. acc.)         AngularGrid ... Lebedev-302
Angular grid pruning method      GridPruning ... 3 (G Style)
Weight generation scheme         WeightScheme... Becke
Basis function cutoff            BFCut       ...    1.0000e-10
Integration weight cutoff        WCut        ...    1.0000e-14
Grids for H and He will be reduced by one unit

# of grid points (after initial pruning)     ...  15818 (   0.0 sec)
# of grid points (after weights+screening)   ...  15753 (   0.0 sec)
nearest neighbour list constructed           ...    0.0 sec
Grid point re-assignment to atoms done       ...    0.0 sec
Grid point division into batches done        ...    0.1 sec
Reduced shell lists constructed in    0.1 sec

Total number of grid points                  ...    15753
Total number of batches                      ...      247
Average number of points per batch           ...       63
Average number of grid points per atom       ...     5251
Average number of shells per batch           ...     8.22 (58.70%)
Average number of basis functions per batch  ...    17.39 (57.96%)
Average number of large shells per batch     ...     6.72 (81.75%)
Average number of large basis fcns per batch ...    14.46 (83.16%)
Maximum spatial batch extension              ...  19.22, 24.37, 24.37 au
Average spatial batch extension              ...   3.56,  4.30,  4.26 au

Final grid set up in    0.1 sec
Final integration                            ... done (   0.1 sec)
Change in XC energy                          ...     0.000452600
Integrated number of electrons               ...    14.000027152
Previous integrated no of electrons          ...    13.999244012

----------------
TOTAL SCF ENERGY
----------------

Total Energy       :          -92.61085570 Eh           -2520.06950 eV

Components:
Nuclear Repulsion  :            8.59912790 Eh             233.99417 eV
Electronic Energy  :         -101.20998360 Eh           -2754.06367 eV
One Electron Energy:         -142.22901411 Eh           -3870.24823 eV
Two Electron Energy:           41.01903050 Eh            1116.18457 eV

Virial components:
Potential Energy   :         -184.80252494 Eh           -5028.73236 eV
Kinetic Energy     :           92.19166924 Eh            2508.66286 eV
Virial Ratio       :            2.00454690


DFT components:
N(Alpha)           :        7.000013575888 electrons
N(Beta)            :        7.000013575888 electrons
N(Total)           :       14.000027151777 electrons
E(XC)              :       -8.499514585935 Eh       

---------------
SCF CONVERGENCE
---------------

  Last Energy change         ...   -1.3389e-07  Tolerance :   1.0000e-06
  Last MAX-Density change    ...    6.3508e-05  Tolerance :   1.0000e-05
  Last RMS-Density change    ...    5.2561e-06  Tolerance :   1.0000e-06
  Last DIIS Error            ...    2.2548e-04  Tolerance :   1.0000e-06

             **** THE GBW FILE WAS UPDATED (Scan_39.gbw) ****
             **** DENSITY FILE WAS UPDATED (Scan_39.scfp.tmp) ****
             **** ENERGY FILE WAS UPDATED (Scan_39.en.tmp) ****
----------------
ORBITAL ENERGIES
----------------

  NO   OCC          E(Eh)            E(eV) 
   0   2.0000     -14.155755      -385.1977 
   1   2.0000     -10.789469      -293.5964 
   2   2.0000      -1.046401       -28.4740 
   3   2.0000      -0.687805       -18.7161 
   4   2.0000      -0.479786       -13.0556 
   5   2.0000      -0.028971        -0.7883 
   6   2.0000      -0.027602        -0.7511 
   7   0.0000      -0.313942        -8.5428 
   8   0.0000      -0.313811        -8.5392 
   9   0.0000       0.009484         0.2581 
  10   0.0000       0.234439         6.3794 
  11   0.0000       0.422029        11.4840 
  12   0.0000       0.422285        11.4910 
  13   0.0000       0.468458        12.7474 
  14   0.0000       0.515633        14.0311 
  15   0.0000       0.726424        19.7670 
  16   0.0000       1.070628        29.1333 
  17   0.0000       1.073099        29.2005 
  18   0.0000       1.073992        29.2248 
  19   0.0000       1.155427        31.4408 
  20   0.0000       1.441877        39.2355 
  21   0.0000       1.441966        39.2379 
  22   0.0000       1.459075        39.7035 
  23   0.0000       1.459760        39.7221 
  24   0.0000       1.906065        51.8667 
  25   0.0000       2.136259        58.1306 
  26   0.0000       2.138011        58.1782 
  27   0.0000       2.139216        58.2110 
  28   0.0000       2.175748        59.2051 
  29   0.0000       2.176215        59.2178 

                    ********************************
                    * MULLIKEN POPULATION ANALYSIS *
                    ********************************

-----------------------
MULLIKEN ATOMIC CHARGES
-----------------------
   0 C :    0.684498
   1 N :   -0.988820
   2 H :    0.304322
Sum of atomic charges:   -0.0000000

--------------------------------
MULLIKEN REDUCED ORBITAL CHARGES
--------------------------------
  0 C s       :     3.973416  s :     3.973416
      pz      :     0.000022  p :     1.323877
      px      :     1.322733
      py      :     0.001123
      dz2     :     0.004551  d :     0.018209
      dxz     :     0.000000
      dyz     :     0.000000
      dx2y2   :     0.013611
      dxy     :     0.000047
  1 N s       :     3.999760  s :     3.999760
      pz      :     1.999963  p :     3.988818
      px      :     1.983339
      py      :     0.005515
      dz2     :     0.000065  d :     0.000242
      dxz     :     0.000015
      dyz     :     0.000000
      dx2y2   :     0.000160
      dxy     :     0.000002
  2 H s       :     0.695678  s :     0.695678


                     *******************************
                     * LOEWDIN POPULATION ANALYSIS *
                     *******************************

----------------------
LOEWDIN ATOMIC CHARGES
----------------------
   0 C :    0.781678
   1 N :   -0.988683
   2 H :    0.207005

-------------------------------
LOEWDIN REDUCED ORBITAL CHARGES
-------------------------------
  0 C s       :     3.792157  s :     3.792157
      pz      :     0.000020  p :     1.403415
      px      :     1.402204
      py      :     0.001191
      dz2     :     0.005686  d :     0.022750
      dxz     :     0.000000
      dyz     :     0.000000
      dx2y2   :     0.017005
      dxy     :     0.000059
  1 N s       :     3.999775  s :     3.999775
      pz      :     1.999964  p :     3.988666
      px      :     1.983186
      py      :     0.005515
      dz2     :     0.000065  d :     0.000242
      dxz     :     0.000015
      dyz     :     0.000000
      dx2y2   :     0.000160
      dxy     :     0.000002
  2 H s       :     0.792995  s :     0.792995


                      *****************************
                      * MAYER POPULATION ANALYSIS *
                      *****************************

  NA   - Mulliken gross atomic population
  ZA   - Total nuclear charge
  QA   - Mulliken gross atomic charge
  VA   - Mayer's total valence
  BVA  - Mayer's bonded valence
  FA   - Mayer's free valence

  ATOM       NA         ZA         QA         VA         BVA        FA
  0 C      5.3155     6.0000     0.6845     0.8339     0.8339    -0.0000
  1 N      7.9888     7.0000    -0.9888     0.0223     0.0223    -0.0000
  2 H      0.6957     1.0000     0.3043     0.8394     0.8394    -0.0000

  Mayer bond orders larger than 0.1
B(  0-C ,  2-H ) :   0.8255 

-------
TIMINGS
-------

Total SCF time: 0 days 0 hours 0 min 17 sec 

Total time                  ....      17.596 sec
Sum of individual times     ....      16.994 sec  ( 96.6%)

Fock matrix formation       ....      16.700 sec  ( 94.9%)
  XC integration            ....       2.916 sec  ( 17.5% of F)
    Basis function eval.    ....       0.610 sec  ( 20.9% of XC)
    Density eval.           ....       0.126 sec  (  4.3% of XC)
    XC-Functional eval.     ....       0.801 sec  ( 27.5% of XC)
    XC-Potential eval.      ....       0.061 sec  (  2.1% of XC)
Diagonalization             ....       0.031 sec  (  0.2%)
Density matrix formation    ....       0.001 sec  (  0.0%)
Population analysis         ....       0.009 sec  (  0.1%)
Initial guess               ....       0.110 sec  (  0.6%)
Orbital Transformation      ....       0.000 sec  (  0.0%)
Orbital Orthonormalization  ....       0.000 sec  (  0.0%)
DIIS solution               ....       0.000 sec  (  0.0%)
Grid generation             ....       0.143 sec  (  0.8%)


-------------------------------------------------------------------------------
                          DFT DISPERSION CORRECTION                            
                                                                               
                              DFTD3 V3.1  Rev 1                                
                              USING zero damping                               
-------------------------------------------------------------------------------
The omegaB97X-D3 functional is recognized. Fit by Chai et al.
Active option DFTDOPT                   ...         3   

molecular C6(AA) [au] = 177.241580 


            DFT-D V3
 parameters
 s6 scaling factor         :     1.0000 
 rs6 scaling factor        :     1.2810 
 s8 scaling factor         :     1.0000 
 rs8 scaling factor        :     1.0940 
 Damping factor alpha6     :    14.0000 
 Damping factor alpha8     :    16.0000 
 ad hoc parameters k1-k3   :    16.0000     1.3333    -4.0000 

 Edisp/kcal,au: -0.079632951341  -0.000126903172 
 E6   /kcal   :  -0.055989612 
 E8   /kcal   :  -0.023643339 
 % E8         :  29.690397117 

-------------------------   ----------------
Dispersion correction           -0.000126903
-------------------------   ----------------


-------------------------   --------------------
FINAL SINGLE POINT ENERGY       -92.610982601832
-------------------------   --------------------


                            ***************************************
                            *     ORCA property calculations      *
                            ***************************************

                                    ---------------------
                                    Active property flags
                                    ---------------------
   (+) Dipole Moment


------------------------------------------------------------------------------
                       ORCA ELECTRIC PROPERTIES CALCULATION
------------------------------------------------------------------------------

Dipole Moment Calculation                       ... on
Quadrupole Moment Calculation                   ... off
Polarizability Calculation                      ... off
GBWName                                         ... Scan_39.gbw
Electron density file                           ... Scan_39.scfp.tmp

-------------
DIPOLE MOMENT
-------------
                                X             Y             Z
Electronic contribution:     -5.79652      -0.17180       0.00000
Nuclear contribution   :     -3.12286      -0.09220       0.00000
                        -----------------------------------------
Total Dipole Moment    :     -8.91938      -0.26401       0.00000
                        -----------------------------------------
Magnitude (a.u.)       :      8.92329
Magnitude (Debye)      :     22.68119


Timings for individual modules:

Sum of individual times         ...       17.925 sec (=   0.299 min)
GTO integral calculation        ...        0.305 sec (=   0.005 min)   1.7 %
SCF iterations                  ...       17.620 sec (=   0.294 min)  98.3 %
                             ****ORCA TERMINATED NORMALLY****
TOTAL RUN TIME: 0 days 0 hours 0 minutes 18 seconds 247 msec
