
                                 *****************
                                 * O   R   C   A *
                                 *****************

           --- An Ab Initio, DFT and Semiempirical electronic structure package ---

                  #######################################################
                  #                        -***-                        #
                  #  Department of molecular theory and spectroscopy    #
                  #              Directorship: Frank Neese              #
                  # Max Planck Institute for Chemical Energy Conversion #
                  #                  D-45470 Muelheim/Ruhr              #
                  #                       Germany                       #
                  #                                                     #
                  #                  All rights reserved                #
                  #                        -***-                        #
                  #######################################################


                         Program Version 4.0.0.2 - RELEASE -


 With contributions from (in alphabetic order):
   Daniel Aravena         : Magnetic Properties
   Michael Atanasov       : Ab Initio Ligand Field Theory
   Ute Becker             : Parallelization
   Martin Brehm           : Molecular dynamics
   Dmytro Bykov           : SCF Hessian
   Vijay G. Chilkuri      : MRCI spin determinant printing
   Dipayan Datta          : RHF DLPNO-CCSD density
   Achintya Kumar Dutta   : EOM-CC, STEOM-CC
   Dmitry Ganyushin       : Spin-Orbit,Spin-Spin,Magnetic field MRCI
   Yang Guo               : DLPNO-NEVPT2, CIM, IAO-localization
   Andreas Hansen         : Spin unrestricted coupled pair/coupled cluster methods
   Lee Huntington         : MR-EOM, pCC
   Robert Izsak           : Overlap fitted RIJCOSX, COSX-SCS-MP3, EOM
   Christian Kollmar      : KDIIS, OOCD, Brueckner-CCSD(T), CCSD density
   Simone Kossmann        : Meta GGA functionals, TD-DFT gradient, OOMP2, MP2 Hessian
   Martin Krupicka        : AUTO-CI
   Dagmar Lenk            : GEPOL surface
   Dimitrios Liakos       : Extrapolation schemes; parallel MDCI
   Dimitrios Manganas     : ROCIS; embedding schemes
   Dimitrios Pantazis     : SARC Basis sets
   Taras Petrenko         : DFT Hessian,TD-DFT gradient, ASA, ECA, R-Raman, ABS, FL, XAS/XES, NRVS
   Peter Pinski           : DLPNO-MP2
   Christoph Reimann      : Effective Core Potentials
   Marius Retegan         : Local ZFS, SOC
   Christoph Riplinger    : Optimizer, TS searches, QM/MM, DLPNO-CCSD(T), (RO)-DLPNO pert. Triples
   Tobias Risthaus        : Range-separated hybrids, TD-DFT gradient, RPA, STAB
   Michael Roemelt        : Restricted open shell CIS
   Masaaki Saitow         : Open-shell DLPNO
   Barbara Sandhoefer     : DKH picture change effects
   Kantharuban Sivalingam : CASSCF convergence, NEVPT2, FIC-MRCI
   Georgi Stoychev        : AutoAux
   Boris Wezisla          : Elementary symmetry handling
   Frank Wennmohs         : Technical directorship


 We gratefully acknowledge several colleagues who have allowed us to
 interface, adapt or use parts of their codes:
   Stefan Grimme, W. Hujo, H. Kruse,             : VdW corrections, initial TS optimization,
                  C. Bannwarth                     DFT functionals, gCP, sTDA/sTD-DF
   Ed Valeev                                     : LibInt (2-el integral package), F12 methods
   Garnet Chan, S. Sharma, J. Yang, R. Olivares  : DMRG
   Ulf Ekstrom                                   : XCFun DFT Library
   Mihaly Kallay                                 : mrcc  (arbitrary order and MRCC methods)
   Jiri Pittner, Ondrej Demel                    : Mk-CCSD
   Frank Weinhold                                : gennbo (NPA and NBO analysis)
   Christopher J. Cramer and Donald G. Truhlar   : smd solvation model


 Your calculation uses the libint2 library for the computation of 2-el integrals
 For citations please refer to: http://libint.valeyev.net

 This ORCA versions uses:
   CBLAS   interface :  Fast vector & matrix operations
   LAPACKE interface :  Fast linear algebra routines
   SCALAPACK package :  Parallel linear algebra routines


Your calculation utilizes the atom-pairwise dispersion correction
with the zero-damping scheme (D30)
Cite in your paper:
S.Grimme, J.Antony, S.Ehrlich and H.Krieg, J.Chem.Phys., 132, (2010), 154104 
   

XCFun DFT library Copyright 2009-2010 Ulf Ekstrom and contributors.
See http://admol.org/xcfun for more information. This is free soft-
ware; see the source code for copying conditions. There is ABSOLUTELY
NO WARRANTY; not even for MERCHANTABILITY or FITNESS FOR A PARTICULAR
PURPOSE. For details see the documentation. Scientific users of this 
library should cite U. Ekstrom, L. Visscher, R. Bast, A. J. Thorvald-
sen and K. Ruud; J.Chem.Theor.Comp. 2010, DOI: 10.1021/ct100117s
XCFun Version 0.99 
Your calculation utilizes the basis: 6-31G(d)
   H-He, Li-Ne : W. J. Hehre, R. Ditchfield and J.A. Pople, J. Chem. Phys. 56, 2257 (1972).
                 Note: He and Ne are unpublished basis sets taken from the Gaussian program.
                 Note: Li and B from J. D. Dill and J. A. Pople, J. Chem. Phys. 62, 2921 (1975).
   Na - Ar     : M. M. Francl, W. J. Pietro, W. J. Hehre, J. S. Binkley, M. S. Gordon, 
                 D. J. DeFrees and J. A. Pople, J. Chem. Phys. 77, 3654 (1982).
   K - Zn      : V. A. Rassolov, J. A. Pople, M. A. Ratner, and T. L. Windus, J. Chem. Phys. 109, 1223 (1998).

================================================================================
                                        WARNINGS
                       Please study these warnings very carefully!
================================================================================

Warning: TCutStore was < 0. Adjusted to Thresh (uncritical)

INFO   : the flag for use of LIBINT has been found!

================================================================================
                                       INPUT FILE
================================================================================
NAME = initial4.inp
|  1> ! WB97X-D3 6-31G(d) VerySlowConv
|  2> ! KDIIS NOSOSCF
|  3> %base "Scan_4"
|  4> 
|  5> %scf
|  6> maxiter 999
|  7> end
|  8> 
|  9> * xyz 0 1
| 10> C         -3.480499560095    0.400826256808   -0.000000000000
| 11> N         -2.415834723965    0.432286255329    0.000000000000
| 12> H         -4.543445715941    0.369417487864   -0.000000000000
| 13> **                         ****END OF INPUT****
================================================================================

                       ****************************
                       * Single Point Calculation *
                       ****************************

---------------------------------
CARTESIAN COORDINATES (ANGSTROEM)
---------------------------------
  C     -3.480500    0.400826   -0.000000
  N     -2.415835    0.432286    0.000000
  H     -4.543446    0.369417   -0.000000

----------------------------
CARTESIAN COORDINATES (A.U.)
----------------------------
  NO LB      ZA    FRAG     MASS         X           Y           Z
   0 C     6.0000    0    12.011   -6.577191    0.757452   -0.000000
   1 N     7.0000    0    14.007   -4.565266    0.816903    0.000000
   2 H     1.0000    0     1.008   -8.585868    0.698098   -0.000000

--------------------------------
INTERNAL COORDINATES (ANGSTROEM)
--------------------------------
 C      0   0   0     0.000000000000     0.00000000     0.00000000
 N      1   0   0     1.065129543670     0.00000000     0.00000000
 H      1   2   0     1.063410100100   179.99997617     0.00000000

---------------------------
INTERNAL COORDINATES (A.U.)
---------------------------
 C      0   0   0     0.000000000000     0.00000000     0.00000000
 N      1   0   0     2.012803134685     0.00000000     0.00000000
 H      1   2   0     2.009553857234   179.99997617     0.00000000

---------------------
BASIS SET INFORMATION
---------------------
There are 3 groups of distinct atoms

 Group   1 Type C   : 10s4p1d contracted to 3s2p1d pattern {631/31/1}
 Group   2 Type N   : 10s4p1d contracted to 3s2p1d pattern {631/31/1}
 Group   3 Type H   : 4s contracted to 2s pattern {31}

Atom   0C    basis set group =>   1
Atom   1N    basis set group =>   2
Atom   2H    basis set group =>   3
------------------------------------------------------------------------------
                           ORCA GTO INTEGRAL CALCULATION
------------------------------------------------------------------------------

                         BASIS SET STATISTICS AND STARTUP INFO

 # of primitive gaussian shells          ...   34
 # of primitive gaussian functions       ...   58
 # of contracted shells                  ...   14
 # of contracted basis functions         ...   30
 Highest angular momentum                ...    2
 Maximum contraction depth               ...    6
 Integral package used                   ... LIBINT
 Integral threshhold            Thresh   ...  1.000e-10
 Primitive cut-off              TCut     ...  1.000e-11


------------------------------ INTEGRAL EVALUATION ----------------------------


 * One electron integrals 
 Pre-screening matrix                    ... done
 Shell pair data                         ... done (   0.000 sec)

-------------------------------------------------------------------------------
                                 ORCA SCF
-------------------------------------------------------------------------------

------------
SCF SETTINGS
------------
Hamiltonian:
 Density Functional     Method          .... DFT(GTOs)
 Exchange Functional    Exchange        .... WB97X-D3
 Correlation Functional Correlation     .... WB97X-D3
 Gradients option       PostSCFGGA      .... off
 Hybrid DFT is turned on
   Fraction HF Exchange ScalHFX         ....  0.195728
   Scaling of DF-GGA-X  ScalDFX         ....  0.000000
   Scaling of DF-GGA-C  ScalDFC         ....  1.000000
   Scaling of DF-LDA-C  ScalLDAC        ....  1.000000
   Perturbative correction              ....  0.000000
 Long-range corrected/Screened/Range-Separated Hybrid DFT is turned on
   Amount of maximum screened exact exchange              ....  0.804272
   Range separation parameter mu (erf(mu*r12)/r12)        ....  0.250000


General Settings:
 Integral files         IntName         .... Scan_4
 Hartree-Fock type      HFTyp           .... RHF
 Total Charge           Charge          ....    0
 Multiplicity           Mult            ....    1
 Number of Electrons    NEL             ....   14
 Basis Dimension        Dim             ....   30
 Nuclear Repulsion      ENuc            ....     25.5924327206 Eh

Convergence Acceleration:
 DIIS                   CNVDIIS         .... on
   Start iteration      DIISMaxIt       ....     0
   Startup error        DIISStart       ....  0.200000
   # of expansion vecs  DIISMaxEq       ....     5
   Bias factor          DIISBfac        ....   1.050
   Max. coefficient     DIISMaxC        ....  10.000
 Newton-Raphson         CNVNR           .... off
 SOSCF                  CNVSOSCF        .... off
 Level Shifting         CNVShift        .... off
 Zerner damping         CNVZerner       .... off
 Static damping         CNVDamp         .... off
 Fernandez-Rico         CNVRico         .... off

SCF Procedure:
 Maximum # iterations   MaxIter         ....   999
 SCF integral mode      SCFMode         .... Direct
   Integral package                     .... LIBINT
 Reset frequeny         DirectResetFreq ....    20
 Integral Threshold     Thresh          ....  1.000e-10 Eh
 Primitive CutOff       TCut            ....  1.000e-11 Eh

Convergence Tolerance:
 Convergence Check Mode ConvCheckMode   .... All-Criteria
 Convergence forced     ConvForced      .... 0
 Energy Change          TolE            ....  1.000e-06 Eh
 Max Density Change     TolMaxP         ....  1.000e-05
 RMS Density Change     TolRMSP         ....  1.000e-06
 DIIS Error             TolErr          ....  1.000e-06


Diagonalization of the overlap matrix:
Smallest eigenvalue                        ... 3.401e-03
Time for diagonalization                   ...    0.001 sec
Threshold for overlap eigenvalues          ... 1.000e-08
Number of eigenvalues below threshold      ... 0
Time for construction of square roots      ...    0.011 sec
Total time needed                          ...    0.011 sec

-------------------
DFT GRID GENERATION
-------------------

General Integration Accuracy     IntAcc      ...  4.340
Radial Grid Type                 RadialGrid  ... Gauss-Chebyshev
Angular Grid (max. acc.)         AngularGrid ... Lebedev-110
Angular grid pruning method      GridPruning ... 3 (G Style)
Weight generation scheme         WeightScheme... Becke
Basis function cutoff            BFCut       ...    1.0000e-10
Integration weight cutoff        WCut        ...    1.0000e-14
Grids for H and He will be reduced by one unit

# of grid points (after initial pruning)     ...   4152 (   0.0 sec)
# of grid points (after weights+screening)   ...   4100 (   0.0 sec)
nearest neighbour list constructed           ...    0.0 sec
Grid point re-assignment to atoms done       ...    0.0 sec
Grid point division into batches done        ...    0.0 sec
Reduced shell lists constructed in    0.0 sec

Total number of grid points                  ...     4100
Total number of batches                      ...       65
Average number of points per batch           ...       63
Average number of grid points per atom       ...     1367
Average number of shells per batch           ...    12.18 (87.01%)
Average number of basis functions per batch  ...    26.48 (88.28%)
Average number of large shells per batch     ...    11.64 (95.52%)
Average number of large basis fcns per batch ...    25.85 (97.60%)
Maximum spatial batch extension              ...  18.05, 25.60, 31.36 au
Average spatial batch extension              ...   4.27,  6.69,  6.42 au

Time for grid setup =    0.058 sec

------------------------------
INITIAL GUESS: MODEL POTENTIAL
------------------------------
Loading Hartree-Fock densities                     ... done
Calculating cut-offs                               ... done
Setting up the integral package                    ... done
Initializing the effective Hamiltonian             ... done
Starting the Coulomb interaction                   ... done (   0.0 sec)
Reading the grid                                   ... done
Mapping shells                                     ... done
Starting the XC term evaluation                    ... done (   0.0 sec)
  promolecular density results
     # of electrons  =     13.999918030
     EX              =    -11.888727819
     EC              =     -0.436423035
     EX+EC           =    -12.325150854
Transforming the Hamiltonian                       ... done (   0.0 sec)
Diagonalizing the Hamiltonian                      ... done (   0.0 sec)
Back transforming the eigenvectors                 ... done (   0.0 sec)
Now organizing SCF variables                       ... done
                      ------------------
                      INITIAL GUESS DONE (   0.5 sec)
                      ------------------
--------------
SCF ITERATIONS
--------------
ITER       Energy         Delta-E        Max-DP      RMS-DP      [F,P]   Gradient Norm
               ***  Starting incremental Fock matrix formation  ***
                             ****Resetting KDIIS****
                             ****Turning on KDIIS(Cayley)****
  0    -93.2713986417   0.000000000000 0.03606429  0.00291555  0.1114120   0.117009332
  1    -93.3059912521  -0.034592610314 0.02250854  0.00244768  0.0829350   0.091449116
  2    -93.3263888049  -0.020397552876 0.03895456  0.00367848  0.0720339   0.074500860
  3    -93.3496151713  -0.023226366340 0.06358620  0.00592774  0.0473671   0.047391537
  4    -93.3654086988  -0.015793527482 0.00961782  0.00082510  0.0038186   0.003302327
  5    -93.3655005993  -0.000091900570 0.00291852  0.00027248  0.0008215   0.000590002
  6    -93.3655026177  -0.000002018390 0.00172820  0.00014720  0.0005617   0.000573187
  7    -93.3655054354  -0.000002817652 0.00023638  0.00001879  0.0000621   0.000064834
                          ***Energy convergence achieved***
  8    -93.3655054699  -0.000000034577 0.00002842  0.00000157  0.0000011   0.000001394
                           ***RMSP convergence achieved***
                           ***MAXP convergence achieved***
                    *** KDIIS BlockDiag ( 0.000 sec) ***

               *****************************************************
               *                     SUCCESS                       *
               *           SCF CONVERGED AFTER   9 CYCLES          *
               *****************************************************

Setting up the final grid:

General Integration Accuracy     IntAcc      ...  4.670
Radial Grid Type                 RadialGrid  ... Gauss-Chebyshev
Angular Grid (max. acc.)         AngularGrid ... Lebedev-302
Angular grid pruning method      GridPruning ... 3 (G Style)
Weight generation scheme         WeightScheme... Becke
Basis function cutoff            BFCut       ...    1.0000e-10
Integration weight cutoff        WCut        ...    1.0000e-14
Grids for H and He will be reduced by one unit

# of grid points (after initial pruning)     ...  15818 (   0.0 sec)
# of grid points (after weights+screening)   ...  15660 (   0.0 sec)
nearest neighbour list constructed           ...    0.0 sec
Grid point re-assignment to atoms done       ...    0.0 sec
Grid point division into batches done        ...    0.1 sec
Reduced shell lists constructed in    0.1 sec

Total number of grid points                  ...    15660
Total number of batches                      ...      246
Average number of points per batch           ...       63
Average number of grid points per atom       ...     5220
Average number of shells per batch           ...    11.20 (79.99%)
Average number of basis functions per batch  ...    24.53 (81.78%)
Average number of large shells per batch     ...    10.34 (92.34%)
Average number of large basis fcns per batch ...    22.80 (92.94%)
Maximum spatial batch extension              ...  20.16, 18.05, 25.05 au
Average spatial batch extension              ...   3.19,  4.07,  4.18 au

Final grid set up in    0.2 sec
Final integration                            ... done (   0.6 sec)
Change in XC energy                          ...     0.000107488
Integrated number of electrons               ...    14.000004781
Previous integrated no of electrons          ...    13.998725323

----------------
TOTAL SCF ENERGY
----------------

Total Energy       :          -93.36539798 Eh           -2540.60164 eV

Components:
Nuclear Repulsion  :           25.59243272 Eh             696.40550 eV
Electronic Energy  :         -118.95783070 Eh           -3237.00714 eV
One Electron Energy:         -176.09355664 Eh           -4791.74928 eV
Two Electron Energy:           57.13572594 Eh            1554.74214 eV

Virial components:
Potential Energy   :         -186.67801014 Eh           -5079.76691 eV
Kinetic Energy     :           93.31261216 Eh            2539.16527 eV
Virial Ratio       :            2.00056569


DFT components:
N(Alpha)           :        7.000002390543 electrons
N(Beta)            :        7.000002390543 electrons
N(Total)           :       14.000004781087 electrons
E(XC)              :       -8.798924047367 Eh       

---------------
SCF CONVERGENCE
---------------

  Last Energy change         ...    1.9384e-11  Tolerance :   1.0000e-06
  Last MAX-Density change    ...    2.7007e-07  Tolerance :   1.0000e-05
  Last RMS-Density change    ...    3.0708e-08  Tolerance :   1.0000e-06
  Last DIIS Error            ...    1.4400e-07  Tolerance :   1.0000e-06

             **** THE GBW FILE WAS UPDATED (Scan_4.gbw) ****
             **** DENSITY FILE WAS UPDATED (Scan_4.scfp.tmp) ****
             **** ENERGY FILE WAS UPDATED (Scan_4.en.tmp) ****
----------------
ORBITAL ENERGIES
----------------

  NO   OCC          E(Eh)            E(eV) 
   0   2.0000     -14.435583      -392.8122 
   1   2.0000     -10.315956      -280.7114 
   2   2.0000      -1.064579       -28.9687 
   3   2.0000      -0.704621       -19.1737 
   4   2.0000      -0.477987       -13.0067 
   5   2.0000      -0.477981       -13.0065 
   6   2.0000      -0.470683       -12.8079 
   7   0.0000       0.149262         4.0616 
   8   0.0000       0.149272         4.0619 
   9   0.0000       0.190256         5.1771 
  10   0.0000       0.366902         9.9839 
  11   0.0000       0.616036        16.7632 
  12   0.0000       0.616046        16.7635 
  13   0.0000       0.737663        20.0728 
  14   0.0000       0.825246        22.4561 
  15   0.0000       0.893216        24.3057 
  16   0.0000       0.893220        24.3058 
  17   0.0000       0.954922        25.9848 
  18   0.0000       1.359107        36.9832 
  19   0.0000       1.575019        42.8584 
  20   0.0000       1.575205        42.8635 
  21   0.0000       1.625108        44.2214 
  22   0.0000       1.708463        46.4897 
  23   0.0000       1.708480        46.4901 
  24   0.0000       2.106362        57.3170 
  25   0.0000       2.106378        57.3175 
  26   0.0000       2.754912        74.9650 
  27   0.0000       2.754928        74.9654 
  28   0.0000       2.867499        78.0286 
  29   0.0000       3.385444        92.1226 

                    ********************************
                    * MULLIKEN POPULATION ANALYSIS *
                    ********************************

-----------------------
MULLIKEN ATOMIC CHARGES
-----------------------
   0 C :   -0.029697
   1 N :   -0.241644
   2 H :    0.271341
Sum of atomic charges:   -0.0000000

--------------------------------
MULLIKEN REDUCED ORBITAL CHARGES
--------------------------------
  0 C s       :     3.112708  s :     3.112708
      pz      :     0.936941  p :     2.877926
      px      :     1.003953
      py      :     0.937032
      dz2     :     0.003750  d :     0.039064
      dxz     :     0.012025
      dyz     :     0.000011
      dx2y2   :     0.011252
      dxy     :     0.012026
  1 N s       :     3.694409  s :     3.694409
      pz      :     1.033139  p :     3.498568
      px      :     1.431986
      py      :     1.033443
      dz2     :     0.003225  d :     0.048667
      dxz     :     0.017868
      dyz     :     0.000016
      dx2y2   :     0.009704
      dxy     :     0.017854
  2 H s       :     0.728659  s :     0.728659


                     *******************************
                     * LOEWDIN POPULATION ANALYSIS *
                     *******************************

----------------------
LOEWDIN ATOMIC CHARGES
----------------------
   0 C :   -0.134372
   1 N :   -0.042172
   2 H :    0.176544

-------------------------------
LOEWDIN REDUCED ORBITAL CHARGES
-------------------------------
  0 C s       :     2.993801  s :     2.993801
      pz      :     0.924593  p :     3.049935
      px      :     1.200475
      py      :     0.924868
      dz2     :     0.010264  d :     0.090636
      dxz     :     0.024772
      dyz     :     0.000022
      dx2y2   :     0.030770
      dxy     :     0.024808
  1 N s       :     3.373003  s :     3.373003
      pz      :     1.023920  p :     3.580545
      px      :     1.532292
      py      :     1.024332
      dz2     :     0.008809  d :     0.088625
      dxz     :     0.026670
      dyz     :     0.000023
      dx2y2   :     0.026431
      dxy     :     0.026691
  2 H s       :     0.823456  s :     0.823456


                      *****************************
                      * MAYER POPULATION ANALYSIS *
                      *****************************

  NA   - Mulliken gross atomic population
  ZA   - Total nuclear charge
  QA   - Mulliken gross atomic charge
  VA   - Mayer's total valence
  BVA  - Mayer's bonded valence
  FA   - Mayer's free valence

  ATOM       NA         ZA         QA         VA         BVA        FA
  0 C      6.0297     6.0000    -0.0297     3.9868     3.9868    -0.0000
  1 N      7.2416     7.0000    -0.2416     3.1204     3.1204    -0.0000
  2 H      0.7287     1.0000     0.2713     0.8972     0.8972    -0.0000

  Mayer bond orders larger than 0.1
B(  0-C ,  1-N ) :   3.1050 B(  0-C ,  2-H ) :   0.8818 

-------
TIMINGS
-------

Total SCF time: 0 days 0 hours 0 min 12 sec 

Total time                  ....      12.027 sec
Sum of individual times     ....      11.319 sec  ( 94.1%)

Fock matrix formation       ....      10.367 sec  ( 86.2%)
  XC integration            ....       1.958 sec  ( 18.9% of F)
    Basis function eval.    ....       0.614 sec  ( 31.3% of XC)
    Density eval.           ....       0.071 sec  (  3.6% of XC)
    XC-Functional eval.     ....       0.276 sec  ( 14.1% of XC)
    XC-Potential eval.      ....       0.142 sec  (  7.3% of XC)
Diagonalization             ....       0.083 sec  (  0.7%)
Density matrix formation    ....       0.000 sec  (  0.0%)
Population analysis         ....       0.156 sec  (  1.3%)
Initial guess               ....       0.479 sec  (  4.0%)
Orbital Transformation      ....       0.000 sec  (  0.0%)
Orbital Orthonormalization  ....       0.000 sec  (  0.0%)
DIIS solution               ....       0.000 sec  (  0.0%)
Grid generation             ....       0.233 sec  (  1.9%)


-------------------------------------------------------------------------------
                          DFT DISPERSION CORRECTION                            
                                                                               
                              DFTD3 V3.1  Rev 1                                
                              USING zero damping                               
-------------------------------------------------------------------------------
The omegaB97X-D3 functional is recognized. Fit by Chai et al.
Active option DFTDOPT                   ...         3   

molecular C6(AA) [au] = 141.157791 


            DFT-D V3
 parameters
 s6 scaling factor         :     1.0000 
 rs6 scaling factor        :     1.2810 
 s8 scaling factor         :     1.0000 
 rs8 scaling factor        :     1.0940 
 Damping factor alpha6     :    14.0000 
 Damping factor alpha8     :    16.0000 
 ad hoc parameters k1-k3   :    16.0000     1.3333    -4.0000 

 Edisp/kcal,au: -0.010348119054  -0.000016490776 
 E6   /kcal   :  -0.001441388 
 E8   /kcal   :  -0.008906731 
 % E8         :  86.071014249 

-------------------------   ----------------
Dispersion correction           -0.000016491
-------------------------   ----------------


-------------------------   --------------------
FINAL SINGLE POINT ENERGY       -93.365414472796
-------------------------   --------------------


                            ***************************************
                            *     ORCA property calculations      *
                            ***************************************

                                    ---------------------
                                    Active property flags
                                    ---------------------
   (+) Dipole Moment


------------------------------------------------------------------------------
                       ORCA ELECTRIC PROPERTIES CALCULATION
------------------------------------------------------------------------------

Dipole Moment Calculation                       ... on
Quadrupole Moment Calculation                   ... off
Polarizability Calculation                      ... off
GBWName                                         ... Scan_4.gbw
Electron density file                           ... Scan_4.scfp.tmp

-------------
DIPOLE MOMENT
-------------
                                X             Y             Z
Electronic contribution:      0.31314       0.00921       0.00000
Nuclear contribution   :     -1.47467      -0.04358       0.00000
                        -----------------------------------------
Total Dipole Moment    :     -1.16154      -0.03437       0.00000
                        -----------------------------------------
Magnitude (a.u.)       :      1.16205
Magnitude (Debye)      :      2.95369


Timings for individual modules:

Sum of individual times         ...       13.864 sec (=   0.231 min)
GTO integral calculation        ...        1.765 sec (=   0.029 min)  12.7 %
SCF iterations                  ...       12.099 sec (=   0.202 min)  87.3 %
                             ****ORCA TERMINATED NORMALLY****
TOTAL RUN TIME: 0 days 0 hours 0 minutes 15 seconds 229 msec
