
                                 *****************
                                 * O   R   C   A *
                                 *****************

           --- An Ab Initio, DFT and Semiempirical electronic structure package ---

                  #######################################################
                  #                        -***-                        #
                  #  Department of molecular theory and spectroscopy    #
                  #              Directorship: Frank Neese              #
                  # Max Planck Institute for Chemical Energy Conversion #
                  #                  D-45470 Muelheim/Ruhr              #
                  #                       Germany                       #
                  #                                                     #
                  #                  All rights reserved                #
                  #                        -***-                        #
                  #######################################################


                         Program Version 4.0.0.2 - RELEASE -


 With contributions from (in alphabetic order):
   Daniel Aravena         : Magnetic Properties
   Michael Atanasov       : Ab Initio Ligand Field Theory
   Ute Becker             : Parallelization
   Martin Brehm           : Molecular dynamics
   Dmytro Bykov           : SCF Hessian
   Vijay G. Chilkuri      : MRCI spin determinant printing
   Dipayan Datta          : RHF DLPNO-CCSD density
   Achintya Kumar Dutta   : EOM-CC, STEOM-CC
   Dmitry Ganyushin       : Spin-Orbit,Spin-Spin,Magnetic field MRCI
   Yang Guo               : DLPNO-NEVPT2, CIM, IAO-localization
   Andreas Hansen         : Spin unrestricted coupled pair/coupled cluster methods
   Lee Huntington         : MR-EOM, pCC
   Robert Izsak           : Overlap fitted RIJCOSX, COSX-SCS-MP3, EOM
   Christian Kollmar      : KDIIS, OOCD, Brueckner-CCSD(T), CCSD density
   Simone Kossmann        : Meta GGA functionals, TD-DFT gradient, OOMP2, MP2 Hessian
   Martin Krupicka        : AUTO-CI
   Dagmar Lenk            : GEPOL surface
   Dimitrios Liakos       : Extrapolation schemes; parallel MDCI
   Dimitrios Manganas     : ROCIS; embedding schemes
   Dimitrios Pantazis     : SARC Basis sets
   Taras Petrenko         : DFT Hessian,TD-DFT gradient, ASA, ECA, R-Raman, ABS, FL, XAS/XES, NRVS
   Peter Pinski           : DLPNO-MP2
   Christoph Reimann      : Effective Core Potentials
   Marius Retegan         : Local ZFS, SOC
   Christoph Riplinger    : Optimizer, TS searches, QM/MM, DLPNO-CCSD(T), (RO)-DLPNO pert. Triples
   Tobias Risthaus        : Range-separated hybrids, TD-DFT gradient, RPA, STAB
   Michael Roemelt        : Restricted open shell CIS
   Masaaki Saitow         : Open-shell DLPNO
   Barbara Sandhoefer     : DKH picture change effects
   Kantharuban Sivalingam : CASSCF convergence, NEVPT2, FIC-MRCI
   Georgi Stoychev        : AutoAux
   Boris Wezisla          : Elementary symmetry handling
   Frank Wennmohs         : Technical directorship


 We gratefully acknowledge several colleagues who have allowed us to
 interface, adapt or use parts of their codes:
   Stefan Grimme, W. Hujo, H. Kruse,             : VdW corrections, initial TS optimization,
                  C. Bannwarth                     DFT functionals, gCP, sTDA/sTD-DF
   Ed Valeev                                     : LibInt (2-el integral package), F12 methods
   Garnet Chan, S. Sharma, J. Yang, R. Olivares  : DMRG
   Ulf Ekstrom                                   : XCFun DFT Library
   Mihaly Kallay                                 : mrcc  (arbitrary order and MRCC methods)
   Jiri Pittner, Ondrej Demel                    : Mk-CCSD
   Frank Weinhold                                : gennbo (NPA and NBO analysis)
   Christopher J. Cramer and Donald G. Truhlar   : smd solvation model


 Your calculation uses the libint2 library for the computation of 2-el integrals
 For citations please refer to: http://libint.valeyev.net

 This ORCA versions uses:
   CBLAS   interface :  Fast vector & matrix operations
   LAPACKE interface :  Fast linear algebra routines
   SCALAPACK package :  Parallel linear algebra routines


Your calculation utilizes the atom-pairwise dispersion correction
with the zero-damping scheme (D30)
Cite in your paper:
S.Grimme, J.Antony, S.Ehrlich and H.Krieg, J.Chem.Phys., 132, (2010), 154104 
   

XCFun DFT library Copyright 2009-2010 Ulf Ekstrom and contributors.
See http://admol.org/xcfun for more information. This is free soft-
ware; see the source code for copying conditions. There is ABSOLUTELY
NO WARRANTY; not even for MERCHANTABILITY or FITNESS FOR A PARTICULAR
PURPOSE. For details see the documentation. Scientific users of this 
library should cite U. Ekstrom, L. Visscher, R. Bast, A. J. Thorvald-
sen and K. Ruud; J.Chem.Theor.Comp. 2010, DOI: 10.1021/ct100117s
XCFun Version 0.99 
Your calculation utilizes the basis: 6-31G(d)
   H-He, Li-Ne : W. J. Hehre, R. Ditchfield and J.A. Pople, J. Chem. Phys. 56, 2257 (1972).
                 Note: He and Ne are unpublished basis sets taken from the Gaussian program.
                 Note: Li and B from J. D. Dill and J. A. Pople, J. Chem. Phys. 62, 2921 (1975).
   Na - Ar     : M. M. Francl, W. J. Pietro, W. J. Hehre, J. S. Binkley, M. S. Gordon, 
                 D. J. DeFrees and J. A. Pople, J. Chem. Phys. 77, 3654 (1982).
   K - Zn      : V. A. Rassolov, J. A. Pople, M. A. Ratner, and T. L. Windus, J. Chem. Phys. 109, 1223 (1998).

================================================================================
                                        WARNINGS
                       Please study these warnings very carefully!
================================================================================

Warning: TCutStore was < 0. Adjusted to Thresh (uncritical)

INFO   : the flag for use of LIBINT has been found!

================================================================================
                                       INPUT FILE
================================================================================
NAME = initial40.inp
|  1> ! WB97X-D3 6-31G(d) VerySlowConv
|  2> ! KDIIS NOSOSCF
|  3> %base "Scan_40"
|  4> 
|  5> %scf
|  6> maxiter 999
|  7> end
|  8> 
|  9> * xyz 0 1
| 10> C         -4.605441087806    0.367541375483    0.000000000000
| 11> N         -0.118641481524    0.500150685488    0.000000000000
| 12> H         -5.715697430670    0.334837939030   -0.000000000000
| 13> **                         ****END OF INPUT****
================================================================================

                       ****************************
                       * Single Point Calculation *
                       ****************************

---------------------------------
CARTESIAN COORDINATES (ANGSTROEM)
---------------------------------
  C     -4.605441    0.367541    0.000000
  N     -0.118641    0.500151    0.000000
  H     -5.715697    0.334838   -0.000000

----------------------------
CARTESIAN COORDINATES (A.U.)
----------------------------
  NO LB      ZA    FRAG     MASS         X           Y           Z
   0 C     6.0000    0    12.011   -8.703022    0.694553    0.000000
   1 N     7.0000    0    14.007   -0.224200    0.945148    0.000000
   2 H     1.0000    0     1.008  -10.801103    0.632752   -0.000000

--------------------------------
INTERNAL COORDINATES (ANGSTROEM)
--------------------------------
 C      0   0   0     0.000000000000     0.00000000     0.00000000
 N      1   0   0     4.488758841376     0.00000000     0.00000000
 H      1   2   0     1.110737890605   179.99429365     0.00000000

---------------------------
INTERNAL COORDINATES (A.U.)
---------------------------
 C      0   0   0     0.000000000000     0.00000000     0.00000000
 N      1   0   0     8.482524891419     0.00000000     0.00000000
 H      1   2   0     2.098990419813   179.99429365     0.00000000

---------------------
BASIS SET INFORMATION
---------------------
There are 3 groups of distinct atoms

 Group   1 Type C   : 10s4p1d contracted to 3s2p1d pattern {631/31/1}
 Group   2 Type N   : 10s4p1d contracted to 3s2p1d pattern {631/31/1}
 Group   3 Type H   : 4s contracted to 2s pattern {31}

Atom   0C    basis set group =>   1
Atom   1N    basis set group =>   2
Atom   2H    basis set group =>   3
------------------------------------------------------------------------------
                           ORCA GTO INTEGRAL CALCULATION
------------------------------------------------------------------------------

                         BASIS SET STATISTICS AND STARTUP INFO

 # of primitive gaussian shells          ...   34
 # of primitive gaussian functions       ...   58
 # of contracted shells                  ...   14
 # of contracted basis functions         ...   30
 Highest angular momentum                ...    2
 Maximum contraction depth               ...    6
 Integral package used                   ... LIBINT
 Integral threshhold            Thresh   ...  1.000e-10
 Primitive cut-off              TCut     ...  1.000e-11


------------------------------ INTEGRAL EVALUATION ----------------------------


 * One electron integrals 
 Pre-screening matrix                    ... done
 Shell pair data                         ... done (   0.000 sec)

-------------------------------------------------------------------------------
                                 ORCA SCF
-------------------------------------------------------------------------------

------------
SCF SETTINGS
------------
Hamiltonian:
 Density Functional     Method          .... DFT(GTOs)
 Exchange Functional    Exchange        .... WB97X-D3
 Correlation Functional Correlation     .... WB97X-D3
 Gradients option       PostSCFGGA      .... off
 Hybrid DFT is turned on
   Fraction HF Exchange ScalHFX         ....  0.195728
   Scaling of DF-GGA-X  ScalDFX         ....  0.000000
   Scaling of DF-GGA-C  ScalDFC         ....  1.000000
   Scaling of DF-LDA-C  ScalLDAC        ....  1.000000
   Perturbative correction              ....  0.000000
 Long-range corrected/Screened/Range-Separated Hybrid DFT is turned on
   Amount of maximum screened exact exchange              ....  0.804272
   Range separation parameter mu (erf(mu*r12)/r12)        ....  0.250000


General Settings:
 Integral files         IntName         .... Scan_40
 Hartree-Fock type      HFTyp           .... RHF
 Total Charge           Charge          ....    0
 Multiplicity           Mult            ....    1
 Number of Electrons    NEL             ....   14
 Basis Dimension        Dim             ....   30
 Nuclear Repulsion      ENuc            ....      8.4714039976 Eh

Convergence Acceleration:
 DIIS                   CNVDIIS         .... on
   Start iteration      DIISMaxIt       ....     0
   Startup error        DIISStart       ....  0.200000
   # of expansion vecs  DIISMaxEq       ....     5
   Bias factor          DIISBfac        ....   1.050
   Max. coefficient     DIISMaxC        ....  10.000
 Newton-Raphson         CNVNR           .... off
 SOSCF                  CNVSOSCF        .... off
 Level Shifting         CNVShift        .... off
 Zerner damping         CNVZerner       .... off
 Static damping         CNVDamp         .... off
 Fernandez-Rico         CNVRico         .... off

SCF Procedure:
 Maximum # iterations   MaxIter         ....   999
 SCF integral mode      SCFMode         .... Direct
   Integral package                     .... LIBINT
 Reset frequeny         DirectResetFreq ....    20
 Integral Threshold     Thresh          ....  1.000e-10 Eh
 Primitive CutOff       TCut            ....  1.000e-11 Eh

Convergence Tolerance:
 Convergence Check Mode ConvCheckMode   .... All-Criteria
 Convergence forced     ConvForced      .... 0
 Energy Change          TolE            ....  1.000e-06 Eh
 Max Density Change     TolMaxP         ....  1.000e-05
 RMS Density Change     TolRMSP         ....  1.000e-06
 DIIS Error             TolErr          ....  1.000e-06


Diagonalization of the overlap matrix:
Smallest eigenvalue                        ... 4.852e-02
Time for diagonalization                   ...    0.001 sec
Threshold for overlap eigenvalues          ... 1.000e-08
Number of eigenvalues below threshold      ... 0
Time for construction of square roots      ...    0.005 sec
Total time needed                          ...    0.005 sec

-------------------
DFT GRID GENERATION
-------------------

General Integration Accuracy     IntAcc      ...  4.340
Radial Grid Type                 RadialGrid  ... Gauss-Chebyshev
Angular Grid (max. acc.)         AngularGrid ... Lebedev-110
Angular grid pruning method      GridPruning ... 3 (G Style)
Weight generation scheme         WeightScheme... Becke
Basis function cutoff            BFCut       ...    1.0000e-10
Integration weight cutoff        WCut        ...    1.0000e-14
Grids for H and He will be reduced by one unit

# of grid points (after initial pruning)     ...   4152 (   0.0 sec)
# of grid points (after weights+screening)   ...   4119 (   0.0 sec)
nearest neighbour list constructed           ...    0.0 sec
Grid point re-assignment to atoms done       ...    0.0 sec
Grid point division into batches done        ...    0.0 sec
Reduced shell lists constructed in    0.0 sec

Total number of grid points                  ...     4119
Total number of batches                      ...       67
Average number of points per batch           ...       61
Average number of grid points per atom       ...     1373
Average number of shells per batch           ...     9.26 (66.18%)
Average number of basis functions per batch  ...    19.62 (65.39%)
Average number of large shells per batch     ...     7.37 (79.52%)
Average number of large basis fcns per batch ...    15.81 (80.58%)
Maximum spatial batch extension              ...  20.47, 25.60, 31.36 au
Average spatial batch extension              ...   5.04,  6.51,  6.71 au

Time for grid setup =    0.025 sec

------------------------------
INITIAL GUESS: MODEL POTENTIAL
------------------------------
Loading Hartree-Fock densities                     ... done
Calculating cut-offs                               ... done
Setting up the integral package                    ... done
Initializing the effective Hamiltonian             ... done
Starting the Coulomb interaction                   ... done (   0.0 sec)
Reading the grid                                   ... done
Mapping shells                                     ... done
Starting the XC term evaluation                    ... done (   0.0 sec)
  promolecular density results
     # of electrons  =     13.997343290
     EX              =    -11.613821586
     EC              =     -0.388711392
     EX+EC           =    -12.002532978
Transforming the Hamiltonian                       ... done (   0.0 sec)
Diagonalizing the Hamiltonian                      ... done (   0.0 sec)
Back transforming the eigenvectors                 ... done (   0.0 sec)
Now organizing SCF variables                       ... done
                      ------------------
                      INITIAL GUESS DONE (   0.1 sec)
                      ------------------
--------------
SCF ITERATIONS
--------------
ITER       Energy         Delta-E        Max-DP      RMS-DP      [F,P]   Gradient Norm
               ***  Starting incremental Fock matrix formation  ***
                             ****Resetting KDIIS****
                             ****Turning on KDIIS(Cayley)****
  0    -92.5086452229   0.000000000000 0.04154372  0.00322687  0.1522637   0.112005098
  1    -92.5371060148  -0.028460791936 0.03923279  0.00353928  0.1271551   0.094807809
  2    -92.5636709796  -0.026564964752 0.06113790  0.00593802  0.1012936   0.075511154
  3    -92.5943523793  -0.030681399728 0.09000511  0.00873762  0.0596111   0.045204222
  4    -92.6085776212  -0.014225241929 0.05116164  0.00360805  0.0111073   0.007638085
  5    -92.6102416424  -0.001664021196 0.09931550  0.00687438  0.0082678   0.004981622
  6    -92.6075349465   0.002706695953 0.11608140  0.00846954  0.0132937   0.008203531
  7    -92.6106923064  -0.003157359919 0.07411118  0.00486207  0.0077053   0.004098136
  8    -92.6098536159   0.000838690525 0.01090119  0.00098917  0.0055930   0.003421611
  9    -92.6102643038  -0.000410687911 0.09072531  0.00565313  0.0096278   0.005175381
 10    -92.6093290852   0.000935218588 0.03816143  0.00238259  0.0068204   0.003770623
 11    -92.6094563140  -0.000127228844 0.04108416  0.00255788  0.0052030   0.003084094
 12    -92.6099488236  -0.000492509616 0.15817627  0.00967194  0.0061663   0.003637563
 13    -92.6087746562   0.001174167464 0.00314315  0.00035234  0.0013691   0.001149805
 14    -92.6087802353  -0.000005579106 0.00274552  0.00018543  0.0005539   0.000274612
 15    -92.6087838936  -0.000003658297 0.00303483  0.00025485  0.0005478   0.000259080
 16    -92.6087926649  -0.000008771321 0.00109039  0.00008521  0.0005374   0.000226795
 17    -92.6087967040  -0.000004039106 0.00090359  0.00008325  0.0005343   0.000239148
 18    -92.6087932430   0.000003460996 0.00143666  0.00010625  0.0005365   0.000221788
 19    -92.6087983891  -0.000005146073 0.00050208  0.00004292  0.0005318   0.000219649
               *** Restarting incremental Fock matrix formation ***
                             ****Resetting KDIIS****
 20    -92.6087998406  -0.000001451539 0.00011924  0.00000875  0.0005307   0.000219675
                          ***Energy convergence achieved***
 21    -92.6088002796  -0.000000438980 0.00008719  0.00000651  0.0005303   0.000220703
 22    -92.6088005636  -0.000000283973 0.00307984  0.00022202  0.0005299   0.000219167
 23    -92.6088112849  -0.000010721344 0.12736011  0.00850282  0.0005186   0.000217638
 24    -92.6089700556  -0.000158770700 0.02351822  0.00153501  0.0015007   0.000695185
 25    -92.6089901360  -0.000020080373 0.03198768  0.00210045  0.0006163   0.000301561
 26    -92.6089780618   0.000012074217 0.01612581  0.00106877  0.0002980   0.000178936
 27    -92.6089894504  -0.000011388595 0.00216499  0.00014261  0.0002804   0.000155880
                          ***Energy convergence achieved***
 28    -92.6089886667   0.000000783718 0.00236182  0.00015812  0.0002185   0.000130328
 29    -92.6089894672  -0.000000800546 0.00753966  0.00049986  0.0002266   0.000128555
 30    -92.6089914207  -0.000001953499 0.00283671  0.00018896  0.0001269   0.000052070
                          ***Energy convergence achieved***
 31    -92.6089909558   0.000000464952 0.00350428  0.00023542  0.0001126   0.000051019
 32    -92.6089899149   0.000001040871 0.00213395  0.00014536  0.0000903   0.000059832
                          ***Energy convergence achieved***
 33    -92.6089906555  -0.000000740642 0.00034986  0.00002536  0.0001088   0.000063716
 34    -92.6089907364  -0.000000080894 0.00076837  0.00005248  0.0001195   0.000069380
 35    -92.6089905952   0.000000141169 0.00426869  0.00030384  0.0000957   0.000066350
 36    -92.6089889739   0.000001621313 0.00067932  0.00005994  0.0000653   0.000034946
                          ***Energy convergence achieved***
 37    -92.6089893188  -0.000000344871 0.00184217  0.00015762  0.0000609   0.000040254
 38    -92.6089898131  -0.000000494305 0.00691029  0.00045496  0.0000492   0.000033307
 39    -92.6089909387  -0.000001125541 0.00044862  0.00003357  0.0000318   0.000023059
               *** Restarting incremental Fock matrix formation ***
                             ****Resetting KDIIS****
                          ***Energy convergence achieved***
                           ***RMSP convergence achieved***
                           ***MAXP convergence achieved***
                    *** KDIIS BlockDiag ( 0.000 sec) ***

               *****************************************************
               *                     SUCCESS                       *
               *           SCF CONVERGED AFTER  40 CYCLES          *
               *****************************************************

Setting up the final grid:

General Integration Accuracy     IntAcc      ...  4.670
Radial Grid Type                 RadialGrid  ... Gauss-Chebyshev
Angular Grid (max. acc.)         AngularGrid ... Lebedev-302
Angular grid pruning method      GridPruning ... 3 (G Style)
Weight generation scheme         WeightScheme... Becke
Basis function cutoff            BFCut       ...    1.0000e-10
Integration weight cutoff        WCut        ...    1.0000e-14
Grids for H and He will be reduced by one unit

# of grid points (after initial pruning)     ...  15818 (   0.0 sec)
# of grid points (after weights+screening)   ...  15755 (   0.0 sec)
nearest neighbour list constructed           ...    0.0 sec
Grid point re-assignment to atoms done       ...    0.0 sec
Grid point division into batches done        ...    0.1 sec
Reduced shell lists constructed in    0.1 sec

Total number of grid points                  ...    15755
Total number of batches                      ...      248
Average number of points per batch           ...       63
Average number of grid points per atom       ...     5252
Average number of shells per batch           ...     8.15 (58.20%)
Average number of basis functions per batch  ...    17.22 (57.39%)
Average number of large shells per batch     ...     6.60 (80.98%)
Average number of large basis fcns per batch ...    14.20 (82.51%)
Maximum spatial batch extension              ...  19.22, 24.37, 24.37 au
Average spatial batch extension              ...   3.60,  4.30,  4.30 au

Final grid set up in    0.1 sec
Final integration                            ... done (   0.1 sec)
Change in XC energy                          ...     0.000486449
Integrated number of electrons               ...    14.000030853
Previous integrated no of electrons          ...    13.999186494

----------------
TOTAL SCF ENERGY
----------------

Total Energy       :          -92.60850450 Eh           -2520.00552 eV

Components:
Nuclear Repulsion  :            8.47140400 Eh             230.51862 eV
Electronic Energy  :         -101.07990849 Eh           -2750.52414 eV
One Electron Energy:         -141.97371867 Eh           -3863.30129 eV
Two Electron Energy:           40.89381017 Eh            1112.77715 eV

Virial components:
Potential Energy   :         -184.79525276 Eh           -5028.53447 eV
Kinetic Energy     :           92.18674826 Eh            2508.52895 eV
Virial Ratio       :            2.00457502


DFT components:
N(Alpha)           :        7.000015426669 electrons
N(Beta)            :        7.000015426669 electrons
N(Total)           :       14.000030853338 electrons
E(XC)              :       -8.499758420029 Eh       

---------------
SCF CONVERGENCE
---------------

  Last Energy change         ...   -6.7959e-09  Tolerance :   1.0000e-06
  Last MAX-Density change    ...    4.4114e-06  Tolerance :   1.0000e-05
  Last RMS-Density change    ...    2.7441e-07  Tolerance :   1.0000e-06
  Last DIIS Error            ...    1.4394e-05  Tolerance :   1.0000e-06

             **** THE GBW FILE WAS UPDATED (Scan_40.gbw) ****
             **** DENSITY FILE WAS UPDATED (Scan_40.scfp.tmp) ****
             **** ENERGY FILE WAS UPDATED (Scan_40.en.tmp) ****
----------------
ORBITAL ENERGIES
----------------

  NO   OCC          E(Eh)            E(eV) 
   0   2.0000     -14.151716      -385.0878 
   1   2.0000     -10.794048      -293.7210 
   2   2.0000      -1.050301       -28.5801 
   3   2.0000      -0.692022       -18.8309 
   4   2.0000      -0.475910       -12.9502 
   5   2.0000      -0.025447        -0.6925 
   6   2.0000      -0.023847        -0.6489 
   7   0.0000      -0.317786        -8.6474 
   8   0.0000      -0.317669        -8.6442 
   9   0.0000       0.006822         0.1856 
  10   0.0000       0.238158         6.4806 
  11   0.0000       0.418493        11.3878 
  12   0.0000       0.418723        11.3940 
  13   0.0000       0.464175        12.6309 
  14   0.0000       0.511961        13.9312 
  15   0.0000       0.723175        19.6786 
  16   0.0000       1.074290        29.2329 
  17   0.0000       1.075727        29.2720 
  18   0.0000       1.077588        29.3227 
  19   0.0000       1.158844        31.5337 
  20   0.0000       1.437761        39.1235 
  21   0.0000       1.437842        39.1257 
  22   0.0000       1.455160        39.5969 
  23   0.0000       1.455848        39.6156 
  24   0.0000       1.901873        51.7526 
  25   0.0000       2.140097        58.2350 
  26   0.0000       2.141898        58.2840 
  27   0.0000       2.142999        58.3140 
  28   0.0000       2.179614        59.3103 
  29   0.0000       2.180137        59.3245 

                    ********************************
                    * MULLIKEN POPULATION ANALYSIS *
                    ********************************

-----------------------
MULLIKEN ATOMIC CHARGES
-----------------------
   0 C :    0.684162
   1 N :   -0.993478
   2 H :    0.309316
Sum of atomic charges:   -0.0000000

--------------------------------
MULLIKEN REDUCED ORBITAL CHARGES
--------------------------------
  0 C s       :     3.972713  s :     3.972713
      pz      :     0.000013  p :     1.324945
      px      :     1.323785
      py      :     0.001146
      dz2     :     0.004544  d :     0.018180
      dxz     :     0.000000
      dyz     :     0.000000
      dx2y2   :     0.013588
      dxy     :     0.000048
  1 N s       :     3.999797  s :     3.999797
      pz      :     1.999973  p :     3.993440
      px      :     1.992540
      py      :     0.000928
      dz2     :     0.000064  d :     0.000240
      dxz     :     0.000014
      dyz     :     0.000000
      dx2y2   :     0.000161
      dxy     :     0.000000
  2 H s       :     0.690684  s :     0.690684


                     *******************************
                     * LOEWDIN POPULATION ANALYSIS *
                     *******************************

----------------------
LOEWDIN ATOMIC CHARGES
----------------------
   0 C :    0.783302
   1 N :   -0.993434
   2 H :    0.210132

-------------------------------
LOEWDIN REDUCED ORBITAL CHARGES
-------------------------------
  0 C s       :     3.791438  s :     3.791438
      pz      :     0.000012  p :     1.402604
      px      :     1.401377
      py      :     0.001214
      dz2     :     0.005663  d :     0.022656
      dxz     :     0.000000
      dyz     :     0.000000
      dx2y2   :     0.016933
      dxy     :     0.000060
  1 N s       :     3.999808  s :     3.999808
      pz      :     1.999973  p :     3.993387
      px      :     1.992485
      py      :     0.000928
      dz2     :     0.000064  d :     0.000240
      dxz     :     0.000014
      dyz     :     0.000000
      dx2y2   :     0.000161
      dxy     :     0.000000
  2 H s       :     0.789868  s :     0.789868


                      *****************************
                      * MAYER POPULATION ANALYSIS *
                      *****************************

  NA   - Mulliken gross atomic population
  ZA   - Total nuclear charge
  QA   - Mulliken gross atomic charge
  VA   - Mayer's total valence
  BVA  - Mayer's bonded valence
  FA   - Mayer's free valence

  ATOM       NA         ZA         QA         VA         BVA        FA
  0 C      5.3158     6.0000     0.6842     0.8341     0.8341    -0.0000
  1 N      7.9935     7.0000    -0.9935     0.0130     0.0130    -0.0000
  2 H      0.6907     1.0000     0.3093     0.8357     0.8357     0.0000

  Mayer bond orders larger than 0.1
B(  0-C ,  2-H ) :   0.8284 

-------
TIMINGS
-------

Total SCF time: 0 days 0 hours 0 min 14 sec 

Total time                  ....      14.348 sec
Sum of individual times     ....      13.669 sec  ( 95.3%)

Fock matrix formation       ....      13.360 sec  ( 93.1%)
  XC integration            ....       1.958 sec  ( 14.7% of F)
    Basis function eval.    ....       0.418 sec  ( 21.3% of XC)
    Density eval.           ....       0.088 sec  (  4.5% of XC)
    XC-Functional eval.     ....       0.556 sec  ( 28.4% of XC)
    XC-Potential eval.      ....       0.041 sec  (  2.1% of XC)
Diagonalization             ....       0.025 sec  (  0.2%)
Density matrix formation    ....       0.000 sec  (  0.0%)
Population analysis         ....       0.013 sec  (  0.1%)
Initial guess               ....       0.125 sec  (  0.9%)
Orbital Transformation      ....       0.000 sec  (  0.0%)
Orbital Orthonormalization  ....       0.000 sec  (  0.0%)
DIIS solution               ....       0.000 sec  (  0.0%)
Grid generation             ....       0.145 sec  (  1.0%)


-------------------------------------------------------------------------------
                          DFT DISPERSION CORRECTION                            
                                                                               
                              DFTD3 V3.1  Rev 1                                
                              USING zero damping                               
-------------------------------------------------------------------------------
The omegaB97X-D3 functional is recognized. Fit by Chai et al.
Active option DFTDOPT                   ...         3   

molecular C6(AA) [au] = 177.241708 


            DFT-D V3
 parameters
 s6 scaling factor         :     1.0000 
 rs6 scaling factor        :     1.2810 
 s8 scaling factor         :     1.0000 
 rs8 scaling factor        :     1.0940 
 Damping factor alpha6     :    14.0000 
 Damping factor alpha8     :    16.0000 
 ad hoc parameters k1-k3   :    16.0000     1.3333    -4.0000 

 Edisp/kcal,au: -0.070998833505  -0.000113143831 
 E6   /kcal   :  -0.051243149 
 E8   /kcal   :  -0.019755685 
 % E8         :  27.825365584 

-------------------------   ----------------
Dispersion correction           -0.000113144
-------------------------   ----------------


-------------------------   --------------------
FINAL SINGLE POINT ENERGY       -92.608617640557
-------------------------   --------------------


                            ***************************************
                            *     ORCA property calculations      *
                            ***************************************

                                    ---------------------
                                    Active property flags
                                    ---------------------
   (+) Dipole Moment


------------------------------------------------------------------------------
                       ORCA ELECTRIC PROPERTIES CALCULATION
------------------------------------------------------------------------------

Dipole Moment Calculation                       ... on
Quadrupole Moment Calculation                   ... off
Polarizability Calculation                      ... off
GBWName                                         ... Scan_40.gbw
Electron density file                           ... Scan_40.scfp.tmp

-------------
DIPOLE MOMENT
-------------
                                X             Y             Z
Electronic contribution:     -5.99236      -0.17691      -0.00000
Nuclear contribution   :     -3.17228      -0.09366       0.00000
                        -----------------------------------------
Total Dipole Moment    :     -9.16464      -0.27057      -0.00000
                        -----------------------------------------
Magnitude (a.u.)       :      9.16864
Magnitude (Debye)      :     23.30482


Timings for individual modules:

Sum of individual times         ...       14.767 sec (=   0.246 min)
GTO integral calculation        ...        0.396 sec (=   0.007 min)   2.7 %
SCF iterations                  ...       14.371 sec (=   0.240 min)  97.3 %
                             ****ORCA TERMINATED NORMALLY****
TOTAL RUN TIME: 0 days 0 hours 0 minutes 15 seconds 153 msec
