
                                 *****************
                                 * O   R   C   A *
                                 *****************

           --- An Ab Initio, DFT and Semiempirical electronic structure package ---

                  #######################################################
                  #                        -***-                        #
                  #  Department of molecular theory and spectroscopy    #
                  #              Directorship: Frank Neese              #
                  # Max Planck Institute for Chemical Energy Conversion #
                  #                  D-45470 Muelheim/Ruhr              #
                  #                       Germany                       #
                  #                                                     #
                  #                  All rights reserved                #
                  #                        -***-                        #
                  #######################################################


                         Program Version 4.0.0.2 - RELEASE -


 With contributions from (in alphabetic order):
   Daniel Aravena         : Magnetic Properties
   Michael Atanasov       : Ab Initio Ligand Field Theory
   Ute Becker             : Parallelization
   Martin Brehm           : Molecular dynamics
   Dmytro Bykov           : SCF Hessian
   Vijay G. Chilkuri      : MRCI spin determinant printing
   Dipayan Datta          : RHF DLPNO-CCSD density
   Achintya Kumar Dutta   : EOM-CC, STEOM-CC
   Dmitry Ganyushin       : Spin-Orbit,Spin-Spin,Magnetic field MRCI
   Yang Guo               : DLPNO-NEVPT2, CIM, IAO-localization
   Andreas Hansen         : Spin unrestricted coupled pair/coupled cluster methods
   Lee Huntington         : MR-EOM, pCC
   Robert Izsak           : Overlap fitted RIJCOSX, COSX-SCS-MP3, EOM
   Christian Kollmar      : KDIIS, OOCD, Brueckner-CCSD(T), CCSD density
   Simone Kossmann        : Meta GGA functionals, TD-DFT gradient, OOMP2, MP2 Hessian
   Martin Krupicka        : AUTO-CI
   Dagmar Lenk            : GEPOL surface
   Dimitrios Liakos       : Extrapolation schemes; parallel MDCI
   Dimitrios Manganas     : ROCIS; embedding schemes
   Dimitrios Pantazis     : SARC Basis sets
   Taras Petrenko         : DFT Hessian,TD-DFT gradient, ASA, ECA, R-Raman, ABS, FL, XAS/XES, NRVS
   Peter Pinski           : DLPNO-MP2
   Christoph Reimann      : Effective Core Potentials
   Marius Retegan         : Local ZFS, SOC
   Christoph Riplinger    : Optimizer, TS searches, QM/MM, DLPNO-CCSD(T), (RO)-DLPNO pert. Triples
   Tobias Risthaus        : Range-separated hybrids, TD-DFT gradient, RPA, STAB
   Michael Roemelt        : Restricted open shell CIS
   Masaaki Saitow         : Open-shell DLPNO
   Barbara Sandhoefer     : DKH picture change effects
   Kantharuban Sivalingam : CASSCF convergence, NEVPT2, FIC-MRCI
   Georgi Stoychev        : AutoAux
   Boris Wezisla          : Elementary symmetry handling
   Frank Wennmohs         : Technical directorship


 We gratefully acknowledge several colleagues who have allowed us to
 interface, adapt or use parts of their codes:
   Stefan Grimme, W. Hujo, H. Kruse,             : VdW corrections, initial TS optimization,
                  C. Bannwarth                     DFT functionals, gCP, sTDA/sTD-DF
   Ed Valeev                                     : LibInt (2-el integral package), F12 methods
   Garnet Chan, S. Sharma, J. Yang, R. Olivares  : DMRG
   Ulf Ekstrom                                   : XCFun DFT Library
   Mihaly Kallay                                 : mrcc  (arbitrary order and MRCC methods)
   Jiri Pittner, Ondrej Demel                    : Mk-CCSD
   Frank Weinhold                                : gennbo (NPA and NBO analysis)
   Christopher J. Cramer and Donald G. Truhlar   : smd solvation model


 Your calculation uses the libint2 library for the computation of 2-el integrals
 For citations please refer to: http://libint.valeyev.net

 This ORCA versions uses:
   CBLAS   interface :  Fast vector & matrix operations
   LAPACKE interface :  Fast linear algebra routines
   SCALAPACK package :  Parallel linear algebra routines


Your calculation utilizes the atom-pairwise dispersion correction
with the zero-damping scheme (D30)
Cite in your paper:
S.Grimme, J.Antony, S.Ehrlich and H.Krieg, J.Chem.Phys., 132, (2010), 154104 
   

XCFun DFT library Copyright 2009-2010 Ulf Ekstrom and contributors.
See http://admol.org/xcfun for more information. This is free soft-
ware; see the source code for copying conditions. There is ABSOLUTELY
NO WARRANTY; not even for MERCHANTABILITY or FITNESS FOR A PARTICULAR
PURPOSE. For details see the documentation. Scientific users of this 
library should cite U. Ekstrom, L. Visscher, R. Bast, A. J. Thorvald-
sen and K. Ruud; J.Chem.Theor.Comp. 2010, DOI: 10.1021/ct100117s
XCFun Version 0.99 
Your calculation utilizes the basis: 6-31G(d)
   H-He, Li-Ne : W. J. Hehre, R. Ditchfield and J.A. Pople, J. Chem. Phys. 56, 2257 (1972).
                 Note: He and Ne are unpublished basis sets taken from the Gaussian program.
                 Note: Li and B from J. D. Dill and J. A. Pople, J. Chem. Phys. 62, 2921 (1975).
   Na - Ar     : M. M. Francl, W. J. Pietro, W. J. Hehre, J. S. Binkley, M. S. Gordon, 
                 D. J. DeFrees and J. A. Pople, J. Chem. Phys. 77, 3654 (1982).
   K - Zn      : V. A. Rassolov, J. A. Pople, M. A. Ratner, and T. L. Windus, J. Chem. Phys. 109, 1223 (1998).

================================================================================
                                        WARNINGS
                       Please study these warnings very carefully!
================================================================================

Warning: TCutStore was < 0. Adjusted to Thresh (uncritical)

INFO   : the flag for use of LIBINT has been found!

================================================================================
                                       INPUT FILE
================================================================================
NAME = initial42.inp
|  1> ! WB97X-D3 6-31G(d) VerySlowConv
|  2> ! KDIIS NOSOSCF
|  3> %base "Scan_42"
|  4> 
|  5> %scf
|  6> maxiter 999
|  7> end
|  8> 
|  9> * xyz 0 1
| 10> C         -4.673598931887    0.365517722893    0.000000000000
| 11> N          0.017657096784    0.504176571350    0.000000000000
| 12> H         -5.783838164897    0.332835705758   -0.000000000000
| 13> **                         ****END OF INPUT****
================================================================================

                       ****************************
                       * Single Point Calculation *
                       ****************************

---------------------------------
CARTESIAN COORDINATES (ANGSTROEM)
---------------------------------
  C     -4.673599    0.365518    0.000000
  N      0.017657    0.504177    0.000000
  H     -5.783838    0.332836   -0.000000

----------------------------
CARTESIAN COORDINATES (A.U.)
----------------------------
  NO LB      ZA    FRAG     MASS         X           Y           Z
   0 C     6.0000    0    12.011   -8.831822    0.690728    0.000000
   1 N     7.0000    0    14.007    0.033367    0.952756    0.000000
   2 H     1.0000    0     1.008  -10.929870    0.628968   -0.000000

--------------------------------
INTERNAL COORDINATES (ANGSTROEM)
--------------------------------
 C      0   0   0     0.000000000000     0.00000000     0.00000000
 N      1   0   0     4.693304742162     0.00000000     0.00000000
 H      1   2   0     1.110720157717   179.99313297     0.00000000

---------------------------
INTERNAL COORDINATES (A.U.)
---------------------------
 C      0   0   0     0.000000000000     0.00000000     0.00000000
 N      1   0   0     8.869060625719     0.00000000     0.00000000
 H      1   2   0     2.098956909511   179.99313297     0.00000000

---------------------
BASIS SET INFORMATION
---------------------
There are 3 groups of distinct atoms

 Group   1 Type C   : 10s4p1d contracted to 3s2p1d pattern {631/31/1}
 Group   2 Type N   : 10s4p1d contracted to 3s2p1d pattern {631/31/1}
 Group   3 Type H   : 4s contracted to 2s pattern {31}

Atom   0C    basis set group =>   1
Atom   1N    basis set group =>   2
Atom   2H    basis set group =>   3
------------------------------------------------------------------------------
                           ORCA GTO INTEGRAL CALCULATION
------------------------------------------------------------------------------

                         BASIS SET STATISTICS AND STARTUP INFO

 # of primitive gaussian shells          ...   34
 # of primitive gaussian functions       ...   58
 # of contracted shells                  ...   14
 # of contracted basis functions         ...   30
 Highest angular momentum                ...    2
 Maximum contraction depth               ...    6
 Integral package used                   ... LIBINT
 Integral threshhold            Thresh   ...  1.000e-10
 Primitive cut-off              TCut     ...  1.000e-11


------------------------------ INTEGRAL EVALUATION ----------------------------


 * One electron integrals 
 Pre-screening matrix                    ... done
 Shell pair data                         ... done (   0.000 sec)

-------------------------------------------------------------------------------
                                 ORCA SCF
-------------------------------------------------------------------------------

------------
SCF SETTINGS
------------
Hamiltonian:
 Density Functional     Method          .... DFT(GTOs)
 Exchange Functional    Exchange        .... WB97X-D3
 Correlation Functional Correlation     .... WB97X-D3
 Gradients option       PostSCFGGA      .... off
 Hybrid DFT is turned on
   Fraction HF Exchange ScalHFX         ....  0.195728
   Scaling of DF-GGA-X  ScalDFX         ....  0.000000
   Scaling of DF-GGA-C  ScalDFC         ....  1.000000
   Scaling of DF-LDA-C  ScalLDAC        ....  1.000000
   Perturbative correction              ....  0.000000
 Long-range corrected/Screened/Range-Separated Hybrid DFT is turned on
   Amount of maximum screened exact exchange              ....  0.804272
   Range separation parameter mu (erf(mu*r12)/r12)        ....  0.250000


General Settings:
 Integral files         IntName         .... Scan_42
 Hartree-Fock type      HFTyp           .... RHF
 Total Charge           Charge          ....    0
 Multiplicity           Mult            ....    1
 Number of Electrons    NEL             ....   14
 Basis Dimension        Dim             ....   30
 Nuclear Repulsion      ENuc            ....      8.2323455156 Eh

Convergence Acceleration:
 DIIS                   CNVDIIS         .... on
   Start iteration      DIISMaxIt       ....     0
   Startup error        DIISStart       ....  0.200000
   # of expansion vecs  DIISMaxEq       ....     5
   Bias factor          DIISBfac        ....   1.050
   Max. coefficient     DIISMaxC        ....  10.000
 Newton-Raphson         CNVNR           .... off
 SOSCF                  CNVSOSCF        .... off
 Level Shifting         CNVShift        .... off
 Zerner damping         CNVZerner       .... off
 Static damping         CNVDamp         .... off
 Fernandez-Rico         CNVRico         .... off

SCF Procedure:
 Maximum # iterations   MaxIter         ....   999
 SCF integral mode      SCFMode         .... Direct
   Integral package                     .... LIBINT
 Reset frequeny         DirectResetFreq ....    20
 Integral Threshold     Thresh          ....  1.000e-10 Eh
 Primitive CutOff       TCut            ....  1.000e-11 Eh

Convergence Tolerance:
 Convergence Check Mode ConvCheckMode   .... All-Criteria
 Convergence forced     ConvForced      .... 0
 Energy Change          TolE            ....  1.000e-06 Eh
 Max Density Change     TolMaxP         ....  1.000e-05
 RMS Density Change     TolRMSP         ....  1.000e-06
 DIIS Error             TolErr          ....  1.000e-06


Diagonalization of the overlap matrix:
Smallest eigenvalue                        ... 4.853e-02
Time for diagonalization                   ...    0.001 sec
Threshold for overlap eigenvalues          ... 1.000e-08
Number of eigenvalues below threshold      ... 0
Time for construction of square roots      ...    0.010 sec
Total time needed                          ...    0.010 sec

-------------------
DFT GRID GENERATION
-------------------

General Integration Accuracy     IntAcc      ...  4.340
Radial Grid Type                 RadialGrid  ... Gauss-Chebyshev
Angular Grid (max. acc.)         AngularGrid ... Lebedev-110
Angular grid pruning method      GridPruning ... 3 (G Style)
Weight generation scheme         WeightScheme... Becke
Basis function cutoff            BFCut       ...    1.0000e-10
Integration weight cutoff        WCut        ...    1.0000e-14
Grids for H and He will be reduced by one unit

# of grid points (after initial pruning)     ...   4152 (   0.0 sec)
# of grid points (after weights+screening)   ...   4119 (   0.0 sec)
nearest neighbour list constructed           ...    0.0 sec
Grid point re-assignment to atoms done       ...    0.0 sec
Grid point division into batches done        ...    0.0 sec
Reduced shell lists constructed in    0.0 sec

Total number of grid points                  ...     4119
Total number of batches                      ...       67
Average number of points per batch           ...       61
Average number of grid points per atom       ...     1373
Average number of shells per batch           ...     9.16 (65.44%)
Average number of basis functions per batch  ...    19.49 (64.95%)
Average number of large shells per batch     ...     7.26 (79.29%)
Average number of large basis fcns per batch ...    15.71 (80.60%)
Maximum spatial batch extension              ...  17.96, 25.60, 31.36 au
Average spatial batch extension              ...   5.33,  6.62,  6.73 au

Time for grid setup =    0.026 sec

------------------------------
INITIAL GUESS: MODEL POTENTIAL
------------------------------
Loading Hartree-Fock densities                     ... done
Calculating cut-offs                               ... done
Setting up the integral package                    ... done
Initializing the effective Hamiltonian             ... done
Starting the Coulomb interaction                   ... done (   0.0 sec)
Reading the grid                                   ... done
Mapping shells                                     ... done
Starting the XC term evaluation                    ... done (   0.0 sec)
  promolecular density results
     # of electrons  =     13.997333856
     EX              =    -11.613776339
     EC              =     -0.388706353
     EX+EC           =    -12.002482692
Transforming the Hamiltonian                       ... done (   0.0 sec)
Diagonalizing the Hamiltonian                      ... done (   0.0 sec)
Back transforming the eigenvectors                 ... done (   0.0 sec)
Now organizing SCF variables                       ... done
                      ------------------
                      INITIAL GUESS DONE (   0.1 sec)
                      ------------------
--------------
SCF ITERATIONS
--------------
ITER       Energy         Delta-E        Max-DP      RMS-DP      [F,P]   Gradient Norm
               ***  Starting incremental Fock matrix formation  ***
                             ****Resetting KDIIS****
                             ****Turning on KDIIS(Cayley)****
  0    -92.5042673258   0.000000000000 0.03821864  0.00303130  0.1523882   0.111942125
  1    -92.5318063149  -0.027538989077 0.03686181  0.00340786  0.1278302   0.095242141
  2    -92.5576962086  -0.025889893693 0.05943005  0.00569159  0.1033383   0.076583980
  3    -92.5880775434  -0.030381334810 0.08867182  0.00835975  0.0625408   0.046450017
  4    -92.6043096282  -0.016232084851 0.03158184  0.00219674  0.0109195   0.005257721
  5    -92.6050463877  -0.000736759469 0.15265478  0.01003880  0.0060746   0.003781460
  6    -92.6020541259   0.002992261808 0.09411822  0.00626532  0.0194215   0.008339806
  7    -92.6045101973  -0.002456071425 0.04682212  0.00296481  0.0035427   0.002501523
  8    -92.6044282091   0.000081988216 0.00806736  0.00060754  0.0022566   0.001345589
  9    -92.6044874800  -0.000059270932 0.00990979  0.00083685  0.0041041   0.001887036
 10    -92.6045850893  -0.000097609300 0.02240980  0.00148934  0.0063907   0.002476347
 11    -92.6044134082   0.000171681130 0.00355860  0.00027926  0.0010135   0.000844911
 12    -92.6044072453   0.000006162908 0.00294774  0.00028197  0.0008561   0.000526838
 13    -92.6044102266  -0.000002981256 0.01008216  0.00075662  0.0007572   0.000533687
 14    -92.6044194780  -0.000009251407 0.01072640  0.00087317  0.0004845   0.000321753
 15    -92.6044406172  -0.000021139188 0.00169545  0.00014363  0.0004565   0.000220478
 16    -92.6044458040  -0.000005186794 0.00090142  0.00007865  0.0004516   0.000222034
 17    -92.6044435212   0.000002282710 0.00078156  0.00005356  0.0004546   0.000232736
 18    -92.6044424003   0.000001120966 0.00098213  0.00006491  0.0004549   0.000215749
                          ***Energy convergence achieved***
 19    -92.6044427816  -0.000000381301 0.00094276  0.00006854  0.0004537   0.000191228
               *** Restarting incremental Fock matrix formation ***
                             ****Resetting KDIIS****
 20    -92.6044455793  -0.000002797714 0.00010286  0.00000745  0.0004511   0.000185848
                          ***Energy convergence achieved***
 21    -92.6044458883  -0.000000309057 0.00014878  0.00001071  0.0004507   0.000185619
 22    -92.6044463325  -0.000000444141 0.00078951  0.00005679  0.0004502   0.000185198
 23    -92.6044486652  -0.000002332711 0.01017499  0.00073899  0.0004474   0.000184661
 24    -92.6044778086  -0.000029143446 0.00174390  0.00012830  0.0004078   0.000177389
 25    -92.6044821483  -0.000004339618 0.01422879  0.00098488  0.0004007   0.000174700
 26    -92.6045156556  -0.000033507305 0.01204259  0.00081808  0.0003393   0.000169099
 27    -92.6045403064  -0.000024650797 0.00535930  0.00036297  0.0003543   0.000195836
 28    -92.6045298662   0.000010440157 0.00067689  0.00005093  0.0003063   0.000178219
 29    -92.6045309869  -0.000001120677 0.00513027  0.00036502  0.0003028   0.000176623
 30    -92.6045404738  -0.000009486877 0.00197396  0.00012001  0.0002788   0.000154256
                          ***Energy convergence achieved***
 31    -92.6045411945  -0.000000720742 0.00085257  0.00006362  0.0002790   0.000142162
 32    -92.6045399743   0.000001220208 0.00148888  0.00011376  0.0002814   0.000139944
 33    -92.6045424883  -0.000002514011 0.00584586  0.00039466  0.0002737   0.000125745
 34    -92.6045521801  -0.000009691790 0.00445635  0.00030438  0.0002417   0.000131070
 35    -92.6045589705  -0.000006790402 0.00258646  0.00020242  0.0002305   0.000127307
 36    -92.6045552106   0.000003759938 0.00029099  0.00002088  0.0002335   0.000131848
                          ***Energy convergence achieved***
 37    -92.6045555106  -0.000000300051 0.00245003  0.00019422  0.0002325   0.000130500
 38    -92.6045525896   0.000002920974 0.00110475  0.00006849  0.0002418   0.000121534
                          ***Energy convergence achieved***
 39    -92.6045526530  -0.000000063364 0.00100906  0.00006800  0.0002414   0.000107609
               *** Restarting incremental Fock matrix formation ***
                             ****Resetting KDIIS****
 40    -92.6045511045   0.000001548539 0.00005826  0.00000436  0.0002468   0.000108798
                          ***Energy convergence achieved***
 41    -92.6045512132  -0.000000108741 0.00004061  0.00000347  0.0002464   0.000110579
 42    -92.6045512584  -0.000000045192 0.00046666  0.00003247  0.0002462   0.000107527
 43    -92.6045519699  -0.000000711502 0.00476139  0.00033310  0.0002439   0.000103655
 44    -92.6045590943  -0.000007124426 0.00015627  0.00001088  0.0002182   0.000095733
                          ***Energy convergence achieved***
 45    -92.6045589544   0.000000139899 0.00132824  0.00009648  0.0002186   0.000095557
 46    -92.6045606410  -0.000001686578 0.01696132  0.00112423  0.0002111   0.000093384
 47    -92.6045779949  -0.000017353891 0.00977056  0.00064380  0.0001122   0.000104957
 48    -92.6045834023  -0.000005407429 0.00371655  0.00024491  0.0001545   0.000093630
                          ***Energy convergence achieved***
 49    -92.6045842099  -0.000000807545 0.00445423  0.00029201  0.0000845   0.000081894
 50    -92.6045847087  -0.000000498845 0.00048375  0.00003362  0.0000535   0.000038158
 51    -92.6045847764  -0.000000067680 0.00025782  0.00001698  0.0000481   0.000035056
 52    -92.6045847829  -0.000000006488 0.00028154  0.00002012  0.0000484   0.000035549
 53    -92.6045847771   0.000000005822 0.00047471  0.00003642  0.0000473   0.000026338
 54    -92.6045848018  -0.000000024742 0.00066356  0.00004436  0.0000577   0.000024907

            ***Energy convergence in two consecutive cycles with***
                    ***'reasonable' density convergence***
                       *** signaling convergence ***

                    *** KDIIS BlockDiag ( 0.000 sec) ***

               *****************************************************
               *                     SUCCESS                       *
               *           SCF CONVERGED AFTER  55 CYCLES          *
               *****************************************************

Setting up the final grid:

General Integration Accuracy     IntAcc      ...  4.670
Radial Grid Type                 RadialGrid  ... Gauss-Chebyshev
Angular Grid (max. acc.)         AngularGrid ... Lebedev-302
Angular grid pruning method      GridPruning ... 3 (G Style)
Weight generation scheme         WeightScheme... Becke
Basis function cutoff            BFCut       ...    1.0000e-10
Integration weight cutoff        WCut        ...    1.0000e-14
Grids for H and He will be reduced by one unit

# of grid points (after initial pruning)     ...  15818 (   0.0 sec)
# of grid points (after weights+screening)   ...  15758 (   0.0 sec)
nearest neighbour list constructed           ...    0.0 sec
Grid point re-assignment to atoms done       ...    0.0 sec
Grid point division into batches done        ...    0.1 sec
Reduced shell lists constructed in    0.1 sec

Total number of grid points                  ...    15758
Total number of batches                      ...      248
Average number of points per batch           ...       63
Average number of grid points per atom       ...     5253
Average number of shells per batch           ...     8.00 (57.14%)
Average number of basis functions per batch  ...    16.93 (56.44%)
Average number of large shells per batch     ...     6.42 (80.27%)
Average number of large basis fcns per batch ...    13.80 (81.52%)
Maximum spatial batch extension              ...  19.22, 24.37, 24.37 au
Average spatial batch extension              ...   3.61,  4.30,  4.29 au

Final grid set up in    0.1 sec
Final integration                            ... done (   0.1 sec)
Change in XC energy                          ...     0.000494345
Integrated number of electrons               ...    14.000013680
Previous integrated no of electrons          ...    13.999067258

----------------
TOTAL SCF ENERGY
----------------

Total Energy       :          -92.60409046 Eh           -2519.88541 eV

Components:
Nuclear Repulsion  :            8.23234552 Eh             224.01351 eV
Electronic Energy  :         -100.83643598 Eh           -2743.89892 eV
One Electron Energy:         -141.49338632 Eh           -3850.23078 eV
Two Electron Energy:           40.65695035 Eh            1106.33186 eV

Virial components:
Potential Energy   :         -184.78660760 Eh           -5028.29923 eV
Kinetic Energy     :           92.18251714 Eh            2508.41382 eV
Virial Ratio       :            2.00457325


DFT components:
N(Alpha)           :        7.000006839992 electrons
N(Beta)            :        7.000006839992 electrons
N(Total)           :       14.000013679984 electrons
E(XC)              :       -8.500064573850 Eh       

---------------
SCF CONVERGENCE
---------------

  Last Energy change         ...   -3.0136e-09  Tolerance :   1.0000e-06
  Last MAX-Density change    ...    6.7716e-05  Tolerance :   1.0000e-05
  Last RMS-Density change    ...    4.3478e-06  Tolerance :   1.0000e-06
  Last DIIS Error            ...    5.3551e-05  Tolerance :   1.0000e-06

             **** THE GBW FILE WAS UPDATED (Scan_42.gbw) ****
             **** DENSITY FILE WAS UPDATED (Scan_42.scfp.tmp) ****
             **** ENERGY FILE WAS UPDATED (Scan_42.en.tmp) ****
----------------
ORBITAL ENERGIES
----------------

  NO   OCC          E(Eh)            E(eV) 
   0   2.0000     -14.145740      -384.9251 
   1   2.0000     -10.800803      -293.9048 
   2   2.0000      -1.056167       -28.7398 
   3   2.0000      -0.698755       -19.0141 
   4   2.0000      -0.470185       -12.7944 
   5   2.0000      -0.019942        -0.5427 
   6   2.0000      -0.018291        -0.4977 
   7   0.0000      -0.323836        -8.8120 
   8   0.0000      -0.323740        -8.8094 
   9   0.0000       0.002339         0.0636 
  10   0.0000       0.243655         6.6302 
  11   0.0000       0.412752        11.2315 
  12   0.0000       0.412940        11.2367 
  13   0.0000       0.456672        12.4267 
  14   0.0000       0.506053        13.7704 
  15   0.0000       0.718192        19.5430 
  16   0.0000       1.079684        29.3797 
  17   0.0000       1.080266        29.3955 
  18   0.0000       1.082991        29.4697 
  19   0.0000       1.163991        31.6738 
  20   0.0000       1.431317        38.9481 
  21   0.0000       1.431383        38.9499 
  22   0.0000       1.449041        39.4304 
  23   0.0000       1.449729        39.4491 
  24   0.0000       1.895476        51.5785 
  25   0.0000       2.145769        58.3893 
  26   0.0000       2.147647        58.4404 
  27   0.0000       2.148575        58.4657 
  28   0.0000       2.185425        59.4684 
  29   0.0000       2.185875        59.4807 

                    ********************************
                    * MULLIKEN POPULATION ANALYSIS *
                    ********************************

-----------------------
MULLIKEN ATOMIC CHARGES
-----------------------
   0 C :    0.682657
   1 N :   -0.997449
   2 H :    0.314793
Sum of atomic charges:   -0.0000000

--------------------------------
MULLIKEN REDUCED ORBITAL CHARGES
--------------------------------
  0 C s       :     3.970967  s :     3.970967
      pz      :     0.000005  p :     1.328288
      px      :     1.327134
      py      :     0.001150
      dz2     :     0.004521  d :     0.018088
      dxz     :     0.000000
      dyz     :     0.000000
      dx2y2   :     0.013519
      dxy     :     0.000048
  1 N s       :     3.999827  s :     3.999827
      pz      :     1.999983  p :     3.997386
      px      :     1.996582
      py      :     0.000821
      dz2     :     0.000062  d :     0.000236
      dxz     :     0.000012
      dyz     :     0.000000
      dx2y2   :     0.000161
      dxy     :     0.000000
  2 H s       :     0.685207  s :     0.685207


                     *******************************
                     * LOEWDIN POPULATION ANALYSIS *
                     *******************************

----------------------
LOEWDIN ATOMIC CHARGES
----------------------
   0 C :    0.783877
   1 N :   -0.997448
   2 H :    0.213571

-------------------------------
LOEWDIN REDUCED ORBITAL CHARGES
-------------------------------
  0 C s       :     3.790236  s :     3.790236
      pz      :     0.000004  p :     1.403410
      px      :     1.402191
      py      :     0.001215
      dz2     :     0.005618  d :     0.022476
      dxz     :     0.000000
      dyz     :     0.000000
      dx2y2   :     0.016799
      dxy     :     0.000059
  1 N s       :     3.999831  s :     3.999831
      pz      :     1.999983  p :     3.997381
      px      :     1.996577
      py      :     0.000821
      dz2     :     0.000062  d :     0.000236
      dxz     :     0.000012
      dyz     :     0.000000
      dx2y2   :     0.000161
      dxy     :     0.000000
  2 H s       :     0.786429  s :     0.786429


                      *****************************
                      * MAYER POPULATION ANALYSIS *
                      *****************************

  NA   - Mulliken gross atomic population
  ZA   - Total nuclear charge
  QA   - Mulliken gross atomic charge
  VA   - Mayer's total valence
  BVA  - Mayer's bonded valence
  FA   - Mayer's free valence

  ATOM       NA         ZA         QA         VA         BVA        FA
  0 C      5.3173     6.0000     0.6827     0.8327     0.8327    -0.0000
  1 N      7.9974     7.0000    -0.9974     0.0051     0.0051    -0.0000
  2 H      0.6852     1.0000     0.3148     0.8326     0.8326    -0.0000

  Mayer bond orders larger than 0.1
B(  0-C ,  2-H ) :   0.8301 

-------
TIMINGS
-------

Total SCF time: 0 days 0 hours 0 min 19 sec 

Total time                  ....      19.838 sec
Sum of individual times     ....      19.339 sec  ( 97.5%)

Fock matrix formation       ....      19.034 sec  ( 95.9%)
  XC integration            ....       2.632 sec  ( 13.8% of F)
    Basis function eval.    ....       0.556 sec  ( 21.1% of XC)
    Density eval.           ....       0.120 sec  (  4.5% of XC)
    XC-Functional eval.     ....       0.745 sec  ( 28.3% of XC)
    XC-Potential eval.      ....       0.053 sec  (  2.0% of XC)
Diagonalization             ....       0.020 sec  (  0.1%)
Density matrix formation    ....       0.001 sec  (  0.0%)
Population analysis         ....       0.010 sec  (  0.0%)
Initial guess               ....       0.129 sec  (  0.6%)
Orbital Transformation      ....       0.000 sec  (  0.0%)
Orbital Orthonormalization  ....       0.000 sec  (  0.0%)
DIIS solution               ....       0.000 sec  (  0.0%)
Grid generation             ....       0.146 sec  (  0.7%)


-------------------------------------------------------------------------------
                          DFT DISPERSION CORRECTION                            
                                                                               
                              DFTD3 V3.1  Rev 1                                
                              USING zero damping                               
-------------------------------------------------------------------------------
The omegaB97X-D3 functional is recognized. Fit by Chai et al.
Active option DFTDOPT                   ...         3   

molecular C6(AA) [au] = 177.241894 


            DFT-D V3
 parameters
 s6 scaling factor         :     1.0000 
 rs6 scaling factor        :     1.2810 
 s8 scaling factor         :     1.0000 
 rs8 scaling factor        :     1.0940 
 Damping factor alpha6     :    14.0000 
 Damping factor alpha8     :    16.0000 
 ad hoc parameters k1-k3   :    16.0000     1.3333    -4.0000 

 Edisp/kcal,au: -0.055805084215  -0.000088931053 
 E6   /kcal   :  -0.041878553 
 E8   /kcal   :  -0.013926531 
 % E8         :  24.955666784 

-------------------------   ----------------
Dispersion correction           -0.000088931
-------------------------   ----------------


-------------------------   --------------------
FINAL SINGLE POINT ENERGY       -92.604179390558
-------------------------   --------------------


                            ***************************************
                            *     ORCA property calculations      *
                            ***************************************

                                    ---------------------
                                    Active property flags
                                    ---------------------
   (+) Dipole Moment


------------------------------------------------------------------------------
                       ORCA ELECTRIC PROPERTIES CALCULATION
------------------------------------------------------------------------------

Dipole Moment Calculation                       ... on
Quadrupole Moment Calculation                   ... off
Polarizability Calculation                      ... off
GBWName                                         ... Scan_42.gbw
Electron density file                           ... Scan_42.scfp.tmp

-------------
DIPOLE MOMENT
-------------
                                X             Y             Z
Electronic contribution:     -6.33058      -0.18697      -0.00000
Nuclear contribution   :     -3.27114      -0.09656       0.00000
                        -----------------------------------------
Total Dipole Moment    :     -9.60172      -0.28354      -0.00000
                        -----------------------------------------
Magnitude (a.u.)       :      9.60590
Magnitude (Debye)      :     24.41626


Timings for individual modules:

Sum of individual times         ...       20.281 sec (=   0.338 min)
GTO integral calculation        ...        0.415 sec (=   0.007 min)   2.0 %
SCF iterations                  ...       19.867 sec (=   0.331 min)  98.0 %
                             ****ORCA TERMINATED NORMALLY****
TOTAL RUN TIME: 0 days 0 hours 0 minutes 20 seconds 666 msec
