
                                 *****************
                                 * O   R   C   A *
                                 *****************

           --- An Ab Initio, DFT and Semiempirical electronic structure package ---

                  #######################################################
                  #                        -***-                        #
                  #  Department of molecular theory and spectroscopy    #
                  #              Directorship: Frank Neese              #
                  # Max Planck Institute for Chemical Energy Conversion #
                  #                  D-45470 Muelheim/Ruhr              #
                  #                       Germany                       #
                  #                                                     #
                  #                  All rights reserved                #
                  #                        -***-                        #
                  #######################################################


                         Program Version 4.0.0.2 - RELEASE -


 With contributions from (in alphabetic order):
   Daniel Aravena         : Magnetic Properties
   Michael Atanasov       : Ab Initio Ligand Field Theory
   Ute Becker             : Parallelization
   Martin Brehm           : Molecular dynamics
   Dmytro Bykov           : SCF Hessian
   Vijay G. Chilkuri      : MRCI spin determinant printing
   Dipayan Datta          : RHF DLPNO-CCSD density
   Achintya Kumar Dutta   : EOM-CC, STEOM-CC
   Dmitry Ganyushin       : Spin-Orbit,Spin-Spin,Magnetic field MRCI
   Yang Guo               : DLPNO-NEVPT2, CIM, IAO-localization
   Andreas Hansen         : Spin unrestricted coupled pair/coupled cluster methods
   Lee Huntington         : MR-EOM, pCC
   Robert Izsak           : Overlap fitted RIJCOSX, COSX-SCS-MP3, EOM
   Christian Kollmar      : KDIIS, OOCD, Brueckner-CCSD(T), CCSD density
   Simone Kossmann        : Meta GGA functionals, TD-DFT gradient, OOMP2, MP2 Hessian
   Martin Krupicka        : AUTO-CI
   Dagmar Lenk            : GEPOL surface
   Dimitrios Liakos       : Extrapolation schemes; parallel MDCI
   Dimitrios Manganas     : ROCIS; embedding schemes
   Dimitrios Pantazis     : SARC Basis sets
   Taras Petrenko         : DFT Hessian,TD-DFT gradient, ASA, ECA, R-Raman, ABS, FL, XAS/XES, NRVS
   Peter Pinski           : DLPNO-MP2
   Christoph Reimann      : Effective Core Potentials
   Marius Retegan         : Local ZFS, SOC
   Christoph Riplinger    : Optimizer, TS searches, QM/MM, DLPNO-CCSD(T), (RO)-DLPNO pert. Triples
   Tobias Risthaus        : Range-separated hybrids, TD-DFT gradient, RPA, STAB
   Michael Roemelt        : Restricted open shell CIS
   Masaaki Saitow         : Open-shell DLPNO
   Barbara Sandhoefer     : DKH picture change effects
   Kantharuban Sivalingam : CASSCF convergence, NEVPT2, FIC-MRCI
   Georgi Stoychev        : AutoAux
   Boris Wezisla          : Elementary symmetry handling
   Frank Wennmohs         : Technical directorship


 We gratefully acknowledge several colleagues who have allowed us to
 interface, adapt or use parts of their codes:
   Stefan Grimme, W. Hujo, H. Kruse,             : VdW corrections, initial TS optimization,
                  C. Bannwarth                     DFT functionals, gCP, sTDA/sTD-DF
   Ed Valeev                                     : LibInt (2-el integral package), F12 methods
   Garnet Chan, S. Sharma, J. Yang, R. Olivares  : DMRG
   Ulf Ekstrom                                   : XCFun DFT Library
   Mihaly Kallay                                 : mrcc  (arbitrary order and MRCC methods)
   Jiri Pittner, Ondrej Demel                    : Mk-CCSD
   Frank Weinhold                                : gennbo (NPA and NBO analysis)
   Christopher J. Cramer and Donald G. Truhlar   : smd solvation model


 Your calculation uses the libint2 library for the computation of 2-el integrals
 For citations please refer to: http://libint.valeyev.net

 This ORCA versions uses:
   CBLAS   interface :  Fast vector & matrix operations
   LAPACKE interface :  Fast linear algebra routines
   SCALAPACK package :  Parallel linear algebra routines


Your calculation utilizes the atom-pairwise dispersion correction
with the zero-damping scheme (D30)
Cite in your paper:
S.Grimme, J.Antony, S.Ehrlich and H.Krieg, J.Chem.Phys., 132, (2010), 154104 
   

XCFun DFT library Copyright 2009-2010 Ulf Ekstrom and contributors.
See http://admol.org/xcfun for more information. This is free soft-
ware; see the source code for copying conditions. There is ABSOLUTELY
NO WARRANTY; not even for MERCHANTABILITY or FITNESS FOR A PARTICULAR
PURPOSE. For details see the documentation. Scientific users of this 
library should cite U. Ekstrom, L. Visscher, R. Bast, A. J. Thorvald-
sen and K. Ruud; J.Chem.Theor.Comp. 2010, DOI: 10.1021/ct100117s
XCFun Version 0.99 
Your calculation utilizes the basis: 6-31G(d)
   H-He, Li-Ne : W. J. Hehre, R. Ditchfield and J.A. Pople, J. Chem. Phys. 56, 2257 (1972).
                 Note: He and Ne are unpublished basis sets taken from the Gaussian program.
                 Note: Li and B from J. D. Dill and J. A. Pople, J. Chem. Phys. 62, 2921 (1975).
   Na - Ar     : M. M. Francl, W. J. Pietro, W. J. Hehre, J. S. Binkley, M. S. Gordon, 
                 D. J. DeFrees and J. A. Pople, J. Chem. Phys. 77, 3654 (1982).
   K - Zn      : V. A. Rassolov, J. A. Pople, M. A. Ratner, and T. L. Windus, J. Chem. Phys. 109, 1223 (1998).

================================================================================
                                        WARNINGS
                       Please study these warnings very carefully!
================================================================================

Warning: TCutStore was < 0. Adjusted to Thresh (uncritical)

INFO   : the flag for use of LIBINT has been found!

================================================================================
                                       INPUT FILE
================================================================================
NAME = initial43.inp
|  1> ! WB97X-D3 6-31G(d) VerySlowConv
|  2> ! KDIIS NOSOSCF
|  3> %base "Scan_43"
|  4> 
|  5> %scf
|  6> maxiter 999
|  7> end
|  8> 
|  9> * xyz 0 1
| 10> C         -4.707677653112    0.364505232393    0.000000000000
| 11> N          0.085806789199    0.506189467528    0.000000000000
| 12> H         -5.817909136088    0.331835300079   -0.000000000000
| 13> **                         ****END OF INPUT****
================================================================================

                       ****************************
                       * Single Point Calculation *
                       ****************************

---------------------------------
CARTESIAN COORDINATES (ANGSTROEM)
---------------------------------
  C     -4.707678    0.364505    0.000000
  N      0.085807    0.506189    0.000000
  H     -5.817909    0.331835   -0.000000

----------------------------
CARTESIAN COORDINATES (A.U.)
----------------------------
  NO LB      ZA    FRAG     MASS         X           Y           Z
   0 C     6.0000    0    12.011   -8.896221    0.688815    0.000000
   1 N     7.0000    0    14.007    0.162151    0.956559    0.000000
   2 H     1.0000    0     1.008  -10.994255    0.627078   -0.000000

--------------------------------
INTERNAL COORDINATES (ANGSTROEM)
--------------------------------
 C      0   0   0     0.000000000000     0.00000000     0.00000000
 N      1   0   0     4.795577913157     0.00000000     0.00000000
 H      1   2   0     1.110712055516   179.99247582     0.00000000

---------------------------
INTERNAL COORDINATES (A.U.)
---------------------------
 C      0   0   0     0.000000000000     0.00000000     0.00000000
 N      1   0   0     9.062328909749     0.00000000     0.00000000
 H      1   2   0     2.098941598570   179.99247582     0.00000000

---------------------
BASIS SET INFORMATION
---------------------
There are 3 groups of distinct atoms

 Group   1 Type C   : 10s4p1d contracted to 3s2p1d pattern {631/31/1}
 Group   2 Type N   : 10s4p1d contracted to 3s2p1d pattern {631/31/1}
 Group   3 Type H   : 4s contracted to 2s pattern {31}

Atom   0C    basis set group =>   1
Atom   1N    basis set group =>   2
Atom   2H    basis set group =>   3
------------------------------------------------------------------------------
                           ORCA GTO INTEGRAL CALCULATION
------------------------------------------------------------------------------

                         BASIS SET STATISTICS AND STARTUP INFO

 # of primitive gaussian shells          ...   34
 # of primitive gaussian functions       ...   58
 # of contracted shells                  ...   14
 # of contracted basis functions         ...   30
 Highest angular momentum                ...    2
 Maximum contraction depth               ...    6
 Integral package used                   ... LIBINT
 Integral threshhold            Thresh   ...  1.000e-10
 Primitive cut-off              TCut     ...  1.000e-11


------------------------------ INTEGRAL EVALUATION ----------------------------


 * One electron integrals 
 Pre-screening matrix                    ... done
 Shell pair data                         ... done (   0.000 sec)

-------------------------------------------------------------------------------
                                 ORCA SCF
-------------------------------------------------------------------------------

------------
SCF SETTINGS
------------
Hamiltonian:
 Density Functional     Method          .... DFT(GTOs)
 Exchange Functional    Exchange        .... WB97X-D3
 Correlation Functional Correlation     .... WB97X-D3
 Gradients option       PostSCFGGA      .... off
 Hybrid DFT is turned on
   Fraction HF Exchange ScalHFX         ....  0.195728
   Scaling of DF-GGA-X  ScalDFX         ....  0.000000
   Scaling of DF-GGA-C  ScalDFC         ....  1.000000
   Scaling of DF-LDA-C  ScalLDAC        ....  1.000000
   Perturbative correction              ....  0.000000
 Long-range corrected/Screened/Range-Separated Hybrid DFT is turned on
   Amount of maximum screened exact exchange              ....  0.804272
   Range separation parameter mu (erf(mu*r12)/r12)        ....  0.250000


General Settings:
 Integral files         IntName         .... Scan_43
 Hartree-Fock type      HFTyp           .... RHF
 Total Charge           Charge          ....    0
 Multiplicity           Mult            ....    1
 Number of Electrons    NEL             ....   14
 Basis Dimension        Dim             ....   30
 Nuclear Repulsion      ENuc            ....      8.1203225838 Eh

Convergence Acceleration:
 DIIS                   CNVDIIS         .... on
   Start iteration      DIISMaxIt       ....     0
   Startup error        DIISStart       ....  0.200000
   # of expansion vecs  DIISMaxEq       ....     5
   Bias factor          DIISBfac        ....   1.050
   Max. coefficient     DIISMaxC        ....  10.000
 Newton-Raphson         CNVNR           .... off
 SOSCF                  CNVSOSCF        .... off
 Level Shifting         CNVShift        .... off
 Zerner damping         CNVZerner       .... off
 Static damping         CNVDamp         .... off
 Fernandez-Rico         CNVRico         .... off

SCF Procedure:
 Maximum # iterations   MaxIter         ....   999
 SCF integral mode      SCFMode         .... Direct
   Integral package                     .... LIBINT
 Reset frequeny         DirectResetFreq ....    20
 Integral Threshold     Thresh          ....  1.000e-10 Eh
 Primitive CutOff       TCut            ....  1.000e-11 Eh

Convergence Tolerance:
 Convergence Check Mode ConvCheckMode   .... All-Criteria
 Convergence forced     ConvForced      .... 0
 Energy Change          TolE            ....  1.000e-06 Eh
 Max Density Change     TolMaxP         ....  1.000e-05
 RMS Density Change     TolRMSP         ....  1.000e-06
 DIIS Error             TolErr          ....  1.000e-06


Diagonalization of the overlap matrix:
Smallest eigenvalue                        ... 4.853e-02
Time for diagonalization                   ...    0.001 sec
Threshold for overlap eigenvalues          ... 1.000e-08
Number of eigenvalues below threshold      ... 0
Time for construction of square roots      ...    0.005 sec
Total time needed                          ...    0.006 sec

-------------------
DFT GRID GENERATION
-------------------

General Integration Accuracy     IntAcc      ...  4.340
Radial Grid Type                 RadialGrid  ... Gauss-Chebyshev
Angular Grid (max. acc.)         AngularGrid ... Lebedev-110
Angular grid pruning method      GridPruning ... 3 (G Style)
Weight generation scheme         WeightScheme... Becke
Basis function cutoff            BFCut       ...    1.0000e-10
Integration weight cutoff        WCut        ...    1.0000e-14
Grids for H and He will be reduced by one unit

# of grid points (after initial pruning)     ...   4152 (   0.0 sec)
# of grid points (after weights+screening)   ...   4119 (   0.0 sec)
nearest neighbour list constructed           ...    0.0 sec
Grid point re-assignment to atoms done       ...    0.0 sec
Grid point division into batches done        ...    0.0 sec
Reduced shell lists constructed in    0.0 sec

Total number of grid points                  ...     4119
Total number of batches                      ...       66
Average number of points per batch           ...       62
Average number of grid points per atom       ...     1373
Average number of shells per batch           ...     9.15 (65.35%)
Average number of basis functions per batch  ...    19.42 (64.73%)
Average number of large shells per batch     ...     7.16 (78.30%)
Average number of large basis fcns per batch ...    15.40 (79.32%)
Maximum spatial batch extension              ...  17.96, 25.60, 31.36 au
Average spatial batch extension              ...   5.34,  6.61,  6.77 au

Time for grid setup =    0.024 sec

------------------------------
INITIAL GUESS: MODEL POTENTIAL
------------------------------
Loading Hartree-Fock densities                     ... done
Calculating cut-offs                               ... done
Setting up the integral package                    ... done
Initializing the effective Hamiltonian             ... done
Starting the Coulomb interaction                   ... done (   0.0 sec)
Reading the grid                                   ... done
Mapping shells                                     ... done
Starting the XC term evaluation                    ... done (   0.0 sec)
  promolecular density results
     # of electrons  =     13.997307952
     EX              =    -11.613768628
     EC              =     -0.388698977
     EX+EC           =    -12.002467605
Transforming the Hamiltonian                       ... done (   0.0 sec)
Diagonalizing the Hamiltonian                      ... done (   0.0 sec)
Back transforming the eigenvectors                 ... done (   0.0 sec)
Now organizing SCF variables                       ... done
                      ------------------
                      INITIAL GUESS DONE (   0.1 sec)
                      ------------------
--------------
SCF ITERATIONS
--------------
ITER       Energy         Delta-E        Max-DP      RMS-DP      [F,P]   Gradient Norm
               ***  Starting incremental Fock matrix formation  ***
                             ****Resetting KDIIS****
                             ****Turning on KDIIS(Cayley)****
  0    -92.5021774228   0.000000000000 0.03716514  0.00298451  0.1524377   0.111922983
  1    -92.5295020899  -0.027324667105 0.03626957  0.00337114  0.1280177   0.095339820
  2    -92.5552461207  -0.025744030841 0.05905506  0.00559650  0.1038504   0.076827746
  3    -92.5855171679  -0.030271047216 0.08763789  0.00823771  0.0632085   0.046693752
  4    -92.6021834602  -0.016666292305 0.02570218  0.00175131  0.0095579   0.004518626
  5    -92.6026963438  -0.000512883587 0.11614104  0.00770934  0.0054252   0.003329748
  6    -92.6007445546   0.001951789223 0.05644990  0.00347809  0.0157977   0.006755416
  7    -92.6022457625  -0.001501207888 0.01369818  0.00111668  0.0035943   0.002159111
  8    -92.6023035742  -0.000057811733 0.00739850  0.00050926  0.0013643   0.000958120
  9    -92.6023257134  -0.000022139178 0.00813726  0.00056704  0.0024568   0.001040768
 10    -92.6023316102  -0.000005896765 0.03120496  0.00190451  0.0026963   0.001360558
 11    -92.6023389068  -0.000007296607 0.00883005  0.00053898  0.0015842   0.001107225
 12    -92.6023211058   0.000017801009 0.01880684  0.00117529  0.0016184   0.001181645
 13    -92.6022904452   0.000030660557 0.00109516  0.00010669  0.0005231   0.000295161
 14    -92.6022941560  -0.000003710807 0.00118676  0.00008773  0.0005188   0.000213941
 15    -92.6022982997  -0.000004143655 0.00156545  0.00011462  0.0005153   0.000210078
 16    -92.6023037484  -0.000005448705 0.00040774  0.00002881  0.0005110   0.000212990
                          ***Energy convergence achieved***
 17    -92.6023030809   0.000000667461 0.00219034  0.00017903  0.0005114   0.000210538
 18    -92.6023107077  -0.000007626791 0.00044326  0.00003503  0.0005057   0.000209866
 19    -92.6023092153   0.000001492414 0.00022948  0.00001879  0.0005071   0.000211613
               *** Restarting incremental Fock matrix formation ***
                             ****Resetting KDIIS****
                          ***Energy convergence achieved***
 20    -92.6023095483  -0.000000332979 0.00011260  0.00000889  0.0005067   0.000208910

            ***Energy convergence in two consecutive cycles with***
                    ***'reasonable' density convergence***
                       *** signaling convergence ***

                    *** KDIIS BlockDiag ( 0.000 sec) ***

               *****************************************************
               *                     SUCCESS                       *
               *           SCF CONVERGED AFTER  21 CYCLES          *
               *****************************************************

Setting up the final grid:

General Integration Accuracy     IntAcc      ...  4.670
Radial Grid Type                 RadialGrid  ... Gauss-Chebyshev
Angular Grid (max. acc.)         AngularGrid ... Lebedev-302
Angular grid pruning method      GridPruning ... 3 (G Style)
Weight generation scheme         WeightScheme... Becke
Basis function cutoff            BFCut       ...    1.0000e-10
Integration weight cutoff        WCut        ...    1.0000e-14
Grids for H and He will be reduced by one unit

# of grid points (after initial pruning)     ...  15818 (   0.0 sec)
# of grid points (after weights+screening)   ...  15759 (   0.0 sec)
nearest neighbour list constructed           ...    0.0 sec
Grid point re-assignment to atoms done       ...    0.0 sec
Grid point division into batches done        ...    0.1 sec
Reduced shell lists constructed in    0.1 sec

Total number of grid points                  ...    15759
Total number of batches                      ...      247
Average number of points per batch           ...       63
Average number of grid points per atom       ...     5253
Average number of shells per batch           ...     7.92 (56.57%)
Average number of basis functions per batch  ...    16.75 (55.83%)
Average number of large shells per batch     ...     6.33 (79.89%)
Average number of large basis fcns per batch ...    13.60 (81.20%)
Maximum spatial batch extension              ...  19.27, 24.37, 24.37 au
Average spatial batch extension              ...   3.60,  4.29,  4.36 au

Final grid set up in    0.1 sec
Final integration                            ... done (   0.1 sec)
Change in XC energy                          ...     0.000365885
Integrated number of electrons               ...    14.000004358
Previous integrated no of electrons          ...    13.998977878

----------------
TOTAL SCF ENERGY
----------------

Total Energy       :          -92.60194406 Eh           -2519.82700 eV

Components:
Nuclear Repulsion  :            8.12032258 Eh             220.96521 eV
Electronic Energy  :         -100.72226664 Eh           -2740.79221 eV
One Electron Energy:         -141.26612989 Eh           -3844.04682 eV
Two Electron Energy:           40.54386325 Eh            1103.25461 eV

Virial components:
Potential Energy   :         -184.78230946 Eh           -5028.18227 eV
Kinetic Energy     :           92.18036540 Eh            2508.35526 eV
Virial Ratio       :            2.00457341


DFT components:
N(Alpha)           :        7.000002179185 electrons
N(Beta)            :        7.000002179185 electrons
N(Total)           :       14.000004358369 electrons
E(XC)              :       -8.500052436159 Eh       

---------------
SCF CONVERGENCE
---------------

  Last Energy change         ...   -3.9655e-07  Tolerance :   1.0000e-06
  Last MAX-Density change    ...    7.2014e-05  Tolerance :   1.0000e-05
  Last RMS-Density change    ...    5.4370e-06  Tolerance :   1.0000e-06
  Last DIIS Error            ...    5.0642e-04  Tolerance :   1.0000e-06

             **** THE GBW FILE WAS UPDATED (Scan_43.gbw) ****
             **** DENSITY FILE WAS UPDATED (Scan_43.scfp.tmp) ****
             **** ENERGY FILE WAS UPDATED (Scan_43.en.tmp) ****
----------------
ORBITAL ENERGIES
----------------

  NO   OCC          E(Eh)            E(eV) 
   0   2.0000     -14.143571      -384.8661 
   1   2.0000     -10.803746      -293.9849 
   2   2.0000      -1.058765       -28.8105 
   3   2.0000      -0.701820       -19.0975 
   4   2.0000      -0.467886       -12.7318 
   5   2.0000      -0.017449        -0.4748 
   6   2.0000      -0.016015        -0.4358 
   7   0.0000      -0.326572        -8.8865 
   8   0.0000      -0.326488        -8.8842 
   9   0.0000       0.000240         0.0065 
  10   0.0000       0.245593         6.6829 
  11   0.0000       0.410111        11.1597 
  12   0.0000       0.410276        11.1642 
  13   0.0000       0.453054        12.3282 
  14   0.0000       0.503352        13.6969 
  15   0.0000       0.715949        19.4820 
  16   0.0000       1.080685        29.4069 
  17   0.0000       1.083076        29.4720 
  18   0.0000       1.085233        29.5307 
  19   0.0000       1.166046        31.7297 
  20   0.0000       1.428410        38.8690 
  21   0.0000       1.428470        38.8706 
  22   0.0000       1.446284        39.3554 
  23   0.0000       1.446970        39.3740 
  24   0.0000       1.892600        51.5003 
  25   0.0000       2.148133        58.4537 
  26   0.0000       2.150098        58.5071 
  27   0.0000       2.150861        58.5279 
  28   0.0000       2.187903        59.5359 
  29   0.0000       2.188199        59.5439 

                    ********************************
                    * MULLIKEN POPULATION ANALYSIS *
                    ********************************

-----------------------
MULLIKEN ATOMIC CHARGES
-----------------------
   0 C :    0.681645
   1 N :   -0.998473
   2 H :    0.316828
Sum of atomic charges:    0.0000000

--------------------------------
MULLIKEN REDUCED ORBITAL CHARGES
--------------------------------
  0 C s       :     3.970055  s :     3.970055
      pz      :     0.000003  p :     1.330266
      px      :     1.329061
      py      :     0.001202
      dz2     :     0.004508  d :     0.018034
      dxz     :     0.000000
      dyz     :     0.000000
      dx2y2   :     0.013478
      dxy     :     0.000048
  1 N s       :     3.999824  s :     3.999824
      pz      :     1.999986  p :     3.998415
      px      :     1.924771
      py      :     0.073658
      dz2     :     0.000061  d :     0.000234
      dxz     :     0.000011
      dyz     :     0.000000
      dx2y2   :     0.000137
      dxy     :     0.000024
  2 H s       :     0.683172  s :     0.683172


                     *******************************
                     * LOEWDIN POPULATION ANALYSIS *
                     *******************************

----------------------
LOEWDIN ATOMIC CHARGES
----------------------
   0 C :    0.783630
   1 N :   -0.998476
   2 H :    0.214846

-------------------------------
LOEWDIN REDUCED ORBITAL CHARGES
-------------------------------
  0 C s       :     3.789668  s :     3.789668
      pz      :     0.000003  p :     1.404317
      px      :     1.403045
      py      :     0.001269
      dz2     :     0.005596  d :     0.022386
      dxz     :     0.000000
      dyz     :     0.000000
      dx2y2   :     0.016731
      dxy     :     0.000059
  1 N s       :     3.999827  s :     3.999827
      pz      :     1.999986  p :     3.998416
      px      :     1.924772
      py      :     0.073658
      dz2     :     0.000061  d :     0.000234
      dxz     :     0.000011
      dyz     :     0.000000
      dx2y2   :     0.000137
      dxy     :     0.000024
  2 H s       :     0.785154  s :     0.785154


                      *****************************
                      * MAYER POPULATION ANALYSIS *
                      *****************************

  NA   - Mulliken gross atomic population
  ZA   - Total nuclear charge
  QA   - Mulliken gross atomic charge
  VA   - Mayer's total valence
  BVA  - Mayer's bonded valence
  FA   - Mayer's free valence

  ATOM       NA         ZA         QA         VA         BVA        FA
  0 C      5.3184     6.0000     0.6816     0.8320     0.8320     0.0000
  1 N      7.9985     7.0000    -0.9985     0.0031     0.0031     0.0000
  2 H      0.6832     1.0000     0.3168     0.8318     0.8318    -0.0000

  Mayer bond orders larger than 0.1
B(  0-C ,  2-H ) :   0.8304 

-------
TIMINGS
-------

Total SCF time: 0 days 0 hours 0 min 6 sec 

Total time                  ....       6.994 sec
Sum of individual times     ....       6.724 sec  ( 96.1%)

Fock matrix formation       ....       6.394 sec  ( 91.4%)
  XC integration            ....       1.208 sec  ( 18.9% of F)
    Basis function eval.    ....       0.243 sec  ( 20.1% of XC)
    Density eval.           ....       0.049 sec  (  4.1% of XC)
    XC-Functional eval.     ....       0.332 sec  ( 27.4% of XC)
    XC-Potential eval.      ....       0.024 sec  (  2.0% of XC)
Diagonalization             ....       0.058 sec  (  0.8%)
Density matrix formation    ....       0.000 sec  (  0.0%)
Population analysis         ....       0.010 sec  (  0.1%)
Initial guess               ....       0.116 sec  (  1.7%)
Orbital Transformation      ....       0.000 sec  (  0.0%)
Orbital Orthonormalization  ....       0.000 sec  (  0.0%)
DIIS solution               ....       0.000 sec  (  0.0%)
Grid generation             ....       0.146 sec  (  2.1%)


-------------------------------------------------------------------------------
                          DFT DISPERSION CORRECTION                            
                                                                               
                              DFTD3 V3.1  Rev 1                                
                              USING zero damping                               
-------------------------------------------------------------------------------
The omegaB97X-D3 functional is recognized. Fit by Chai et al.
Active option DFTDOPT                   ...         3   

molecular C6(AA) [au] = 177.241961 


            DFT-D V3
 parameters
 s6 scaling factor         :     1.0000 
 rs6 scaling factor        :     1.2810 
 s8 scaling factor         :     1.0000 
 rs8 scaling factor        :     1.0940 
 Damping factor alpha6     :    14.0000 
 Damping factor alpha8     :    16.0000 
 ad hoc parameters k1-k3   :    16.0000     1.3333    -4.0000 

 Edisp/kcal,au: -0.049339442084  -0.000078627397 
 E6   /kcal   :  -0.037587277 
 E8   /kcal   :  -0.011752166 
 % E8         :  23.819007701 

-------------------------   ----------------
Dispersion correction           -0.000078627
-------------------------   ----------------


-------------------------   --------------------
FINAL SINGLE POINT ENERGY       -92.602022687499
-------------------------   --------------------


                            ***************************************
                            *     ORCA property calculations      *
                            ***************************************

                                    ---------------------
                                    Active property flags
                                    ---------------------
   (+) Dipole Moment


------------------------------------------------------------------------------
                       ORCA ELECTRIC PROPERTIES CALCULATION
------------------------------------------------------------------------------

Dipole Moment Calculation                       ... on
Quadrupole Moment Calculation                   ... off
Polarizability Calculation                      ... off
GBWName                                         ... Scan_43.gbw
Electron density file                           ... Scan_43.scfp.tmp

-------------
DIPOLE MOMENT
-------------
                                X             Y             Z
Electronic contribution:     -6.48973      -0.19622      -0.00000
Nuclear contribution   :     -3.32057      -0.09802       0.00000
                        -----------------------------------------
Total Dipole Moment    :     -9.81030      -0.29424      -0.00000
                        -----------------------------------------
Magnitude (a.u.)       :      9.81472
Magnitude (Debye)      :     24.94702


Timings for individual modules:

Sum of individual times         ...        7.346 sec (=   0.122 min)
GTO integral calculation        ...        0.330 sec (=   0.006 min)   4.5 %
SCF iterations                  ...        7.015 sec (=   0.117 min)  95.5 %
                             ****ORCA TERMINATED NORMALLY****
TOTAL RUN TIME: 0 days 0 hours 0 minutes 7 seconds 713 msec
