
                                 *****************
                                 * O   R   C   A *
                                 *****************

           --- An Ab Initio, DFT and Semiempirical electronic structure package ---

                  #######################################################
                  #                        -***-                        #
                  #  Department of molecular theory and spectroscopy    #
                  #              Directorship: Frank Neese              #
                  # Max Planck Institute for Chemical Energy Conversion #
                  #                  D-45470 Muelheim/Ruhr              #
                  #                       Germany                       #
                  #                                                     #
                  #                  All rights reserved                #
                  #                        -***-                        #
                  #######################################################


                         Program Version 4.0.0.2 - RELEASE -


 With contributions from (in alphabetic order):
   Daniel Aravena         : Magnetic Properties
   Michael Atanasov       : Ab Initio Ligand Field Theory
   Ute Becker             : Parallelization
   Martin Brehm           : Molecular dynamics
   Dmytro Bykov           : SCF Hessian
   Vijay G. Chilkuri      : MRCI spin determinant printing
   Dipayan Datta          : RHF DLPNO-CCSD density
   Achintya Kumar Dutta   : EOM-CC, STEOM-CC
   Dmitry Ganyushin       : Spin-Orbit,Spin-Spin,Magnetic field MRCI
   Yang Guo               : DLPNO-NEVPT2, CIM, IAO-localization
   Andreas Hansen         : Spin unrestricted coupled pair/coupled cluster methods
   Lee Huntington         : MR-EOM, pCC
   Robert Izsak           : Overlap fitted RIJCOSX, COSX-SCS-MP3, EOM
   Christian Kollmar      : KDIIS, OOCD, Brueckner-CCSD(T), CCSD density
   Simone Kossmann        : Meta GGA functionals, TD-DFT gradient, OOMP2, MP2 Hessian
   Martin Krupicka        : AUTO-CI
   Dagmar Lenk            : GEPOL surface
   Dimitrios Liakos       : Extrapolation schemes; parallel MDCI
   Dimitrios Manganas     : ROCIS; embedding schemes
   Dimitrios Pantazis     : SARC Basis sets
   Taras Petrenko         : DFT Hessian,TD-DFT gradient, ASA, ECA, R-Raman, ABS, FL, XAS/XES, NRVS
   Peter Pinski           : DLPNO-MP2
   Christoph Reimann      : Effective Core Potentials
   Marius Retegan         : Local ZFS, SOC
   Christoph Riplinger    : Optimizer, TS searches, QM/MM, DLPNO-CCSD(T), (RO)-DLPNO pert. Triples
   Tobias Risthaus        : Range-separated hybrids, TD-DFT gradient, RPA, STAB
   Michael Roemelt        : Restricted open shell CIS
   Masaaki Saitow         : Open-shell DLPNO
   Barbara Sandhoefer     : DKH picture change effects
   Kantharuban Sivalingam : CASSCF convergence, NEVPT2, FIC-MRCI
   Georgi Stoychev        : AutoAux
   Boris Wezisla          : Elementary symmetry handling
   Frank Wennmohs         : Technical directorship


 We gratefully acknowledge several colleagues who have allowed us to
 interface, adapt or use parts of their codes:
   Stefan Grimme, W. Hujo, H. Kruse,             : VdW corrections, initial TS optimization,
                  C. Bannwarth                     DFT functionals, gCP, sTDA/sTD-DF
   Ed Valeev                                     : LibInt (2-el integral package), F12 methods
   Garnet Chan, S. Sharma, J. Yang, R. Olivares  : DMRG
   Ulf Ekstrom                                   : XCFun DFT Library
   Mihaly Kallay                                 : mrcc  (arbitrary order and MRCC methods)
   Jiri Pittner, Ondrej Demel                    : Mk-CCSD
   Frank Weinhold                                : gennbo (NPA and NBO analysis)
   Christopher J. Cramer and Donald G. Truhlar   : smd solvation model


 Your calculation uses the libint2 library for the computation of 2-el integrals
 For citations please refer to: http://libint.valeyev.net

 This ORCA versions uses:
   CBLAS   interface :  Fast vector & matrix operations
   LAPACKE interface :  Fast linear algebra routines
   SCALAPACK package :  Parallel linear algebra routines


Your calculation utilizes the atom-pairwise dispersion correction
with the zero-damping scheme (D30)
Cite in your paper:
S.Grimme, J.Antony, S.Ehrlich and H.Krieg, J.Chem.Phys., 132, (2010), 154104 
   

XCFun DFT library Copyright 2009-2010 Ulf Ekstrom and contributors.
See http://admol.org/xcfun for more information. This is free soft-
ware; see the source code for copying conditions. There is ABSOLUTELY
NO WARRANTY; not even for MERCHANTABILITY or FITNESS FOR A PARTICULAR
PURPOSE. For details see the documentation. Scientific users of this 
library should cite U. Ekstrom, L. Visscher, R. Bast, A. J. Thorvald-
sen and K. Ruud; J.Chem.Theor.Comp. 2010, DOI: 10.1021/ct100117s
XCFun Version 0.99 
Your calculation utilizes the basis: 6-31G(d)
   H-He, Li-Ne : W. J. Hehre, R. Ditchfield and J.A. Pople, J. Chem. Phys. 56, 2257 (1972).
                 Note: He and Ne are unpublished basis sets taken from the Gaussian program.
                 Note: Li and B from J. D. Dill and J. A. Pople, J. Chem. Phys. 62, 2921 (1975).
   Na - Ar     : M. M. Francl, W. J. Pietro, W. J. Hehre, J. S. Binkley, M. S. Gordon, 
                 D. J. DeFrees and J. A. Pople, J. Chem. Phys. 77, 3654 (1982).
   K - Zn      : V. A. Rassolov, J. A. Pople, M. A. Ratner, and T. L. Windus, J. Chem. Phys. 109, 1223 (1998).

================================================================================
                                        WARNINGS
                       Please study these warnings very carefully!
================================================================================

Warning: TCutStore was < 0. Adjusted to Thresh (uncritical)

INFO   : the flag for use of LIBINT has been found!

================================================================================
                                       INPUT FILE
================================================================================
NAME = initial44.inp
|  1> ! WB97X-D3 6-31G(d) VerySlowConv
|  2> ! KDIIS NOSOSCF
|  3> %base "Scan_44"
|  4> 
|  5> %scf
|  6> maxiter 999
|  7> end
|  8> 
|  9> * xyz 0 1
| 10> C         -4.741756195183    0.363492249379   -0.000000000000
| 11> N          0.153956636650    0.508202324907   -0.000000000000
| 12> H         -5.851980441467    0.330835425715    0.000000000000
| 13> **                         ****END OF INPUT****
================================================================================

                       ****************************
                       * Single Point Calculation *
                       ****************************

---------------------------------
CARTESIAN COORDINATES (ANGSTROEM)
---------------------------------
  C     -4.741756    0.363492   -0.000000
  N      0.153957    0.508202   -0.000000
  H     -5.851980    0.330835    0.000000

----------------------------
CARTESIAN COORDINATES (A.U.)
----------------------------
  NO LB      ZA    FRAG     MASS         X           Y           Z
   0 C     6.0000    0    12.011   -8.960621    0.686901   -0.000000
   1 N     7.0000    0    14.007    0.290936    0.960363   -0.000000
   2 H     1.0000    0     1.008  -11.058640    0.625188    0.000000

--------------------------------
INTERNAL COORDINATES (ANGSTROEM)
--------------------------------
 C      0   0   0     0.000000000000     0.00000000     0.00000000
 N      1   0   0     4.897851073454     0.00000000     0.00000000
 H      1   2   0     1.110704436459   179.99176168     0.00000000

---------------------------
INTERNAL COORDINATES (A.U.)
---------------------------
 C      0   0   0     0.000000000000     0.00000000     0.00000000
 N      1   0   0     9.255597173560     0.00000000     0.00000000
 H      1   2   0     2.098927200638   179.99176168     0.00000000

---------------------
BASIS SET INFORMATION
---------------------
There are 3 groups of distinct atoms

 Group   1 Type C   : 10s4p1d contracted to 3s2p1d pattern {631/31/1}
 Group   2 Type N   : 10s4p1d contracted to 3s2p1d pattern {631/31/1}
 Group   3 Type H   : 4s contracted to 2s pattern {31}

Atom   0C    basis set group =>   1
Atom   1N    basis set group =>   2
Atom   2H    basis set group =>   3
------------------------------------------------------------------------------
                           ORCA GTO INTEGRAL CALCULATION
------------------------------------------------------------------------------

                         BASIS SET STATISTICS AND STARTUP INFO

 # of primitive gaussian shells          ...   34
 # of primitive gaussian functions       ...   58
 # of contracted shells                  ...   14
 # of contracted basis functions         ...   30
 Highest angular momentum                ...    2
 Maximum contraction depth               ...    6
 Integral package used                   ... LIBINT
 Integral threshhold            Thresh   ...  1.000e-10
 Primitive cut-off              TCut     ...  1.000e-11


------------------------------ INTEGRAL EVALUATION ----------------------------


 * One electron integrals 
 Pre-screening matrix                    ... done
 Shell pair data                         ... done (   0.000 sec)

-------------------------------------------------------------------------------
                                 ORCA SCF
-------------------------------------------------------------------------------

------------
SCF SETTINGS
------------
Hamiltonian:
 Density Functional     Method          .... DFT(GTOs)
 Exchange Functional    Exchange        .... WB97X-D3
 Correlation Functional Correlation     .... WB97X-D3
 Gradients option       PostSCFGGA      .... off
 Hybrid DFT is turned on
   Fraction HF Exchange ScalHFX         ....  0.195728
   Scaling of DF-GGA-X  ScalDFX         ....  0.000000
   Scaling of DF-GGA-C  ScalDFC         ....  1.000000
   Scaling of DF-LDA-C  ScalLDAC        ....  1.000000
   Perturbative correction              ....  0.000000
 Long-range corrected/Screened/Range-Separated Hybrid DFT is turned on
   Amount of maximum screened exact exchange              ....  0.804272
   Range separation parameter mu (erf(mu*r12)/r12)        ....  0.250000


General Settings:
 Integral files         IntName         .... Scan_44
 Hartree-Fock type      HFTyp           .... RHF
 Total Charge           Charge          ....    0
 Multiplicity           Mult            ....    1
 Number of Electrons    NEL             ....   14
 Basis Dimension        Dim             ....   30
 Nuclear Repulsion      ENuc            ....      8.0128922559 Eh

Convergence Acceleration:
 DIIS                   CNVDIIS         .... on
   Start iteration      DIISMaxIt       ....     0
   Startup error        DIISStart       ....  0.200000
   # of expansion vecs  DIISMaxEq       ....     5
   Bias factor          DIISBfac        ....   1.050
   Max. coefficient     DIISMaxC        ....  10.000
 Newton-Raphson         CNVNR           .... off
 SOSCF                  CNVSOSCF        .... off
 Level Shifting         CNVShift        .... off
 Zerner damping         CNVZerner       .... off
 Static damping         CNVDamp         .... off
 Fernandez-Rico         CNVRico         .... off

SCF Procedure:
 Maximum # iterations   MaxIter         ....   999
 SCF integral mode      SCFMode         .... Direct
   Integral package                     .... LIBINT
 Reset frequeny         DirectResetFreq ....    20
 Integral Threshold     Thresh          ....  1.000e-10 Eh
 Primitive CutOff       TCut            ....  1.000e-11 Eh

Convergence Tolerance:
 Convergence Check Mode ConvCheckMode   .... All-Criteria
 Convergence forced     ConvForced      .... 0
 Energy Change          TolE            ....  1.000e-06 Eh
 Max Density Change     TolMaxP         ....  1.000e-05
 RMS Density Change     TolRMSP         ....  1.000e-06
 DIIS Error             TolErr          ....  1.000e-06


Diagonalization of the overlap matrix:
Smallest eigenvalue                        ... 4.853e-02
Time for diagonalization                   ...    0.001 sec
Threshold for overlap eigenvalues          ... 1.000e-08
Number of eigenvalues below threshold      ... 0
Time for construction of square roots      ...    0.005 sec
Total time needed                          ...    0.006 sec

-------------------
DFT GRID GENERATION
-------------------

General Integration Accuracy     IntAcc      ...  4.340
Radial Grid Type                 RadialGrid  ... Gauss-Chebyshev
Angular Grid (max. acc.)         AngularGrid ... Lebedev-110
Angular grid pruning method      GridPruning ... 3 (G Style)
Weight generation scheme         WeightScheme... Becke
Basis function cutoff            BFCut       ...    1.0000e-10
Integration weight cutoff        WCut        ...    1.0000e-14
Grids for H and He will be reduced by one unit

# of grid points (after initial pruning)     ...   4152 (   0.0 sec)
# of grid points (after weights+screening)   ...   4120 (   0.0 sec)
nearest neighbour list constructed           ...    0.0 sec
Grid point re-assignment to atoms done       ...    0.0 sec
Grid point division into batches done        ...    0.0 sec
Reduced shell lists constructed in    0.0 sec

Total number of grid points                  ...     4120
Total number of batches                      ...       66
Average number of points per batch           ...       62
Average number of grid points per atom       ...     1373
Average number of shells per batch           ...     9.00 (64.29%)
Average number of basis functions per batch  ...    19.15 (63.83%)
Average number of large shells per batch     ...     7.03 (78.11%)
Average number of large basis fcns per batch ...    15.03 (78.49%)
Maximum spatial batch extension              ...  17.96, 25.60, 31.36 au
Average spatial batch extension              ...   5.38,  6.55,  6.84 au

Time for grid setup =    0.025 sec

------------------------------
INITIAL GUESS: MODEL POTENTIAL
------------------------------
Loading Hartree-Fock densities                     ... done
Calculating cut-offs                               ... done
Setting up the integral package                    ... done
Initializing the effective Hamiltonian             ... done
Starting the Coulomb interaction                   ... done (   0.0 sec)
Reading the grid                                   ... done
Mapping shells                                     ... done
Starting the XC term evaluation                    ... done (   0.0 sec)
  promolecular density results
     # of electrons  =     13.997297301
     EX              =    -11.613775240
     EC              =     -0.388697818
     EX+EC           =    -12.002473058
Transforming the Hamiltonian                       ... done (   0.0 sec)
Diagonalizing the Hamiltonian                      ... done (   0.0 sec)
Back transforming the eigenvectors                 ... done (   0.0 sec)
Now organizing SCF variables                       ... done
                      ------------------
                      INITIAL GUESS DONE (   0.1 sec)
                      ------------------
--------------
SCF ITERATIONS
--------------
ITER       Energy         Delta-E        Max-DP      RMS-DP      [F,P]   Gradient Norm
               ***  Starting incremental Fock matrix formation  ***
                             ****Resetting KDIIS****
                             ****Turning on KDIIS(Cayley)****
  0    -92.5001939981   0.000000000000 0.03675442  0.00295033  0.1524864   0.111908998
  1    -92.5273733241  -0.027179325959 0.03572944  0.00333968  0.1281601   0.095404587
  2    -92.5529733087  -0.025599984589 0.05881925  0.00551395  0.1042928   0.077026624
  3    -92.5831691463  -0.030195837678 0.08673156  0.00814583  0.0637478   0.046891249
  4    -92.6001931150  -0.017023968633 0.02050898  0.00138174  0.0081505   0.003932517
  5    -92.6005394862  -0.000346371252 0.05262782  0.00356736  0.0046983   0.002914132
  6    -92.5998089682   0.000730518002 0.09515513  0.00588782  0.0096760   0.004291264
  7    -92.6003022469  -0.000493278666 0.05460541  0.00366530  0.0045281   0.002365443
  8    -92.6003003010   0.000001945844 0.00202147  0.00016825  0.0009351   0.000682990
  9    -92.6003095643  -0.000009263261 0.00174570  0.00015444  0.0009520   0.000472053
 10    -92.6003059402   0.000003624096 0.00517014  0.00033019  0.0007181   0.000584378
 11    -92.6003080416  -0.000002101431 0.00102579  0.00007438  0.0005232   0.000255881
 12    -92.6003101158  -0.000002074170 0.00144896  0.00012616  0.0005220   0.000298087
 13    -92.6003054474   0.000004668378 0.00158627  0.00012942  0.0005238   0.000215832
 14    -92.6003094894  -0.000004041936 0.00540921  0.00040292  0.0005205   0.000211237
 15    -92.6003284660  -0.000018976654 0.00286240  0.00021343  0.0005077   0.000216448
 16    -92.6003383287  -0.000009862691 0.00266254  0.00019538  0.0005019   0.000221564
 17    -92.6003471345  -0.000008805830 0.09273182  0.00634747  0.0004949   0.000223238
 18    -92.6005468809  -0.000199746335 0.00144578  0.00008798  0.0008931   0.000424007
                          ***Energy convergence achieved***
 19    -92.6005475788  -0.000000697888 0.00840838  0.00055543  0.0001534   0.000101190
               *** Restarting incremental Fock matrix formation ***
                             ****Resetting KDIIS****
 20    -92.6005533598  -0.000005780985 0.00007892  0.00000580  0.0002642   0.000134227
                          ***Energy convergence achieved***
 21    -92.6005535146  -0.000000154862 0.00011434  0.00000667  0.0003085   0.000144545
 22    -92.6005533774   0.000000137251 0.00020108  0.00001737  0.0002483   0.000121506
 23    -92.6005532987   0.000000078681 0.00028653  0.00001741  0.0001481   0.000085570
 24    -92.6005532682   0.000000030508 0.00136161  0.00008204  0.0000784   0.000054380
 25    -92.6005530963   0.000000171908 0.00055976  0.00003903  0.0000808   0.000039301
 26    -92.6005532335  -0.000000137211 0.00019239  0.00001263  0.0000793   0.000032579

            ***Energy convergence in two consecutive cycles with***
                    ***'reasonable' density convergence***
                       *** signaling convergence ***

                    *** KDIIS BlockDiag ( 0.000 sec) ***

               *****************************************************
               *                     SUCCESS                       *
               *           SCF CONVERGED AFTER  27 CYCLES          *
               *****************************************************

Setting up the final grid:

General Integration Accuracy     IntAcc      ...  4.670
Radial Grid Type                 RadialGrid  ... Gauss-Chebyshev
Angular Grid (max. acc.)         AngularGrid ... Lebedev-302
Angular grid pruning method      GridPruning ... 3 (G Style)
Weight generation scheme         WeightScheme... Becke
Basis function cutoff            BFCut       ...    1.0000e-10
Integration weight cutoff        WCut        ...    1.0000e-14
Grids for H and He will be reduced by one unit

# of grid points (after initial pruning)     ...  15818 (   0.0 sec)
# of grid points (after weights+screening)   ...  15759 (   0.0 sec)
nearest neighbour list constructed           ...    0.0 sec
Grid point re-assignment to atoms done       ...    0.0 sec
Grid point division into batches done        ...    0.1 sec
Reduced shell lists constructed in    0.1 sec

Total number of grid points                  ...    15759
Total number of batches                      ...      247
Average number of points per batch           ...       63
Average number of grid points per atom       ...     5253
Average number of shells per batch           ...     7.78 (55.56%)
Average number of basis functions per batch  ...    16.39 (54.64%)
Average number of large shells per batch     ...     6.25 (80.40%)
Average number of large basis fcns per batch ...    13.44 (81.99%)
Maximum spatial batch extension              ...  19.46, 24.37, 24.37 au
Average spatial batch extension              ...   3.62,  4.33,  4.37 au

Final grid set up in    0.3 sec
Final integration                            ... done (   0.1 sec)
Change in XC energy                          ...     0.000479857
Integrated number of electrons               ...    14.000005437
Previous integrated no of electrons          ...    13.998911762

----------------
TOTAL SCF ENERGY
----------------

Total Energy       :          -92.60007348 Eh           -2519.77610 eV

Components:
Nuclear Repulsion  :            8.01289226 Eh             218.04188 eV
Electronic Energy  :         -100.61296573 Eh           -2737.81799 eV
One Electron Energy:         -141.05073757 Eh           -3838.18570 eV
Two Electron Energy:           40.43777183 Eh            1100.36771 eV

Virial components:
Potential Energy   :         -184.78016965 Eh           -5028.12404 eV
Kinetic Energy     :           92.18009618 Eh            2508.34794 eV
Virial Ratio       :            2.00455605


DFT components:
N(Alpha)           :        7.000002718619 electrons
N(Beta)            :        7.000002718619 electrons
N(Total)           :       14.000005437239 electrons
E(XC)              :       -8.500192197965 Eh       

---------------
SCF CONVERGENCE
---------------

  Last Energy change         ...   -1.0061e-07  Tolerance :   1.0000e-06
  Last MAX-Density change    ...    7.1656e-05  Tolerance :   1.0000e-05
  Last RMS-Density change    ...    6.3795e-06  Tolerance :   1.0000e-06
  Last DIIS Error            ...    7.7484e-05  Tolerance :   1.0000e-06

             **** THE GBW FILE WAS UPDATED (Scan_44.gbw) ****
             **** DENSITY FILE WAS UPDATED (Scan_44.scfp.tmp) ****
             **** ENERGY FILE WAS UPDATED (Scan_44.en.tmp) ****
----------------
ORBITAL ENERGIES
----------------

  NO   OCC          E(Eh)            E(eV) 
   0   2.0000     -14.141206      -384.8018 
   1   2.0000     -10.806114      -294.0493 
   2   2.0000      -1.060903       -28.8686 
   3   2.0000      -0.704350       -19.1663 
   4   2.0000      -0.465715       -12.6727 
   5   2.0000      -0.015466        -0.4208 
   6   2.0000      -0.013921        -0.3788 
   7   0.0000      -0.328849        -8.9484 
   8   0.0000      -0.328770        -8.9463 
   9   0.0000      -0.001531        -0.0417 
  10   0.0000       0.247983         6.7480 
  11   0.0000       0.407885        11.0991 
  12   0.0000       0.408039        11.1033 
  13   0.0000       0.450144        12.2490 
  14   0.0000       0.501105        13.6358 
  15   0.0000       0.714096        19.4315 
  16   0.0000       1.083863        29.4934 
  17   0.0000       1.084357        29.5069 
  18   0.0000       1.087286        29.5865 
  19   0.0000       1.168116        31.7861 
  20   0.0000       1.426008        38.8037 
  21   0.0000       1.426065        38.8052 
  22   0.0000       1.443998        39.2932 
  23   0.0000       1.444682        39.3118 
  24   0.0000       1.890226        51.4357 
  25   0.0000       2.150259        58.5115 
  26   0.0000       2.152143        58.5628 
  27   0.0000       2.152952        58.5848 
  28   0.0000       2.190113        59.5960 
  29   0.0000       2.190355        59.6026 

                    ********************************
                    * MULLIKEN POPULATION ANALYSIS *
                    ********************************

-----------------------
MULLIKEN ATOMIC CHARGES
-----------------------
   0 C :    0.680734
   1 N :   -0.998983
   2 H :    0.318249
Sum of atomic charges:   -0.0000000

--------------------------------
MULLIKEN REDUCED ORBITAL CHARGES
--------------------------------
  0 C s       :     3.969346  s :     3.969346
      pz      :     0.000002  p :     1.331932
      px      :     1.330774
      py      :     0.001157
      dz2     :     0.004497  d :     0.017988
      dxz     :     0.000000
      dyz     :     0.000000
      dx2y2   :     0.013444
      dxy     :     0.000047
  1 N s       :     3.999835  s :     3.999835
      pz      :     1.999988  p :     3.998916
      px      :     1.995676
      py      :     0.003252
      dz2     :     0.000061  d :     0.000232
      dxz     :     0.000011
      dyz     :     0.000000
      dx2y2   :     0.000160
      dxy     :     0.000001
  2 H s       :     0.681751  s :     0.681751


                     *******************************
                     * LOEWDIN POPULATION ANALYSIS *
                     *******************************

----------------------
LOEWDIN ATOMIC CHARGES
----------------------
   0 C :    0.783251
   1 N :   -0.998985
   2 H :    0.215733

-------------------------------
LOEWDIN REDUCED ORBITAL CHARGES
-------------------------------
  0 C s       :     3.789235  s :     3.789235
      pz      :     0.000001  p :     1.405202
      px      :     1.403981
      py      :     0.001220
      dz2     :     0.005577  d :     0.022311
      dxz     :     0.000000
      dyz     :     0.000000
      dx2y2   :     0.016676
      dxy     :     0.000059
  1 N s       :     3.999836  s :     3.999836
      pz      :     1.999988  p :     3.998916
      px      :     1.995676
      py      :     0.003252
      dz2     :     0.000061  d :     0.000232
      dxz     :     0.000011
      dyz     :     0.000000
      dx2y2   :     0.000160
      dxy     :     0.000001
  2 H s       :     0.784267  s :     0.784267


                      *****************************
                      * MAYER POPULATION ANALYSIS *
                      *****************************

  NA   - Mulliken gross atomic population
  ZA   - Total nuclear charge
  QA   - Mulliken gross atomic charge
  VA   - Mayer's total valence
  BVA  - Mayer's bonded valence
  FA   - Mayer's free valence

  ATOM       NA         ZA         QA         VA         BVA        FA
  0 C      5.3193     6.0000     0.6807     0.8314     0.8314     0.0000
  1 N      7.9990     7.0000    -0.9990     0.0020     0.0020    -0.0000
  2 H      0.6818     1.0000     0.3182     0.8313     0.8313    -0.0000

  Mayer bond orders larger than 0.1
B(  0-C ,  2-H ) :   0.8303 

-------
TIMINGS
-------

Total SCF time: 0 days 0 hours 0 min 8 sec 

Total time                  ....       8.786 sec
Sum of individual times     ....       8.471 sec  ( 96.4%)

Fock matrix formation       ....       8.028 sec  ( 91.4%)
  XC integration            ....       1.482 sec  ( 18.5% of F)
    Basis function eval.    ....       0.295 sec  ( 19.9% of XC)
    Density eval.           ....       0.060 sec  (  4.0% of XC)
    XC-Functional eval.     ....       0.396 sec  ( 26.7% of XC)
    XC-Potential eval.      ....       0.029 sec  (  1.9% of XC)
Diagonalization             ....       0.022 sec  (  0.2%)
Density matrix formation    ....       0.000 sec  (  0.0%)
Population analysis         ....       0.012 sec  (  0.1%)
Initial guess               ....       0.116 sec  (  1.3%)
Orbital Transformation      ....       0.000 sec  (  0.0%)
Orbital Orthonormalization  ....       0.000 sec  (  0.0%)
DIIS solution               ....       0.000 sec  (  0.0%)
Grid generation             ....       0.293 sec  (  3.3%)


-------------------------------------------------------------------------------
                          DFT DISPERSION CORRECTION                            
                                                                               
                              DFTD3 V3.1  Rev 1                                
                              USING zero damping                               
-------------------------------------------------------------------------------
The omegaB97X-D3 functional is recognized. Fit by Chai et al.
Active option DFTDOPT                   ...         3   

molecular C6(AA) [au] = 177.242015 


            DFT-D V3
 parameters
 s6 scaling factor         :     1.0000 
 rs6 scaling factor        :     1.2810 
 s8 scaling factor         :     1.0000 
 rs8 scaling factor        :     1.0940 
 Damping factor alpha6     :    14.0000 
 Damping factor alpha8     :    16.0000 
 ad hoc parameters k1-k3   :    16.0000     1.3333    -4.0000 

 Edisp/kcal,au: -0.043606696210  -0.000069491686 
 E6   /kcal   :  -0.033655594 
 E8   /kcal   :  -0.009951102 
 % E8         :  22.820123981 

-------------------------   ----------------
Dispersion correction           -0.000069492
-------------------------   ----------------


-------------------------   --------------------
FINAL SINGLE POINT ENERGY       -92.600142968959
-------------------------   --------------------


                            ***************************************
                            *     ORCA property calculations      *
                            ***************************************

                                    ---------------------
                                    Active property flags
                                    ---------------------
   (+) Dipole Moment


------------------------------------------------------------------------------
                       ORCA ELECTRIC PROPERTIES CALCULATION
------------------------------------------------------------------------------

Dipole Moment Calculation                       ... on
Quadrupole Moment Calculation                   ... off
Polarizability Calculation                      ... off
GBWName                                         ... Scan_44.gbw
Electron density file                           ... Scan_44.scfp.tmp

-------------
DIPOLE MOMENT
-------------
                                X             Y             Z
Electronic contribution:     -6.64393      -0.19675      -0.00000
Nuclear contribution   :     -3.37000      -0.09947       0.00000
                        -----------------------------------------
Total Dipole Moment    :    -10.01393      -0.29622      -0.00000
                        -----------------------------------------
Magnitude (a.u.)       :     10.01831
Magnitude (Debye)      :     25.46451


Timings for individual modules:

Sum of individual times         ...        9.137 sec (=   0.152 min)
GTO integral calculation        ...        0.329 sec (=   0.005 min)   3.6 %
SCF iterations                  ...        8.808 sec (=   0.147 min)  96.4 %
                             ****ORCA TERMINATED NORMALLY****
TOTAL RUN TIME: 0 days 0 hours 0 minutes 9 seconds 497 msec
