
                                 *****************
                                 * O   R   C   A *
                                 *****************

           --- An Ab Initio, DFT and Semiempirical electronic structure package ---

                  #######################################################
                  #                        -***-                        #
                  #  Department of molecular theory and spectroscopy    #
                  #              Directorship: Frank Neese              #
                  # Max Planck Institute for Chemical Energy Conversion #
                  #                  D-45470 Muelheim/Ruhr              #
                  #                       Germany                       #
                  #                                                     #
                  #                  All rights reserved                #
                  #                        -***-                        #
                  #######################################################


                         Program Version 4.0.0.2 - RELEASE -


 With contributions from (in alphabetic order):
   Daniel Aravena         : Magnetic Properties
   Michael Atanasov       : Ab Initio Ligand Field Theory
   Ute Becker             : Parallelization
   Martin Brehm           : Molecular dynamics
   Dmytro Bykov           : SCF Hessian
   Vijay G. Chilkuri      : MRCI spin determinant printing
   Dipayan Datta          : RHF DLPNO-CCSD density
   Achintya Kumar Dutta   : EOM-CC, STEOM-CC
   Dmitry Ganyushin       : Spin-Orbit,Spin-Spin,Magnetic field MRCI
   Yang Guo               : DLPNO-NEVPT2, CIM, IAO-localization
   Andreas Hansen         : Spin unrestricted coupled pair/coupled cluster methods
   Lee Huntington         : MR-EOM, pCC
   Robert Izsak           : Overlap fitted RIJCOSX, COSX-SCS-MP3, EOM
   Christian Kollmar      : KDIIS, OOCD, Brueckner-CCSD(T), CCSD density
   Simone Kossmann        : Meta GGA functionals, TD-DFT gradient, OOMP2, MP2 Hessian
   Martin Krupicka        : AUTO-CI
   Dagmar Lenk            : GEPOL surface
   Dimitrios Liakos       : Extrapolation schemes; parallel MDCI
   Dimitrios Manganas     : ROCIS; embedding schemes
   Dimitrios Pantazis     : SARC Basis sets
   Taras Petrenko         : DFT Hessian,TD-DFT gradient, ASA, ECA, R-Raman, ABS, FL, XAS/XES, NRVS
   Peter Pinski           : DLPNO-MP2
   Christoph Reimann      : Effective Core Potentials
   Marius Retegan         : Local ZFS, SOC
   Christoph Riplinger    : Optimizer, TS searches, QM/MM, DLPNO-CCSD(T), (RO)-DLPNO pert. Triples
   Tobias Risthaus        : Range-separated hybrids, TD-DFT gradient, RPA, STAB
   Michael Roemelt        : Restricted open shell CIS
   Masaaki Saitow         : Open-shell DLPNO
   Barbara Sandhoefer     : DKH picture change effects
   Kantharuban Sivalingam : CASSCF convergence, NEVPT2, FIC-MRCI
   Georgi Stoychev        : AutoAux
   Boris Wezisla          : Elementary symmetry handling
   Frank Wennmohs         : Technical directorship


 We gratefully acknowledge several colleagues who have allowed us to
 interface, adapt or use parts of their codes:
   Stefan Grimme, W. Hujo, H. Kruse,             : VdW corrections, initial TS optimization,
                  C. Bannwarth                     DFT functionals, gCP, sTDA/sTD-DF
   Ed Valeev                                     : LibInt (2-el integral package), F12 methods
   Garnet Chan, S. Sharma, J. Yang, R. Olivares  : DMRG
   Ulf Ekstrom                                   : XCFun DFT Library
   Mihaly Kallay                                 : mrcc  (arbitrary order and MRCC methods)
   Jiri Pittner, Ondrej Demel                    : Mk-CCSD
   Frank Weinhold                                : gennbo (NPA and NBO analysis)
   Christopher J. Cramer and Donald G. Truhlar   : smd solvation model


 Your calculation uses the libint2 library for the computation of 2-el integrals
 For citations please refer to: http://libint.valeyev.net

 This ORCA versions uses:
   CBLAS   interface :  Fast vector & matrix operations
   LAPACKE interface :  Fast linear algebra routines
   SCALAPACK package :  Parallel linear algebra routines


Your calculation utilizes the atom-pairwise dispersion correction
with the zero-damping scheme (D30)
Cite in your paper:
S.Grimme, J.Antony, S.Ehrlich and H.Krieg, J.Chem.Phys., 132, (2010), 154104 
   

XCFun DFT library Copyright 2009-2010 Ulf Ekstrom and contributors.
See http://admol.org/xcfun for more information. This is free soft-
ware; see the source code for copying conditions. There is ABSOLUTELY
NO WARRANTY; not even for MERCHANTABILITY or FITNESS FOR A PARTICULAR
PURPOSE. For details see the documentation. Scientific users of this 
library should cite U. Ekstrom, L. Visscher, R. Bast, A. J. Thorvald-
sen and K. Ruud; J.Chem.Theor.Comp. 2010, DOI: 10.1021/ct100117s
XCFun Version 0.99 
Your calculation utilizes the basis: 6-31G(d)
   H-He, Li-Ne : W. J. Hehre, R. Ditchfield and J.A. Pople, J. Chem. Phys. 56, 2257 (1972).
                 Note: He and Ne are unpublished basis sets taken from the Gaussian program.
                 Note: Li and B from J. D. Dill and J. A. Pople, J. Chem. Phys. 62, 2921 (1975).
   Na - Ar     : M. M. Francl, W. J. Pietro, W. J. Hehre, J. S. Binkley, M. S. Gordon, 
                 D. J. DeFrees and J. A. Pople, J. Chem. Phys. 77, 3654 (1982).
   K - Zn      : V. A. Rassolov, J. A. Pople, M. A. Ratner, and T. L. Windus, J. Chem. Phys. 109, 1223 (1998).

================================================================================
                                        WARNINGS
                       Please study these warnings very carefully!
================================================================================

Warning: TCutStore was < 0. Adjusted to Thresh (uncritical)

INFO   : the flag for use of LIBINT has been found!

================================================================================
                                       INPUT FILE
================================================================================
NAME = initial45.inp
|  1> ! WB97X-D3 6-31G(d) VerySlowConv
|  2> ! KDIIS NOSOSCF
|  3> %base "Scan_45"
|  4> 
|  5> %scf
|  6> maxiter 999
|  7> end
|  8> 
|  9> * xyz 0 1
| 10> C         -4.775834538343    0.362478731095    0.000000000000
| 11> N          0.222106577962    0.510215137055    0.000000000000
| 12> H         -5.886052039618    0.329836131851   -0.000000000000
| 13> **                         ****END OF INPUT****
================================================================================

                       ****************************
                       * Single Point Calculation *
                       ****************************

---------------------------------
CARTESIAN COORDINATES (ANGSTROEM)
---------------------------------
  C     -4.775835    0.362479    0.000000
  N      0.222107    0.510215    0.000000
  H     -5.886052    0.329836   -0.000000

----------------------------
CARTESIAN COORDINATES (A.U.)
----------------------------
  NO LB      ZA    FRAG     MASS         X           Y           Z
   0 C     6.0000    0    12.011   -9.025019    0.684986    0.000000
   1 N     7.0000    0    14.007    0.419721    0.964167    0.000000
   2 H     1.0000    0     1.008  -11.123026    0.623300   -0.000000

--------------------------------
INTERNAL COORDINATES (ANGSTROEM)
--------------------------------
 C      0   0   0     0.000000000000     0.00000000     0.00000000
 N      1   0   0     5.000124143229     0.00000000     0.00000000
 H      1   2   0     1.110697276229   179.99098563     0.00000000

---------------------------
INTERNAL COORDINATES (A.U.)
---------------------------
 C      0   0   0     0.000000000000     0.00000000     0.00000000
 N      1   0   0     9.448865266310     0.00000000     0.00000000
 H      1   2   0     2.098913669765   179.99098563     0.00000000

---------------------
BASIS SET INFORMATION
---------------------
There are 3 groups of distinct atoms

 Group   1 Type C   : 10s4p1d contracted to 3s2p1d pattern {631/31/1}
 Group   2 Type N   : 10s4p1d contracted to 3s2p1d pattern {631/31/1}
 Group   3 Type H   : 4s contracted to 2s pattern {31}

Atom   0C    basis set group =>   1
Atom   1N    basis set group =>   2
Atom   2H    basis set group =>   3
------------------------------------------------------------------------------
                           ORCA GTO INTEGRAL CALCULATION
------------------------------------------------------------------------------

                         BASIS SET STATISTICS AND STARTUP INFO

 # of primitive gaussian shells          ...   34
 # of primitive gaussian functions       ...   58
 # of contracted shells                  ...   14
 # of contracted basis functions         ...   30
 Highest angular momentum                ...    2
 Maximum contraction depth               ...    6
 Integral package used                   ... LIBINT
 Integral threshhold            Thresh   ...  1.000e-10
 Primitive cut-off              TCut     ...  1.000e-11


------------------------------ INTEGRAL EVALUATION ----------------------------


 * One electron integrals 
 Pre-screening matrix                    ... done
 Shell pair data                         ... done (   0.000 sec)

-------------------------------------------------------------------------------
                                 ORCA SCF
-------------------------------------------------------------------------------

------------
SCF SETTINGS
------------
Hamiltonian:
 Density Functional     Method          .... DFT(GTOs)
 Exchange Functional    Exchange        .... WB97X-D3
 Correlation Functional Correlation     .... WB97X-D3
 Gradients option       PostSCFGGA      .... off
 Hybrid DFT is turned on
   Fraction HF Exchange ScalHFX         ....  0.195728
   Scaling of DF-GGA-X  ScalDFX         ....  0.000000
   Scaling of DF-GGA-C  ScalDFC         ....  1.000000
   Scaling of DF-LDA-C  ScalLDAC        ....  1.000000
   Perturbative correction              ....  0.000000
 Long-range corrected/Screened/Range-Separated Hybrid DFT is turned on
   Amount of maximum screened exact exchange              ....  0.804272
   Range separation parameter mu (erf(mu*r12)/r12)        ....  0.250000


General Settings:
 Integral files         IntName         .... Scan_45
 Hartree-Fock type      HFTyp           .... RHF
 Total Charge           Charge          ....    0
 Multiplicity           Mult            ....    1
 Number of Electrons    NEL             ....   14
 Basis Dimension        Dim             ....   30
 Nuclear Repulsion      ENuc            ....      7.9097769843 Eh

Convergence Acceleration:
 DIIS                   CNVDIIS         .... on
   Start iteration      DIISMaxIt       ....     0
   Startup error        DIISStart       ....  0.200000
   # of expansion vecs  DIISMaxEq       ....     5
   Bias factor          DIISBfac        ....   1.050
   Max. coefficient     DIISMaxC        ....  10.000
 Newton-Raphson         CNVNR           .... off
 SOSCF                  CNVSOSCF        .... off
 Level Shifting         CNVShift        .... off
 Zerner damping         CNVZerner       .... off
 Static damping         CNVDamp         .... off
 Fernandez-Rico         CNVRico         .... off

SCF Procedure:
 Maximum # iterations   MaxIter         ....   999
 SCF integral mode      SCFMode         .... Direct
   Integral package                     .... LIBINT
 Reset frequeny         DirectResetFreq ....    20
 Integral Threshold     Thresh          ....  1.000e-10 Eh
 Primitive CutOff       TCut            ....  1.000e-11 Eh

Convergence Tolerance:
 Convergence Check Mode ConvCheckMode   .... All-Criteria
 Convergence forced     ConvForced      .... 0
 Energy Change          TolE            ....  1.000e-06 Eh
 Max Density Change     TolMaxP         ....  1.000e-05
 RMS Density Change     TolRMSP         ....  1.000e-06
 DIIS Error             TolErr          ....  1.000e-06


Diagonalization of the overlap matrix:
Smallest eigenvalue                        ... 4.853e-02
Time for diagonalization                   ...    0.001 sec
Threshold for overlap eigenvalues          ... 1.000e-08
Number of eigenvalues below threshold      ... 0
Time for construction of square roots      ...    0.004 sec
Total time needed                          ...    0.005 sec

-------------------
DFT GRID GENERATION
-------------------

General Integration Accuracy     IntAcc      ...  4.340
Radial Grid Type                 RadialGrid  ... Gauss-Chebyshev
Angular Grid (max. acc.)         AngularGrid ... Lebedev-110
Angular grid pruning method      GridPruning ... 3 (G Style)
Weight generation scheme         WeightScheme... Becke
Basis function cutoff            BFCut       ...    1.0000e-10
Integration weight cutoff        WCut        ...    1.0000e-14
Grids for H and He will be reduced by one unit

# of grid points (after initial pruning)     ...   4152 (   0.0 sec)
# of grid points (after weights+screening)   ...   4121 (   0.0 sec)
nearest neighbour list constructed           ...    0.0 sec
Grid point re-assignment to atoms done       ...    0.0 sec
Grid point division into batches done        ...    0.0 sec
Reduced shell lists constructed in    0.0 sec

Total number of grid points                  ...     4121
Total number of batches                      ...       66
Average number of points per batch           ...       62
Average number of grid points per atom       ...     1374
Average number of shells per batch           ...     8.85 (63.22%)
Average number of basis functions per batch  ...    18.73 (62.44%)
Average number of large shells per batch     ...     6.99 (78.92%)
Average number of large basis fcns per batch ...    14.93 (79.68%)
Maximum spatial batch extension              ...  17.96, 25.60, 31.36 au
Average spatial batch extension              ...   5.41,  6.53,  6.80 au

Time for grid setup =    0.047 sec

------------------------------
INITIAL GUESS: MODEL POTENTIAL
------------------------------
Loading Hartree-Fock densities                     ... done
Calculating cut-offs                               ... done
Setting up the integral package                    ... done
Initializing the effective Hamiltonian             ... done
Starting the Coulomb interaction                   ... done (   0.0 sec)
Reading the grid                                   ... done
Mapping shells                                     ... done
Starting the XC term evaluation                    ... done (   0.0 sec)
  promolecular density results
     # of electrons  =     13.997305487
     EX              =    -11.613789586
     EC              =     -0.388698439
     EX+EC           =    -12.002488025
Transforming the Hamiltonian                       ... done (   0.0 sec)
Diagonalizing the Hamiltonian                      ... done (   0.0 sec)
Back transforming the eigenvectors                 ... done (   0.0 sec)
Now organizing SCF variables                       ... done
                      ------------------
                      INITIAL GUESS DONE (   0.2 sec)
                      ------------------
--------------
SCF ITERATIONS
--------------
ITER       Energy         Delta-E        Max-DP      RMS-DP      [F,P]   Gradient Norm
               ***  Starting incremental Fock matrix formation  ***
                             ****Resetting KDIIS****
                             ****Turning on KDIIS(Cayley)****
  0    -92.4983419692   0.000000000000 0.03676265  0.00292787  0.1525258   0.111895904
  1    -92.5254245353  -0.027082566065 0.03527755  0.00331593  0.1282616   0.095444283
  2    -92.5509009001  -0.025476364869 0.05867712  0.00545344  0.1046459   0.077181608
  3    -92.5810591125  -0.030158212367 0.08592906  0.00808389  0.0641529   0.047034655
  4    -92.5983453945  -0.017286281977 0.01616046  0.00108202  0.0067656   0.003475894
  5    -92.5985754618  -0.000230067299 0.00663826  0.00050673  0.0039269   0.002531219
  6    -92.5985042054   0.000071256381 0.03736786  0.00259487  0.0047824   0.002466772
  7    -92.5988979405  -0.000393735058 0.00218992  0.00020454  0.0042028   0.001816544
  8    -92.5989321737  -0.000034233234 0.06407562  0.00393347  0.0042211   0.001981283
  9    -92.5985075895   0.000424584194 0.04109687  0.00252627  0.0022219   0.001455587
 10    -92.5984508700   0.000056719466 0.00515842  0.00034180  0.0011035   0.000618268
 11    -92.5984671137  -0.000016243647 0.00797462  0.00052816  0.0019086   0.000805699
 12    -92.5984493488   0.000017764855 0.00254801  0.00019503  0.0005125   0.000247299
 13    -92.5984538532  -0.000004504355 0.00156248  0.00012818  0.0005085   0.000224746
 14    -92.5984592246  -0.000005371382 0.00234853  0.00017642  0.0005049   0.000206107
 15    -92.5984673325  -0.000008107945 0.00615682  0.00046613  0.0005008   0.000203751
 16    -92.5984882462  -0.000020913659 0.00009997  0.00000847  0.0004876   0.000205846
                          ***Energy convergence achieved***
 17    -92.5984880025   0.000000243629 0.00311400  0.00023236  0.0004877   0.000206115
 18    -92.5984982463  -0.000010243751 0.00396466  0.00029941  0.0004809   0.000210989
 19    -92.5985109379  -0.000012691606 0.00398356  0.00029291  0.0004714   0.000212062
               *** Restarting incremental Fock matrix formation ***
                             ****Resetting KDIIS****
 20    -92.5984981420   0.000012795841 0.00010694  0.00000855  0.0004807   0.000212341
                          ***Energy convergence achieved***
 21    -92.5984985594  -0.000000417316 0.00008155  0.00000687  0.0004805   0.000216333
 22    -92.5984987028  -0.000000143471 0.00060088  0.00004476  0.0004803   0.000208694
 23    -92.5985005391  -0.000001836260 0.02306932  0.00166481  0.0004788   0.000200044
 24    -92.5985698592  -0.000069320097 0.00444823  0.00032578  0.0004149   0.000190112
 25    -92.5985823862  -0.000012526970 0.00638351  0.00044887  0.0004014   0.000184644
 26    -92.5985982552  -0.000015869007 0.06274029  0.00421177  0.0003774   0.000204433
 27    -92.5986965326  -0.000098277450 0.00360582  0.00022742  0.0006225   0.000313648
                          ***Energy convergence achieved***
 28    -92.5986955390   0.000000993584 0.00328369  0.00021698  0.0003490   0.000152744
 29    -92.5986971156  -0.000001576542 0.01462761  0.00095711  0.0001385   0.000100656
 30    -92.5987019361  -0.000004820529 0.00028407  0.00002077  0.0001296   0.000076390
                          ***Energy convergence achieved***
 31    -92.5987019104   0.000000025718 0.00139853  0.00009301  0.0001005   0.000076385
 32    -92.5987018074   0.000000103006 0.00449119  0.00029328  0.0000658   0.000049116
 33    -92.5987019533  -0.000000145961 0.00017767  0.00001318  0.0000210   0.000016644
 34    -92.5987019620  -0.000000008688 0.00011193  0.00000708  0.0000257   0.000013350
 35    -92.5987019537   0.000000008316 0.00038162  0.00002516  0.0000214   0.000013464
 36    -92.5987019740  -0.000000020251 0.00067905  0.00004563  0.0000236   0.000013876

            ***Energy convergence in two consecutive cycles with***
                    ***'reasonable' density convergence***
                       *** signaling convergence ***

                    *** KDIIS BlockDiag ( 0.000 sec) ***

               *****************************************************
               *                     SUCCESS                       *
               *           SCF CONVERGED AFTER  37 CYCLES          *
               *****************************************************

Setting up the final grid:

General Integration Accuracy     IntAcc      ...  4.670
Radial Grid Type                 RadialGrid  ... Gauss-Chebyshev
Angular Grid (max. acc.)         AngularGrid ... Lebedev-302
Angular grid pruning method      GridPruning ... 3 (G Style)
Weight generation scheme         WeightScheme... Becke
Basis function cutoff            BFCut       ...    1.0000e-10
Integration weight cutoff        WCut        ...    1.0000e-14
Grids for H and He will be reduced by one unit

# of grid points (after initial pruning)     ...  15818 (   0.0 sec)
# of grid points (after weights+screening)   ...  15761 (   0.0 sec)
nearest neighbour list constructed           ...    0.0 sec
Grid point re-assignment to atoms done       ...    0.0 sec
Grid point division into batches done        ...    0.3 sec
Reduced shell lists constructed in    0.4 sec

Total number of grid points                  ...    15761
Total number of batches                      ...      247
Average number of points per batch           ...       63
Average number of grid points per atom       ...     5254
Average number of shells per batch           ...     7.73 (55.24%)
Average number of basis functions per batch  ...    16.25 (54.17%)
Average number of large shells per batch     ...     6.21 (80.34%)
Average number of large basis fcns per batch ...    13.37 (82.26%)
Maximum spatial batch extension              ...  19.66, 24.37, 24.37 au
Average spatial batch extension              ...   3.59,  4.36,  4.38 au

Final grid set up in    0.4 sec
Final integration                            ... done (   0.2 sec)
Change in XC energy                          ...     0.000510901
Integrated number of electrons               ...    14.000008404
Previous integrated no of electrons          ...    13.998935193

----------------
TOTAL SCF ENERGY
----------------

Total Energy       :          -92.59819103 Eh           -2519.72488 eV

Components:
Nuclear Repulsion  :            7.90977698 Eh             215.23597 eV
Electronic Energy  :         -100.50796801 Eh           -2734.96085 eV
One Electron Energy:         -140.84271413 Eh           -3832.52509 eV
Two Electron Energy:           40.33474612 Eh            1097.56424 eV

Virial components:
Potential Energy   :         -184.77750576 Eh           -5028.05155 eV
Kinetic Energy     :           92.17931474 Eh            2508.32667 eV
Virial Ratio       :            2.00454415


DFT components:
N(Alpha)           :        7.000004202013 electrons
N(Beta)            :        7.000004202013 electrons
N(Total)           :       14.000008404027 electrons
E(XC)              :       -8.500243561065 Eh       

---------------
SCF CONVERGENCE
---------------

  Last Energy change         ...    4.6561e-08  Tolerance :   1.0000e-06
  Last MAX-Density change    ...    4.0198e-05  Tolerance :   1.0000e-05
  Last RMS-Density change    ...    2.8199e-06  Tolerance :   1.0000e-06
  Last DIIS Error            ...    1.4693e-05  Tolerance :   1.0000e-06

             **** THE GBW FILE WAS UPDATED (Scan_45.gbw) ****
             **** DENSITY FILE WAS UPDATED (Scan_45.scfp.tmp) ****
             **** ENERGY FILE WAS UPDATED (Scan_45.en.tmp) ****
----------------
ORBITAL ENERGIES
----------------

  NO   OCC          E(Eh)            E(eV) 
   0   2.0000     -14.139159      -384.7461 
   1   2.0000     -10.808482      -294.1137 
   2   2.0000      -1.063037       -28.9267 
   3   2.0000      -0.706888       -19.2354 
   4   2.0000      -0.463710       -12.6182 
   5   2.0000      -0.013458        -0.3662 
   6   2.0000      -0.011957        -0.3254 
   7   0.0000      -0.331124        -9.0103 
   8   0.0000      -0.331052        -9.0084 
   9   0.0000      -0.003325        -0.0905 
  10   0.0000       0.249950         6.8015 
  11   0.0000       0.405655        11.0384 
  12   0.0000       0.405795        11.0422 
  13   0.0000       0.447088        12.1659 
  14   0.0000       0.498861        13.5747 
  15   0.0000       0.712225        19.3806 
  16   0.0000       1.085916        29.5493 
  17   0.0000       1.086194        29.5568 
  18   0.0000       1.089220        29.6392 
  19   0.0000       1.170022        31.8379 
  20   0.0000       1.423610        38.7384 
  21   0.0000       1.423663        38.7398 
  22   0.0000       1.441715        39.2310 
  23   0.0000       1.442397        39.2496 
  24   0.0000       1.887854        51.3711 
  25   0.0000       2.152240        58.5654 
  26   0.0000       2.154132        58.6169 
  27   0.0000       2.154916        58.6382 
  28   0.0000       2.192103        59.6501 
  29   0.0000       2.192365        59.6573 

                    ********************************
                    * MULLIKEN POPULATION ANALYSIS *
                    ********************************

-----------------------
MULLIKEN ATOMIC CHARGES
-----------------------
   0 C :    0.679713
   1 N :   -0.999388
   2 H :    0.319676
Sum of atomic charges:   -0.0000000

--------------------------------
MULLIKEN REDUCED ORBITAL CHARGES
--------------------------------
  0 C s       :     3.968581  s :     3.968581
      pz      :     0.000001  p :     1.333767
      px      :     1.332607
      py      :     0.001158
      dz2     :     0.004485  d :     0.017939
      dxz     :     0.000000
      dyz     :     0.000000
      dx2y2   :     0.013407
      dxy     :     0.000047
  1 N s       :     3.999835  s :     3.999835
      pz      :     1.999989  p :     3.999323
      px      :     1.998720
      py      :     0.000614
      dz2     :     0.000060  d :     0.000231
      dxz     :     0.000010
      dyz     :     0.000000
      dx2y2   :     0.000160
      dxy     :     0.000000
  2 H s       :     0.680324  s :     0.680324


                     *******************************
                     * LOEWDIN POPULATION ANALYSIS *
                     *******************************

----------------------
LOEWDIN ATOMIC CHARGES
----------------------
   0 C :    0.782771
   1 N :   -0.999390
   2 H :    0.216620

-------------------------------
LOEWDIN REDUCED ORBITAL CHARGES
-------------------------------
  0 C s       :     3.788773  s :     3.788773
      pz      :     0.000001  p :     1.406222
      px      :     1.405000
      py      :     0.001221
      dz2     :     0.005558  d :     0.022234
      dxz     :     0.000000
      dyz     :     0.000000
      dx2y2   :     0.016617
      dxy     :     0.000058
  1 N s       :     3.999836  s :     3.999836
      pz      :     1.999989  p :     3.999324
      px      :     1.998721
      py      :     0.000614
      dz2     :     0.000060  d :     0.000231
      dxz     :     0.000010
      dyz     :     0.000000
      dx2y2   :     0.000160
      dxy     :     0.000000
  2 H s       :     0.783380  s :     0.783380


                      *****************************
                      * MAYER POPULATION ANALYSIS *
                      *****************************

  NA   - Mulliken gross atomic population
  ZA   - Total nuclear charge
  QA   - Mulliken gross atomic charge
  VA   - Mayer's total valence
  BVA  - Mayer's bonded valence
  FA   - Mayer's free valence

  ATOM       NA         ZA         QA         VA         BVA        FA
  0 C      5.3203     6.0000     0.6797     0.8310     0.8310     0.0000
  1 N      7.9994     7.0000    -0.9994     0.0012     0.0012    -0.0000
  2 H      0.6803     1.0000     0.3197     0.8308     0.8308     0.0000

  Mayer bond orders larger than 0.1
B(  0-C ,  2-H ) :   0.8303 

-------
TIMINGS
-------

Total SCF time: 0 days 0 hours 0 min 35 sec 

Total time                  ....      35.164 sec
Sum of individual times     ....      33.545 sec  ( 95.4%)

Fock matrix formation       ....      32.677 sec  ( 92.9%)
  XC integration            ....       5.816 sec  ( 17.8% of F)
    Basis function eval.    ....       0.716 sec  ( 12.3% of XC)
    Density eval.           ....       0.167 sec  (  2.9% of XC)
    XC-Functional eval.     ....       1.116 sec  ( 19.2% of XC)
    XC-Potential eval.      ....       0.043 sec  (  0.7% of XC)
Diagonalization             ....       0.202 sec  (  0.6%)
Density matrix formation    ....       0.000 sec  (  0.0%)
Population analysis         ....       0.008 sec  (  0.0%)
Initial guess               ....       0.181 sec  (  0.5%)
Orbital Transformation      ....       0.000 sec  (  0.0%)
Orbital Orthonormalization  ....       0.000 sec  (  0.0%)
DIIS solution               ....       0.000 sec  (  0.0%)
Grid generation             ....       0.475 sec  (  1.4%)


-------------------------------------------------------------------------------
                          DFT DISPERSION CORRECTION                            
                                                                               
                              DFTD3 V3.1  Rev 1                                
                              USING zero damping                               
-------------------------------------------------------------------------------
The omegaB97X-D3 functional is recognized. Fit by Chai et al.
Active option DFTDOPT                   ...         3   

molecular C6(AA) [au] = 177.242059 


            DFT-D V3
 parameters
 s6 scaling factor         :     1.0000 
 rs6 scaling factor        :     1.2810 
 s8 scaling factor         :     1.0000 
 rs8 scaling factor        :     1.0940 
 Damping factor alpha6     :    14.0000 
 Damping factor alpha8     :    16.0000 
 ad hoc parameters k1-k3   :    16.0000     1.3333    -4.0000 

 Edisp/kcal,au: -0.038555138274  -0.000061441517 
 E6   /kcal   :  -0.030100649 
 E8   /kcal   :  -0.008454489 
 % E8         :  21.928306776 

-------------------------   ----------------
Dispersion correction           -0.000061442
-------------------------   ----------------


-------------------------   --------------------
FINAL SINGLE POINT ENERGY       -92.598252467435
-------------------------   --------------------


                            ***************************************
                            *     ORCA property calculations      *
                            ***************************************

                                    ---------------------
                                    Active property flags
                                    ---------------------
   (+) Dipole Moment


------------------------------------------------------------------------------
                       ORCA ELECTRIC PROPERTIES CALCULATION
------------------------------------------------------------------------------

Dipole Moment Calculation                       ... on
Quadrupole Moment Calculation                   ... off
Polarizability Calculation                      ... off
GBWName                                         ... Scan_45.gbw
Electron density file                           ... Scan_45.scfp.tmp

-------------
DIPOLE MOMENT
-------------
                                X             Y             Z
Electronic contribution:     -6.79675      -0.20074      -0.00000
Nuclear contribution   :     -3.41943      -0.10092       0.00000
                        -----------------------------------------
Total Dipole Moment    :    -10.21617      -0.30166      -0.00000
                        -----------------------------------------
Magnitude (a.u.)       :     10.22063
Magnitude (Debye)      :     25.97877


Timings for individual modules:

Sum of individual times         ...       36.783 sec (=   0.613 min)
GTO integral calculation        ...        1.517 sec (=   0.025 min)   4.1 %
SCF iterations                  ...       35.266 sec (=   0.588 min)  95.9 %
                             ****ORCA TERMINATED NORMALLY****
TOTAL RUN TIME: 0 days 0 hours 0 minutes 37 seconds 846 msec
