
                                 *****************
                                 * O   R   C   A *
                                 *****************

           --- An Ab Initio, DFT and Semiempirical electronic structure package ---

                  #######################################################
                  #                        -***-                        #
                  #  Department of molecular theory and spectroscopy    #
                  #              Directorship: Frank Neese              #
                  # Max Planck Institute for Chemical Energy Conversion #
                  #                  D-45470 Muelheim/Ruhr              #
                  #                       Germany                       #
                  #                                                     #
                  #                  All rights reserved                #
                  #                        -***-                        #
                  #######################################################


                         Program Version 4.0.0.2 - RELEASE -


 With contributions from (in alphabetic order):
   Daniel Aravena         : Magnetic Properties
   Michael Atanasov       : Ab Initio Ligand Field Theory
   Ute Becker             : Parallelization
   Martin Brehm           : Molecular dynamics
   Dmytro Bykov           : SCF Hessian
   Vijay G. Chilkuri      : MRCI spin determinant printing
   Dipayan Datta          : RHF DLPNO-CCSD density
   Achintya Kumar Dutta   : EOM-CC, STEOM-CC
   Dmitry Ganyushin       : Spin-Orbit,Spin-Spin,Magnetic field MRCI
   Yang Guo               : DLPNO-NEVPT2, CIM, IAO-localization
   Andreas Hansen         : Spin unrestricted coupled pair/coupled cluster methods
   Lee Huntington         : MR-EOM, pCC
   Robert Izsak           : Overlap fitted RIJCOSX, COSX-SCS-MP3, EOM
   Christian Kollmar      : KDIIS, OOCD, Brueckner-CCSD(T), CCSD density
   Simone Kossmann        : Meta GGA functionals, TD-DFT gradient, OOMP2, MP2 Hessian
   Martin Krupicka        : AUTO-CI
   Dagmar Lenk            : GEPOL surface
   Dimitrios Liakos       : Extrapolation schemes; parallel MDCI
   Dimitrios Manganas     : ROCIS; embedding schemes
   Dimitrios Pantazis     : SARC Basis sets
   Taras Petrenko         : DFT Hessian,TD-DFT gradient, ASA, ECA, R-Raman, ABS, FL, XAS/XES, NRVS
   Peter Pinski           : DLPNO-MP2
   Christoph Reimann      : Effective Core Potentials
   Marius Retegan         : Local ZFS, SOC
   Christoph Riplinger    : Optimizer, TS searches, QM/MM, DLPNO-CCSD(T), (RO)-DLPNO pert. Triples
   Tobias Risthaus        : Range-separated hybrids, TD-DFT gradient, RPA, STAB
   Michael Roemelt        : Restricted open shell CIS
   Masaaki Saitow         : Open-shell DLPNO
   Barbara Sandhoefer     : DKH picture change effects
   Kantharuban Sivalingam : CASSCF convergence, NEVPT2, FIC-MRCI
   Georgi Stoychev        : AutoAux
   Boris Wezisla          : Elementary symmetry handling
   Frank Wennmohs         : Technical directorship


 We gratefully acknowledge several colleagues who have allowed us to
 interface, adapt or use parts of their codes:
   Stefan Grimme, W. Hujo, H. Kruse,             : VdW corrections, initial TS optimization,
                  C. Bannwarth                     DFT functionals, gCP, sTDA/sTD-DF
   Ed Valeev                                     : LibInt (2-el integral package), F12 methods
   Garnet Chan, S. Sharma, J. Yang, R. Olivares  : DMRG
   Ulf Ekstrom                                   : XCFun DFT Library
   Mihaly Kallay                                 : mrcc  (arbitrary order and MRCC methods)
   Jiri Pittner, Ondrej Demel                    : Mk-CCSD
   Frank Weinhold                                : gennbo (NPA and NBO analysis)
   Christopher J. Cramer and Donald G. Truhlar   : smd solvation model


 Your calculation uses the libint2 library for the computation of 2-el integrals
 For citations please refer to: http://libint.valeyev.net

 This ORCA versions uses:
   CBLAS   interface :  Fast vector & matrix operations
   LAPACKE interface :  Fast linear algebra routines
   SCALAPACK package :  Parallel linear algebra routines


Your calculation utilizes the atom-pairwise dispersion correction
with the zero-damping scheme (D30)
Cite in your paper:
S.Grimme, J.Antony, S.Ehrlich and H.Krieg, J.Chem.Phys., 132, (2010), 154104 
   

XCFun DFT library Copyright 2009-2010 Ulf Ekstrom and contributors.
See http://admol.org/xcfun for more information. This is free soft-
ware; see the source code for copying conditions. There is ABSOLUTELY
NO WARRANTY; not even for MERCHANTABILITY or FITNESS FOR A PARTICULAR
PURPOSE. For details see the documentation. Scientific users of this 
library should cite U. Ekstrom, L. Visscher, R. Bast, A. J. Thorvald-
sen and K. Ruud; J.Chem.Theor.Comp. 2010, DOI: 10.1021/ct100117s
XCFun Version 0.99 
Your calculation utilizes the basis: 6-31G(d)
   H-He, Li-Ne : W. J. Hehre, R. Ditchfield and J.A. Pople, J. Chem. Phys. 56, 2257 (1972).
                 Note: He and Ne are unpublished basis sets taken from the Gaussian program.
                 Note: Li and B from J. D. Dill and J. A. Pople, J. Chem. Phys. 62, 2921 (1975).
   Na - Ar     : M. M. Francl, W. J. Pietro, W. J. Hehre, J. S. Binkley, M. S. Gordon, 
                 D. J. DeFrees and J. A. Pople, J. Chem. Phys. 77, 3654 (1982).
   K - Zn      : V. A. Rassolov, J. A. Pople, M. A. Ratner, and T. L. Windus, J. Chem. Phys. 109, 1223 (1998).

================================================================================
                                        WARNINGS
                       Please study these warnings very carefully!
================================================================================

Warning: TCutStore was < 0. Adjusted to Thresh (uncritical)

INFO   : the flag for use of LIBINT has been found!

================================================================================
                                       INPUT FILE
================================================================================
NAME = initial5.inp
|  1> ! WB97X-D3 6-31G(d) VerySlowConv
|  2> ! KDIIS NOSOSCF
|  3> %base "Scan_5"
|  4> 
|  5> %scf
|  6> maxiter 999
|  7> end
|  8> 
|  9> * xyz 0 1
| 10> C         -3.487577748158    0.400617149134    0.000000000000
| 11> N         -2.403219068294    0.432659009812    0.000000000000
| 12> H         -4.548983183547    0.369253841054   -0.000000000000
| 13> **                         ****END OF INPUT****
================================================================================

                       ****************************
                       * Single Point Calculation *
                       ****************************

---------------------------------
CARTESIAN COORDINATES (ANGSTROEM)
---------------------------------
  C     -3.487578    0.400617    0.000000
  N     -2.403219    0.432659    0.000000
  H     -4.548983    0.369254   -0.000000

----------------------------
CARTESIAN COORDINATES (A.U.)
----------------------------
  NO LB      ZA    FRAG     MASS         X           Y           Z
   0 C     6.0000    0    12.011   -6.590567    0.757057    0.000000
   1 N     7.0000    0    14.007   -4.541426    0.817607    0.000000
   2 H     1.0000    0     1.008   -8.596332    0.697789   -0.000000

--------------------------------
INTERNAL COORDINATES (ANGSTROEM)
--------------------------------
 C      0   0   0     0.000000000000     0.00000000     0.00000000
 N      1   0   0     1.084831981199     0.00000000     0.00000000
 H      1   2   0     1.061868709101   179.99998362     0.00000000

---------------------------
INTERNAL COORDINATES (A.U.)
---------------------------
 C      0   0   0     0.000000000000     0.00000000     0.00000000
 N      1   0   0     2.050035345785     0.00000000     0.00000000
 H      1   2   0     2.006641050381   179.99998362     0.00000000

---------------------
BASIS SET INFORMATION
---------------------
There are 3 groups of distinct atoms

 Group   1 Type C   : 10s4p1d contracted to 3s2p1d pattern {631/31/1}
 Group   2 Type N   : 10s4p1d contracted to 3s2p1d pattern {631/31/1}
 Group   3 Type H   : 4s contracted to 2s pattern {31}

Atom   0C    basis set group =>   1
Atom   1N    basis set group =>   2
Atom   2H    basis set group =>   3
------------------------------------------------------------------------------
                           ORCA GTO INTEGRAL CALCULATION
------------------------------------------------------------------------------

                         BASIS SET STATISTICS AND STARTUP INFO

 # of primitive gaussian shells          ...   34
 # of primitive gaussian functions       ...   58
 # of contracted shells                  ...   14
 # of contracted basis functions         ...   30
 Highest angular momentum                ...    2
 Maximum contraction depth               ...    6
 Integral package used                   ... LIBINT
 Integral threshhold            Thresh   ...  1.000e-10
 Primitive cut-off              TCut     ...  1.000e-11


------------------------------ INTEGRAL EVALUATION ----------------------------


 * One electron integrals 
 Pre-screening matrix                    ... done
 Shell pair data                         ... done (   0.000 sec)

-------------------------------------------------------------------------------
                                 ORCA SCF
-------------------------------------------------------------------------------

------------
SCF SETTINGS
------------
Hamiltonian:
 Density Functional     Method          .... DFT(GTOs)
 Exchange Functional    Exchange        .... WB97X-D3
 Correlation Functional Correlation     .... WB97X-D3
 Gradients option       PostSCFGGA      .... off
 Hybrid DFT is turned on
   Fraction HF Exchange ScalHFX         ....  0.195728
   Scaling of DF-GGA-X  ScalDFX         ....  0.000000
   Scaling of DF-GGA-C  ScalDFC         ....  1.000000
   Scaling of DF-LDA-C  ScalLDAC        ....  1.000000
   Perturbative correction              ....  0.000000
 Long-range corrected/Screened/Range-Separated Hybrid DFT is turned on
   Amount of maximum screened exact exchange              ....  0.804272
   Range separation parameter mu (erf(mu*r12)/r12)        ....  0.250000


General Settings:
 Integral files         IntName         .... Scan_5
 Hartree-Fock type      HFTyp           .... RHF
 Total Charge           Charge          ....    0
 Multiplicity           Mult            ....    1
 Number of Electrons    NEL             ....   14
 Basis Dimension        Dim             ....   30
 Nuclear Repulsion      ENuc            ....     25.2030735332 Eh

Convergence Acceleration:
 DIIS                   CNVDIIS         .... on
   Start iteration      DIISMaxIt       ....     0
   Startup error        DIISStart       ....  0.200000
   # of expansion vecs  DIISMaxEq       ....     5
   Bias factor          DIISBfac        ....   1.050
   Max. coefficient     DIISMaxC        ....  10.000
 Newton-Raphson         CNVNR           .... off
 SOSCF                  CNVSOSCF        .... off
 Level Shifting         CNVShift        .... off
 Zerner damping         CNVZerner       .... off
 Static damping         CNVDamp         .... off
 Fernandez-Rico         CNVRico         .... off

SCF Procedure:
 Maximum # iterations   MaxIter         ....   999
 SCF integral mode      SCFMode         .... Direct
   Integral package                     .... LIBINT
 Reset frequeny         DirectResetFreq ....    20
 Integral Threshold     Thresh          ....  1.000e-10 Eh
 Primitive CutOff       TCut            ....  1.000e-11 Eh

Convergence Tolerance:
 Convergence Check Mode ConvCheckMode   .... All-Criteria
 Convergence forced     ConvForced      .... 0
 Energy Change          TolE            ....  1.000e-06 Eh
 Max Density Change     TolMaxP         ....  1.000e-05
 RMS Density Change     TolRMSP         ....  1.000e-06
 DIIS Error             TolErr          ....  1.000e-06


Diagonalization of the overlap matrix:
Smallest eigenvalue                        ... 3.575e-03
Time for diagonalization                   ...    0.001 sec
Threshold for overlap eigenvalues          ... 1.000e-08
Number of eigenvalues below threshold      ... 0
Time for construction of square roots      ...    0.005 sec
Total time needed                          ...    0.006 sec

-------------------
DFT GRID GENERATION
-------------------

General Integration Accuracy     IntAcc      ...  4.340
Radial Grid Type                 RadialGrid  ... Gauss-Chebyshev
Angular Grid (max. acc.)         AngularGrid ... Lebedev-110
Angular grid pruning method      GridPruning ... 3 (G Style)
Weight generation scheme         WeightScheme... Becke
Basis function cutoff            BFCut       ...    1.0000e-10
Integration weight cutoff        WCut        ...    1.0000e-14
Grids for H and He will be reduced by one unit

# of grid points (after initial pruning)     ...   4152 (   0.0 sec)
# of grid points (after weights+screening)   ...   4100 (   0.0 sec)
nearest neighbour list constructed           ...    0.0 sec
Grid point re-assignment to atoms done       ...    0.0 sec
Grid point division into batches done        ...    0.0 sec
Reduced shell lists constructed in    0.0 sec

Total number of grid points                  ...     4100
Total number of batches                      ...       65
Average number of points per batch           ...       63
Average number of grid points per atom       ...     1367
Average number of shells per batch           ...    12.20 (87.12%)
Average number of basis functions per batch  ...    26.50 (88.33%)
Average number of large shells per batch     ...    11.58 (94.91%)
Average number of large basis fcns per batch ...    25.79 (97.31%)
Maximum spatial batch extension              ...  18.14, 25.60, 31.36 au
Average spatial batch extension              ...   4.40,  6.67,  6.27 au

Time for grid setup =    0.026 sec

------------------------------
INITIAL GUESS: MODEL POTENTIAL
------------------------------
Loading Hartree-Fock densities                     ... done
Calculating cut-offs                               ... done
Setting up the integral package                    ... done
Initializing the effective Hamiltonian             ... done
Starting the Coulomb interaction                   ... done (   0.0 sec)
Reading the grid                                   ... done
Mapping shells                                     ... done
Starting the XC term evaluation                    ... done (   0.0 sec)
  promolecular density results
     # of electrons  =     13.999888566
     EX              =    -11.878331981
     EC              =     -0.435620982
     EX+EC           =    -12.313952963
Transforming the Hamiltonian                       ... done (   0.0 sec)
Diagonalizing the Hamiltonian                      ... done (   0.0 sec)
Back transforming the eigenvectors                 ... done (   0.0 sec)
Now organizing SCF variables                       ... done
                      ------------------
                      INITIAL GUESS DONE (   0.1 sec)
                      ------------------
--------------
SCF ITERATIONS
--------------
ITER       Energy         Delta-E        Max-DP      RMS-DP      [F,P]   Gradient Norm
               ***  Starting incremental Fock matrix formation  ***
                             ****Resetting KDIIS****
                             ****Turning on KDIIS(Cayley)****
  0    -93.2859614664   0.000000000000 0.03586628  0.00282069  0.1113781   0.113768850
  1    -93.3194133155  -0.033451849131 0.02153435  0.00236019  0.0824469   0.088276216
  2    -93.3384703052  -0.019056989678 0.03737571  0.00353912  0.0713525   0.071886974
  3    -93.3601738982  -0.021703593006 0.05989081  0.00568235  0.0469235   0.045766044
  4    -93.3750067370  -0.014832838754 0.00879254  0.00079947  0.0037486   0.003213858
  5    -93.3750949999  -0.000088262902 0.00280114  0.00026073  0.0008258   0.000587926
  6    -93.3750971351  -0.000002135252 0.00156283  0.00013594  0.0005533   0.000545004
  7    -93.3750997396  -0.000002604466 0.00018177  0.00001641  0.0000585   0.000060623
                          ***Energy convergence achieved***
  8    -93.3750997703  -0.000000030737 0.00002638  0.00000144  0.0000011   0.000001334
                           ***RMSP convergence achieved***
                           ***MAXP convergence achieved***
                    *** KDIIS BlockDiag ( 0.000 sec) ***

               *****************************************************
               *                     SUCCESS                       *
               *           SCF CONVERGED AFTER   9 CYCLES          *
               *****************************************************

Setting up the final grid:

General Integration Accuracy     IntAcc      ...  4.670
Radial Grid Type                 RadialGrid  ... Gauss-Chebyshev
Angular Grid (max. acc.)         AngularGrid ... Lebedev-302
Angular grid pruning method      GridPruning ... 3 (G Style)
Weight generation scheme         WeightScheme... Becke
Basis function cutoff            BFCut       ...    1.0000e-10
Integration weight cutoff        WCut        ...    1.0000e-14
Grids for H and He will be reduced by one unit

# of grid points (after initial pruning)     ...  15818 (   0.0 sec)
# of grid points (after weights+screening)   ...  15660 (   0.0 sec)
nearest neighbour list constructed           ...    0.0 sec
Grid point re-assignment to atoms done       ...    0.0 sec
Grid point division into batches done        ...    0.1 sec
Reduced shell lists constructed in    0.1 sec

Total number of grid points                  ...    15660
Total number of batches                      ...      246
Average number of points per batch           ...       63
Average number of grid points per atom       ...     5220
Average number of shells per batch           ...    11.18 (79.84%)
Average number of basis functions per batch  ...    24.53 (81.77%)
Average number of large shells per batch     ...    10.34 (92.47%)
Average number of large basis fcns per batch ...    22.83 (93.07%)
Maximum spatial batch extension              ...  20.20, 18.05, 25.05 au
Average spatial batch extension              ...   3.17,  4.05,  4.16 au

Final grid set up in    0.1 sec
Final integration                            ... done (   0.1 sec)
Change in XC energy                          ...     0.000094288
Integrated number of electrons               ...    14.000006787
Previous integrated no of electrons          ...    13.998672989

----------------
TOTAL SCF ENERGY
----------------

Total Energy       :          -93.37500548 Eh           -2540.86307 eV

Components:
Nuclear Repulsion  :           25.20307353 Eh             685.81050 eV
Electronic Energy  :         -118.57807902 Eh           -3226.67357 eV
One Electron Energy:         -175.34790365 Eh           -4771.45903 eV
Two Electron Energy:           56.76982463 Eh            1544.78546 eV

Virial components:
Potential Energy   :         -186.54923812 Eh           -5076.26284 eV
Kinetic Energy     :           93.17423263 Eh            2535.39977 eV
Virial Ratio       :            2.00215481


DFT components:
N(Alpha)           :        7.000003393541 electrons
N(Beta)            :        7.000003393541 electrons
N(Total)           :       14.000006787083 electrons
E(XC)              :       -8.779368277716 Eh       

---------------
SCF CONVERGENCE
---------------

  Last Energy change         ...    1.0857e-11  Tolerance :   1.0000e-06
  Last MAX-Density change    ...    3.4941e-07  Tolerance :   1.0000e-05
  Last RMS-Density change    ...    2.8390e-08  Tolerance :   1.0000e-06
  Last DIIS Error            ...    1.4334e-07  Tolerance :   1.0000e-06

             **** THE GBW FILE WAS UPDATED (Scan_5.gbw) ****
             **** DENSITY FILE WAS UPDATED (Scan_5.scfp.tmp) ****
             **** ENERGY FILE WAS UPDATED (Scan_5.en.tmp) ****
----------------
ORBITAL ENERGIES
----------------

  NO   OCC          E(Eh)            E(eV) 
   0   2.0000     -14.441540      -392.9743 
   1   2.0000     -10.321303      -280.8569 
   2   2.0000      -1.058177       -28.7945 
   3   2.0000      -0.707189       -19.2436 
   4   2.0000      -0.472901       -12.8683 
   5   2.0000      -0.472865       -12.8673 
   6   2.0000      -0.472857       -12.8671 
   7   0.0000       0.141020         3.8373 
   8   0.0000       0.141030         3.8376 
   9   0.0000       0.189159         5.1473 
  10   0.0000       0.368094        10.0163 
  11   0.0000       0.617868        16.8130 
  12   0.0000       0.617878        16.8133 
  13   0.0000       0.739535        20.1238 
  14   0.0000       0.819598        22.3024 
  15   0.0000       0.889509        24.2048 
  16   0.0000       0.889512        24.2048 
  17   0.0000       0.948813        25.8185 
  18   0.0000       1.325055        36.0566 
  19   0.0000       1.580079        42.9961 
  20   0.0000       1.580257        43.0010 
  21   0.0000       1.615439        43.9583 
  22   0.0000       1.689467        45.9727 
  23   0.0000       1.689482        45.9731 
  24   0.0000       2.093338        56.9626 
  25   0.0000       2.093338        56.9626 
  26   0.0000       2.732470        74.3543 
  27   0.0000       2.732483        74.3547 
  28   0.0000       2.842976        77.3613 
  29   0.0000       3.309793        90.0641 

                    ********************************
                    * MULLIKEN POPULATION ANALYSIS *
                    ********************************

-----------------------
MULLIKEN ATOMIC CHARGES
-----------------------
   0 C :   -0.022230
   1 N :   -0.250598
   2 H :    0.272829
Sum of atomic charges:   -0.0000000

--------------------------------
MULLIKEN REDUCED ORBITAL CHARGES
--------------------------------
  0 C s       :     3.119926  s :     3.119926
      pz      :     0.936412  p :     2.864422
      px      :     0.991522
      py      :     0.936488
      dz2     :     0.003732  d :     0.037882
      dxz     :     0.011471
      dyz     :     0.000010
      dx2y2   :     0.011197
      dxy     :     0.011473
  1 N s       :     3.715521  s :     3.715521
      pz      :     1.034856  p :     3.487732
      px      :     1.417726
      py      :     1.035150
      dz2     :     0.003211  d :     0.047345
      dxz     :     0.017236
      dyz     :     0.000015
      dx2y2   :     0.009660
      dxy     :     0.017223
  2 H s       :     0.727171  s :     0.727171


                     *******************************
                     * LOEWDIN POPULATION ANALYSIS *
                     *******************************

----------------------
LOEWDIN ATOMIC CHARGES
----------------------
   0 C :   -0.129746
   1 N :   -0.047314
   2 H :    0.177060

-------------------------------
LOEWDIN REDUCED ORBITAL CHARGES
-------------------------------
  0 C s       :     3.000340  s :     3.000340
      pz      :     0.924881  p :     3.042731
      px      :     1.192704
      py      :     0.925146
      dz2     :     0.009969  d :     0.086675
      dxz     :     0.023383
      dyz     :     0.000021
      dx2y2   :     0.029883
      dxy     :     0.023420
  1 N s       :     3.387965  s :     3.387965
      pz      :     1.026246  p :     3.574398
      px      :     1.521502
      py      :     1.026650
      dz2     :     0.008503  d :     0.084951
      dxz     :     0.025447
      dyz     :     0.000022
      dx2y2   :     0.025511
      dxy     :     0.025468
  2 H s       :     0.822940  s :     0.822940


                      *****************************
                      * MAYER POPULATION ANALYSIS *
                      *****************************

  NA   - Mulliken gross atomic population
  ZA   - Total nuclear charge
  QA   - Mulliken gross atomic charge
  VA   - Mayer's total valence
  BVA  - Mayer's bonded valence
  FA   - Mayer's free valence

  ATOM       NA         ZA         QA         VA         BVA        FA
  0 C      6.0222     6.0000    -0.0222     3.9597     3.9597    -0.0000
  1 N      7.2506     7.0000    -0.2506     3.0939     3.0939    -0.0000
  2 H      0.7272     1.0000     0.2728     0.8959     0.8959    -0.0000

  Mayer bond orders larger than 0.1
B(  0-C ,  1-N ) :   3.0788 B(  0-C ,  2-H ) :   0.8809 

-------
TIMINGS
-------

Total SCF time: 0 days 0 hours 0 min 3 sec 

Total time                  ....       3.673 sec
Sum of individual times     ....       3.539 sec  ( 96.4%)

Fock matrix formation       ....       3.246 sec  ( 88.4%)
  XC integration            ....       0.689 sec  ( 21.2% of F)
    Basis function eval.    ....       0.187 sec  ( 27.1% of XC)
    Density eval.           ....       0.030 sec  (  4.4% of XC)
    XC-Functional eval.     ....       0.166 sec  ( 24.1% of XC)
    XC-Potential eval.      ....       0.026 sec  (  3.8% of XC)
Diagonalization             ....       0.006 sec  (  0.2%)
Density matrix formation    ....       0.000 sec  (  0.0%)
Population analysis         ....       0.010 sec  (  0.3%)
Initial guess               ....       0.119 sec  (  3.3%)
Orbital Transformation      ....       0.000 sec  (  0.0%)
Orbital Orthonormalization  ....       0.000 sec  (  0.0%)
DIIS solution               ....       0.000 sec  (  0.0%)
Grid generation             ....       0.157 sec  (  4.3%)


-------------------------------------------------------------------------------
                          DFT DISPERSION CORRECTION                            
                                                                               
                              DFTD3 V3.1  Rev 1                                
                              USING zero damping                               
-------------------------------------------------------------------------------
The omegaB97X-D3 functional is recognized. Fit by Chai et al.
Active option DFTDOPT                   ...         3   

molecular C6(AA) [au] = 141.158226 


            DFT-D V3
 parameters
 s6 scaling factor         :     1.0000 
 rs6 scaling factor        :     1.2810 
 s8 scaling factor         :     1.0000 
 rs8 scaling factor        :     1.0940 
 Damping factor alpha6     :    14.0000 
 Damping factor alpha8     :    16.0000 
 ad hoc parameters k1-k3   :    16.0000     1.3333    -4.0000 

 Edisp/kcal,au: -0.011065377700  -0.000017633800 
 E6   /kcal   :  -0.001542465 
 E8   /kcal   :  -0.009522912 
 % E8         :  86.060437543 

-------------------------   ----------------
Dispersion correction           -0.000017634
-------------------------   ----------------


-------------------------   --------------------
FINAL SINGLE POINT ENERGY       -93.375023116392
-------------------------   --------------------


                            ***************************************
                            *     ORCA property calculations      *
                            ***************************************

                                    ---------------------
                                    Active property flags
                                    ---------------------
   (+) Dipole Moment


------------------------------------------------------------------------------
                       ORCA ELECTRIC PROPERTIES CALCULATION
------------------------------------------------------------------------------

Dipole Moment Calculation                       ... on
Quadrupole Moment Calculation                   ... off
Polarizability Calculation                      ... off
GBWName                                         ... Scan_5.gbw
Electron density file                           ... Scan_5.scfp.tmp

-------------
DIPOLE MOMENT
-------------
                                X             Y             Z
Electronic contribution:      0.31947       0.00939       0.00000
Nuclear contribution   :     -1.48281      -0.04382       0.00000
                        -----------------------------------------
Total Dipole Moment    :     -1.16333      -0.03442       0.00000
                        -----------------------------------------
Magnitude (a.u.)       :      1.16384
Magnitude (Debye)      :      2.95826


Timings for individual modules:

Sum of individual times         ...        4.010 sec (=   0.067 min)
GTO integral calculation        ...        0.314 sec (=   0.005 min)   7.8 %
SCF iterations                  ...        3.696 sec (=   0.062 min)  92.2 %
                             ****ORCA TERMINATED NORMALLY****
TOTAL RUN TIME: 0 days 0 hours 0 minutes 4 seconds 634 msec
