
                                 *****************
                                 * O   R   C   A *
                                 *****************

           --- An Ab Initio, DFT and Semiempirical electronic structure package ---

                  #######################################################
                  #                        -***-                        #
                  #  Department of molecular theory and spectroscopy    #
                  #              Directorship: Frank Neese              #
                  # Max Planck Institute for Chemical Energy Conversion #
                  #                  D-45470 Muelheim/Ruhr              #
                  #                       Germany                       #
                  #                                                     #
                  #                  All rights reserved                #
                  #                        -***-                        #
                  #######################################################


                         Program Version 4.0.0.2 - RELEASE -


 With contributions from (in alphabetic order):
   Daniel Aravena         : Magnetic Properties
   Michael Atanasov       : Ab Initio Ligand Field Theory
   Ute Becker             : Parallelization
   Martin Brehm           : Molecular dynamics
   Dmytro Bykov           : SCF Hessian
   Vijay G. Chilkuri      : MRCI spin determinant printing
   Dipayan Datta          : RHF DLPNO-CCSD density
   Achintya Kumar Dutta   : EOM-CC, STEOM-CC
   Dmitry Ganyushin       : Spin-Orbit,Spin-Spin,Magnetic field MRCI
   Yang Guo               : DLPNO-NEVPT2, CIM, IAO-localization
   Andreas Hansen         : Spin unrestricted coupled pair/coupled cluster methods
   Lee Huntington         : MR-EOM, pCC
   Robert Izsak           : Overlap fitted RIJCOSX, COSX-SCS-MP3, EOM
   Christian Kollmar      : KDIIS, OOCD, Brueckner-CCSD(T), CCSD density
   Simone Kossmann        : Meta GGA functionals, TD-DFT gradient, OOMP2, MP2 Hessian
   Martin Krupicka        : AUTO-CI
   Dagmar Lenk            : GEPOL surface
   Dimitrios Liakos       : Extrapolation schemes; parallel MDCI
   Dimitrios Manganas     : ROCIS; embedding schemes
   Dimitrios Pantazis     : SARC Basis sets
   Taras Petrenko         : DFT Hessian,TD-DFT gradient, ASA, ECA, R-Raman, ABS, FL, XAS/XES, NRVS
   Peter Pinski           : DLPNO-MP2
   Christoph Reimann      : Effective Core Potentials
   Marius Retegan         : Local ZFS, SOC
   Christoph Riplinger    : Optimizer, TS searches, QM/MM, DLPNO-CCSD(T), (RO)-DLPNO pert. Triples
   Tobias Risthaus        : Range-separated hybrids, TD-DFT gradient, RPA, STAB
   Michael Roemelt        : Restricted open shell CIS
   Masaaki Saitow         : Open-shell DLPNO
   Barbara Sandhoefer     : DKH picture change effects
   Kantharuban Sivalingam : CASSCF convergence, NEVPT2, FIC-MRCI
   Georgi Stoychev        : AutoAux
   Boris Wezisla          : Elementary symmetry handling
   Frank Wennmohs         : Technical directorship


 We gratefully acknowledge several colleagues who have allowed us to
 interface, adapt or use parts of their codes:
   Stefan Grimme, W. Hujo, H. Kruse,             : VdW corrections, initial TS optimization,
                  C. Bannwarth                     DFT functionals, gCP, sTDA/sTD-DF
   Ed Valeev                                     : LibInt (2-el integral package), F12 methods
   Garnet Chan, S. Sharma, J. Yang, R. Olivares  : DMRG
   Ulf Ekstrom                                   : XCFun DFT Library
   Mihaly Kallay                                 : mrcc  (arbitrary order and MRCC methods)
   Jiri Pittner, Ondrej Demel                    : Mk-CCSD
   Frank Weinhold                                : gennbo (NPA and NBO analysis)
   Christopher J. Cramer and Donald G. Truhlar   : smd solvation model


 Your calculation uses the libint2 library for the computation of 2-el integrals
 For citations please refer to: http://libint.valeyev.net

 This ORCA versions uses:
   CBLAS   interface :  Fast vector & matrix operations
   LAPACKE interface :  Fast linear algebra routines
   SCALAPACK package :  Parallel linear algebra routines


Your calculation utilizes the atom-pairwise dispersion correction
with the zero-damping scheme (D30)
Cite in your paper:
S.Grimme, J.Antony, S.Ehrlich and H.Krieg, J.Chem.Phys., 132, (2010), 154104 
   

XCFun DFT library Copyright 2009-2010 Ulf Ekstrom and contributors.
See http://admol.org/xcfun for more information. This is free soft-
ware; see the source code for copying conditions. There is ABSOLUTELY
NO WARRANTY; not even for MERCHANTABILITY or FITNESS FOR A PARTICULAR
PURPOSE. For details see the documentation. Scientific users of this 
library should cite U. Ekstrom, L. Visscher, R. Bast, A. J. Thorvald-
sen and K. Ruud; J.Chem.Theor.Comp. 2010, DOI: 10.1021/ct100117s
XCFun Version 0.99 
Your calculation utilizes the basis: 6-31G(d)
   H-He, Li-Ne : W. J. Hehre, R. Ditchfield and J.A. Pople, J. Chem. Phys. 56, 2257 (1972).
                 Note: He and Ne are unpublished basis sets taken from the Gaussian program.
                 Note: Li and B from J. D. Dill and J. A. Pople, J. Chem. Phys. 62, 2921 (1975).
   Na - Ar     : M. M. Francl, W. J. Pietro, W. J. Hehre, J. S. Binkley, M. S. Gordon, 
                 D. J. DeFrees and J. A. Pople, J. Chem. Phys. 77, 3654 (1982).
   K - Zn      : V. A. Rassolov, J. A. Pople, M. A. Ratner, and T. L. Windus, J. Chem. Phys. 109, 1223 (1998).

================================================================================
                                        WARNINGS
                       Please study these warnings very carefully!
================================================================================

Warning: TCutStore was < 0. Adjusted to Thresh (uncritical)

INFO   : the flag for use of LIBINT has been found!

================================================================================
                                       INPUT FILE
================================================================================
NAME = initial6.inp
|  1> ! WB97X-D3 6-31G(d) VerySlowConv
|  2> ! KDIIS NOSOSCF
|  3> %base "Scan_6"
|  4> 
|  5> %scf
|  6> maxiter 999
|  7> end
|  8> 
|  9> * xyz 0 1
| 10> C         -3.495399085791    0.400386070201    0.000000000000
| 11> N         -2.389098843415    0.433076230819   -0.000000000000
| 12> H         -4.555282070794    0.369067698980   -0.000000000000
| 13> **                         ****END OF INPUT****
================================================================================

                       ****************************
                       * Single Point Calculation *
                       ****************************

---------------------------------
CARTESIAN COORDINATES (ANGSTROEM)
---------------------------------
  C     -3.495399    0.400386    0.000000
  N     -2.389099    0.433076   -0.000000
  H     -4.555282    0.369068   -0.000000

----------------------------
CARTESIAN COORDINATES (A.U.)
----------------------------
  NO LB      ZA    FRAG     MASS         X           Y           Z
   0 C     6.0000    0    12.011   -6.605347    0.756620    0.000000
   1 N     7.0000    0    14.007   -4.514743    0.818395   -0.000000
   2 H     1.0000    0     1.008   -8.608236    0.697437   -0.000000

--------------------------------
INTERNAL COORDINATES (ANGSTROEM)
--------------------------------
 C      0   0   0     0.000000000000     0.00000000     0.00000000
 N      1   0   0     1.106783119171     0.00000000     0.00000000
 H      1   2   0     1.060345595679   179.99998907     0.00000000

---------------------------
INTERNAL COORDINATES (A.U.)
---------------------------
 C      0   0   0     0.000000000000     0.00000000     0.00000000
 N      1   0   0     2.091516984881     0.00000000     0.00000000
 H      1   2   0     2.003762783142   179.99998907     0.00000000

---------------------
BASIS SET INFORMATION
---------------------
There are 3 groups of distinct atoms

 Group   1 Type C   : 10s4p1d contracted to 3s2p1d pattern {631/31/1}
 Group   2 Type N   : 10s4p1d contracted to 3s2p1d pattern {631/31/1}
 Group   3 Type H   : 4s contracted to 2s pattern {31}

Atom   0C    basis set group =>   1
Atom   1N    basis set group =>   2
Atom   2H    basis set group =>   3
------------------------------------------------------------------------------
                           ORCA GTO INTEGRAL CALCULATION
------------------------------------------------------------------------------

                         BASIS SET STATISTICS AND STARTUP INFO

 # of primitive gaussian shells          ...   34
 # of primitive gaussian functions       ...   58
 # of contracted shells                  ...   14
 # of contracted basis functions         ...   30
 Highest angular momentum                ...    2
 Maximum contraction depth               ...    6
 Integral package used                   ... LIBINT
 Integral threshhold            Thresh   ...  1.000e-10
 Primitive cut-off              TCut     ...  1.000e-11


------------------------------ INTEGRAL EVALUATION ----------------------------


 * One electron integrals 
 Pre-screening matrix                    ... done
 Shell pair data                         ... done (   0.000 sec)

-------------------------------------------------------------------------------
                                 ORCA SCF
-------------------------------------------------------------------------------

------------
SCF SETTINGS
------------
Hamiltonian:
 Density Functional     Method          .... DFT(GTOs)
 Exchange Functional    Exchange        .... WB97X-D3
 Correlation Functional Correlation     .... WB97X-D3
 Gradients option       PostSCFGGA      .... off
 Hybrid DFT is turned on
   Fraction HF Exchange ScalHFX         ....  0.195728
   Scaling of DF-GGA-X  ScalDFX         ....  0.000000
   Scaling of DF-GGA-C  ScalDFC         ....  1.000000
   Scaling of DF-LDA-C  ScalLDAC        ....  1.000000
   Perturbative correction              ....  0.000000
 Long-range corrected/Screened/Range-Separated Hybrid DFT is turned on
   Amount of maximum screened exact exchange              ....  0.804272
   Range separation parameter mu (erf(mu*r12)/r12)        ....  0.250000


General Settings:
 Integral files         IntName         .... Scan_6
 Hartree-Fock type      HFTyp           .... RHF
 Total Charge           Charge          ....    0
 Multiplicity           Mult            ....    1
 Number of Electrons    NEL             ....   14
 Basis Dimension        Dim             ....   30
 Nuclear Repulsion      ENuc            ....     24.7847696564 Eh

Convergence Acceleration:
 DIIS                   CNVDIIS         .... on
   Start iteration      DIISMaxIt       ....     0
   Startup error        DIISStart       ....  0.200000
   # of expansion vecs  DIISMaxEq       ....     5
   Bias factor          DIISBfac        ....   1.050
   Max. coefficient     DIISMaxC        ....  10.000
 Newton-Raphson         CNVNR           .... off
 SOSCF                  CNVSOSCF        .... off
 Level Shifting         CNVShift        .... off
 Zerner damping         CNVZerner       .... off
 Static damping         CNVDamp         .... off
 Fernandez-Rico         CNVRico         .... off

SCF Procedure:
 Maximum # iterations   MaxIter         ....   999
 SCF integral mode      SCFMode         .... Direct
   Integral package                     .... LIBINT
 Reset frequeny         DirectResetFreq ....    20
 Integral Threshold     Thresh          ....  1.000e-10 Eh
 Primitive CutOff       TCut            ....  1.000e-11 Eh

Convergence Tolerance:
 Convergence Check Mode ConvCheckMode   .... All-Criteria
 Convergence forced     ConvForced      .... 0
 Energy Change          TolE            ....  1.000e-06 Eh
 Max Density Change     TolMaxP         ....  1.000e-05
 RMS Density Change     TolRMSP         ....  1.000e-06
 DIIS Error             TolErr          ....  1.000e-06


Diagonalization of the overlap matrix:
Smallest eigenvalue                        ... 3.785e-03
Time for diagonalization                   ...    0.001 sec
Threshold for overlap eigenvalues          ... 1.000e-08
Number of eigenvalues below threshold      ... 0
Time for construction of square roots      ...    0.005 sec
Total time needed                          ...    0.006 sec

-------------------
DFT GRID GENERATION
-------------------

General Integration Accuracy     IntAcc      ...  4.340
Radial Grid Type                 RadialGrid  ... Gauss-Chebyshev
Angular Grid (max. acc.)         AngularGrid ... Lebedev-110
Angular grid pruning method      GridPruning ... 3 (G Style)
Weight generation scheme         WeightScheme... Becke
Basis function cutoff            BFCut       ...    1.0000e-10
Integration weight cutoff        WCut        ...    1.0000e-14
Grids for H and He will be reduced by one unit

# of grid points (after initial pruning)     ...   4152 (   0.0 sec)
# of grid points (after weights+screening)   ...   4100 (   0.0 sec)
nearest neighbour list constructed           ...    0.0 sec
Grid point re-assignment to atoms done       ...    0.0 sec
Grid point division into batches done        ...    0.0 sec
Reduced shell lists constructed in    0.0 sec

Total number of grid points                  ...     4100
Total number of batches                      ...       66
Average number of points per batch           ...       62
Average number of grid points per atom       ...     1367
Average number of shells per batch           ...    12.25 (87.53%)
Average number of basis functions per batch  ...    26.67 (88.91%)
Average number of large shells per batch     ...    11.57 (94.40%)
Average number of large basis fcns per batch ...    25.72 (96.42%)
Maximum spatial batch extension              ...  18.05, 25.60, 31.36 au
Average spatial batch extension              ...   4.20,  6.59,  6.20 au

Time for grid setup =    0.027 sec

------------------------------
INITIAL GUESS: MODEL POTENTIAL
------------------------------
Loading Hartree-Fock densities                     ... done
Calculating cut-offs                               ... done
Setting up the integral package                    ... done
Initializing the effective Hamiltonian             ... done
Starting the Coulomb interaction                   ... done (   0.0 sec)
Reading the grid                                   ... done
Mapping shells                                     ... done
Starting the XC term evaluation                    ... done (   0.0 sec)
  promolecular density results
     # of electrons  =     13.999848042
     EX              =    -11.867100005
     EC              =     -0.434717810
     EX+EC           =    -12.301817815
Transforming the Hamiltonian                       ... done (   0.0 sec)
Diagonalizing the Hamiltonian                      ... done (   0.0 sec)
Back transforming the eigenvectors                 ... done (   0.0 sec)
Now organizing SCF variables                       ... done
                      ------------------
                      INITIAL GUESS DONE (   0.1 sec)
                      ------------------
--------------
SCF ITERATIONS
--------------
ITER       Energy         Delta-E        Max-DP      RMS-DP      [F,P]   Gradient Norm
               ***  Starting incremental Fock matrix formation  ***
                             ****Resetting KDIIS****
                             ****Turning on KDIIS(Cayley)****
  0    -93.2981676335   0.000000000000 0.03547333  0.00272397  0.1114717   0.110491085
  1    -93.3304172046  -0.032249571141 0.02033031  0.00225913  0.0822316   0.085110159
  2    -93.3482277812  -0.017810576567 0.03511581  0.00340428  0.0704861   0.069316619
  3    -93.3686183869  -0.020390605681 0.05498322  0.00539488  0.0456691   0.043963269
  4    -93.3823239216  -0.013705534748 0.01100962  0.00098475  0.0033119   0.003041343
  5    -93.3824084521  -0.000084530511 0.00081855  0.00008766  0.0005237   0.000558760
  6    -93.3824095654  -0.000001113295 0.00117932  0.00010663  0.0004417   0.000426825
Warning: badly conditioned DIIS matrix, 1 vectors out of 5 destroyed
  7    -93.3824111880  -0.000001622535 0.00008900  0.00000814  0.0000301   0.000031112
                          ***Energy convergence achieved***
                           ***RMSP convergence achieved***
  8    -93.3824111962  -0.000000008214 0.00001342  0.00000076  0.0000011   0.000000951
                           ***MAXP convergence achieved***
                    *** KDIIS BlockDiag ( 0.000 sec) ***

               *****************************************************
               *                     SUCCESS                       *
               *           SCF CONVERGED AFTER   9 CYCLES          *
               *****************************************************

Setting up the final grid:

General Integration Accuracy     IntAcc      ...  4.670
Radial Grid Type                 RadialGrid  ... Gauss-Chebyshev
Angular Grid (max. acc.)         AngularGrid ... Lebedev-302
Angular grid pruning method      GridPruning ... 3 (G Style)
Weight generation scheme         WeightScheme... Becke
Basis function cutoff            BFCut       ...    1.0000e-10
Integration weight cutoff        WCut        ...    1.0000e-14
Grids for H and He will be reduced by one unit

# of grid points (after initial pruning)     ...  15818 (   0.0 sec)
# of grid points (after weights+screening)   ...  15660 (   0.0 sec)
nearest neighbour list constructed           ...    0.0 sec
Grid point re-assignment to atoms done       ...    0.0 sec
Grid point division into batches done        ...    0.1 sec
Reduced shell lists constructed in    0.1 sec

Total number of grid points                  ...    15660
Total number of batches                      ...      246
Average number of points per batch           ...       63
Average number of grid points per atom       ...     5220
Average number of shells per batch           ...    11.17 (79.76%)
Average number of basis functions per batch  ...    24.50 (81.67%)
Average number of large shells per batch     ...    10.29 (92.13%)
Average number of large basis fcns per batch ...    22.73 (92.78%)
Maximum spatial batch extension              ...  20.24, 18.05, 25.05 au
Average spatial batch extension              ...   3.19,  4.06,  4.16 au

Final grid set up in    0.1 sec
Final integration                            ... done (   0.1 sec)
Change in XC energy                          ...     0.000055126
Integrated number of electrons               ...    14.000004571
Previous integrated no of electrons          ...    13.998607920

----------------
TOTAL SCF ENERGY
----------------

Total Energy       :          -93.38235607 Eh           -2541.06309 eV

Components:
Nuclear Repulsion  :           24.78476966 Eh             674.42787 eV
Electronic Energy  :         -118.16712573 Eh           -3215.49096 eV
One Electron Energy:         -174.54088956 Eh           -4749.49906 eV
Two Electron Energy:           56.37376383 Eh            1534.00810 eV

Virial components:
Potential Energy   :         -186.41429130 Eh           -5072.59075 eV
Kinetic Energy     :           93.03193523 Eh            2531.52766 eV
Virial Ratio       :            2.00376667


DFT components:
N(Alpha)           :        7.000002285610 electrons
N(Beta)            :        7.000002285610 electrons
N(Total)           :       14.000004571221 electrons
E(XC)              :       -8.758511181379 Eh       

---------------
SCF CONVERGENCE
---------------

  Last Energy change         ...    3.1505e-11  Tolerance :   1.0000e-06
  Last MAX-Density change    ...    3.1934e-07  Tolerance :   1.0000e-05
  Last RMS-Density change    ...    3.6029e-08  Tolerance :   1.0000e-06
  Last DIIS Error            ...    1.3525e-07  Tolerance :   1.0000e-06

             **** THE GBW FILE WAS UPDATED (Scan_6.gbw) ****
             **** DENSITY FILE WAS UPDATED (Scan_6.scfp.tmp) ****
             **** ENERGY FILE WAS UPDATED (Scan_6.en.tmp) ****
----------------
ORBITAL ENERGIES
----------------

  NO   OCC          E(Eh)            E(eV) 
   0   2.0000     -14.448122      -393.1534 
   1   2.0000     -10.327272      -281.0194 
   2   2.0000      -1.050838       -28.5948 
   3   2.0000      -0.709955       -19.3188 
   4   2.0000      -0.475236       -12.9318 
   5   2.0000      -0.467367       -12.7177 
   6   2.0000      -0.467360       -12.7175 
   7   0.0000       0.132029         3.5927 
   8   0.0000       0.132040         3.5930 
   9   0.0000       0.187810         5.1106 
  10   0.0000       0.369407        10.0521 
  11   0.0000       0.619833        16.8665 
  12   0.0000       0.619844        16.8668 
  13   0.0000       0.741526        20.1780 
  14   0.0000       0.812722        22.1153 
  15   0.0000       0.885671        24.1003 
  16   0.0000       0.885672        24.1004 
  17   0.0000       0.941715        25.6254 
  18   0.0000       1.289468        35.0882 
  19   0.0000       1.585901        43.1546 
  20   0.0000       1.586074        43.1593 
  21   0.0000       1.604560        43.6623 
  22   0.0000       1.669302        45.4240 
  23   0.0000       1.669313        45.4243 
  24   0.0000       2.079213        56.5783 
  25   0.0000       2.079225        56.5786 
  26   0.0000       2.707826        73.6837 
  27   0.0000       2.707836        73.6840 
  28   0.0000       2.814298        76.5809 
  29   0.0000       3.236098        88.0587 

                    ********************************
                    * MULLIKEN POPULATION ANALYSIS *
                    ********************************

-----------------------
MULLIKEN ATOMIC CHARGES
-----------------------
   0 C :   -0.015214
   1 N :   -0.259118
   2 H :    0.274332
Sum of atomic charges:   -0.0000000

--------------------------------
MULLIKEN REDUCED ORBITAL CHARGES
--------------------------------
  0 C s       :     3.128679  s :     3.128679
      pz      :     0.935705  p :     2.849961
      px      :     0.978496
      py      :     0.935761
      dz2     :     0.003708  d :     0.036574
      dxz     :     0.010865
      dyz     :     0.000010
      dx2y2   :     0.011124
      dxy     :     0.010867
  1 N s       :     3.737841  s :     3.737841
      pz      :     1.036870  p :     3.475453
      px      :     1.401428
      py      :     1.037155
      dz2     :     0.003180  d :     0.045824
      dxz     :     0.016537
      dyz     :     0.000014
      dx2y2   :     0.009567
      dxy     :     0.016526
  2 H s       :     0.725668  s :     0.725668


                     *******************************
                     * LOEWDIN POPULATION ANALYSIS *
                     *******************************

----------------------
LOEWDIN ATOMIC CHARGES
----------------------
   0 C :   -0.124639
   1 N :   -0.053019
   2 H :    0.177658

-------------------------------
LOEWDIN REDUCED ORBITAL CHARGES
-------------------------------
  0 C s       :     3.007665  s :     3.007665
      pz      :     0.925036  p :     3.034539
      px      :     1.184218
      py      :     0.925285
      dz2     :     0.009652  d :     0.082435
      dxz     :     0.021897
      dyz     :     0.000019
      dx2y2   :     0.028933
      dxy     :     0.021934
  1 N s       :     3.404655  s :     3.404655
      pz      :     1.028900  p :     3.567303
      px      :     1.509105
      py      :     1.029298
      dz2     :     0.008191  d :     0.081061
      dxz     :     0.024127
      dyz     :     0.000021
      dx2y2   :     0.024573
      dxy     :     0.024148
  2 H s       :     0.822342  s :     0.822342


                      *****************************
                      * MAYER POPULATION ANALYSIS *
                      *****************************

  NA   - Mulliken gross atomic population
  ZA   - Total nuclear charge
  QA   - Mulliken gross atomic charge
  VA   - Mayer's total valence
  BVA  - Mayer's bonded valence
  FA   - Mayer's free valence

  ATOM       NA         ZA         QA         VA         BVA        FA
  0 C      6.0152     6.0000    -0.0152     3.9313     3.9313    -0.0000
  1 N      7.2591     7.0000    -0.2591     3.0664     3.0664     0.0000
  2 H      0.7257     1.0000     0.2743     0.8947     0.8947    -0.0000

  Mayer bond orders larger than 0.1
B(  0-C ,  1-N ) :   3.0515 B(  0-C ,  2-H ) :   0.8798 

-------
TIMINGS
-------

Total SCF time: 0 days 0 hours 0 min 3 sec 

Total time                  ....       3.712 sec
Sum of individual times     ....       3.565 sec  ( 96.0%)

Fock matrix formation       ....       3.245 sec  ( 87.4%)
  XC integration            ....       0.750 sec  ( 23.1% of F)
    Basis function eval.    ....       0.214 sec  ( 28.6% of XC)
    Density eval.           ....       0.033 sec  (  4.4% of XC)
    XC-Functional eval.     ....       0.189 sec  ( 25.3% of XC)
    XC-Potential eval.      ....       0.028 sec  (  3.8% of XC)
Diagonalization             ....       0.024 sec  (  0.7%)
Density matrix formation    ....       0.000 sec  (  0.0%)
Population analysis         ....       0.010 sec  (  0.3%)
Initial guess               ....       0.123 sec  (  3.3%)
Orbital Transformation      ....       0.000 sec  (  0.0%)
Orbital Orthonormalization  ....       0.000 sec  (  0.0%)
DIIS solution               ....       0.000 sec  (  0.0%)
Grid generation             ....       0.162 sec  (  4.4%)


-------------------------------------------------------------------------------
                          DFT DISPERSION CORRECTION                            
                                                                               
                              DFTD3 V3.1  Rev 1                                
                              USING zero damping                               
-------------------------------------------------------------------------------
The omegaB97X-D3 functional is recognized. Fit by Chai et al.
Active option DFTDOPT                   ...         3   

molecular C6(AA) [au] = 141.158721 


            DFT-D V3
 parameters
 s6 scaling factor         :     1.0000 
 rs6 scaling factor        :     1.2810 
 s8 scaling factor         :     1.0000 
 rs8 scaling factor        :     1.0940 
 Damping factor alpha6     :    14.0000 
 Damping factor alpha8     :    16.0000 
 ad hoc parameters k1-k3   :    16.0000     1.3333    -4.0000 

 Edisp/kcal,au: -0.011922219455  -0.000018999264 
 E6   /kcal   :  -0.001663531 
 E8   /kcal   :  -0.010258688 
 % E8         :  86.046800986 

-------------------------   ----------------
Dispersion correction           -0.000018999
-------------------------   ----------------


-------------------------   --------------------
FINAL SINGLE POINT ENERGY       -93.382375069873
-------------------------   --------------------


                            ***************************************
                            *     ORCA property calculations      *
                            ***************************************

                                    ---------------------
                                    Active property flags
                                    ---------------------
   (+) Dipole Moment


------------------------------------------------------------------------------
                       ORCA ELECTRIC PROPERTIES CALCULATION
------------------------------------------------------------------------------

Dipole Moment Calculation                       ... on
Quadrupole Moment Calculation                   ... off
Polarizability Calculation                      ... off
GBWName                                         ... Scan_6.gbw
Electron density file                           ... Scan_6.scfp.tmp

-------------
DIPOLE MOMENT
-------------
                                X             Y             Z
Electronic contribution:      0.32701       0.00962       0.00000
Nuclear contribution   :     -1.49204      -0.04409       0.00000
                        -----------------------------------------
Total Dipole Moment    :     -1.16503      -0.03447       0.00000
                        -----------------------------------------
Magnitude (a.u.)       :      1.16554
Magnitude (Debye)      :      2.96257


Timings for individual modules:

Sum of individual times         ...        4.050 sec (=   0.068 min)
GTO integral calculation        ...        0.315 sec (=   0.005 min)   7.8 %
SCF iterations                  ...        3.735 sec (=   0.062 min)  92.2 %
                             ****ORCA TERMINATED NORMALLY****
TOTAL RUN TIME: 0 days 0 hours 0 minutes 4 seconds 673 msec
