
                                 *****************
                                 * O   R   C   A *
                                 *****************

           --- An Ab Initio, DFT and Semiempirical electronic structure package ---

                  #######################################################
                  #                        -***-                        #
                  #  Department of molecular theory and spectroscopy    #
                  #              Directorship: Frank Neese              #
                  # Max Planck Institute for Chemical Energy Conversion #
                  #                  D-45470 Muelheim/Ruhr              #
                  #                       Germany                       #
                  #                                                     #
                  #                  All rights reserved                #
                  #                        -***-                        #
                  #######################################################


                         Program Version 4.0.0.2 - RELEASE -


 With contributions from (in alphabetic order):
   Daniel Aravena         : Magnetic Properties
   Michael Atanasov       : Ab Initio Ligand Field Theory
   Ute Becker             : Parallelization
   Martin Brehm           : Molecular dynamics
   Dmytro Bykov           : SCF Hessian
   Vijay G. Chilkuri      : MRCI spin determinant printing
   Dipayan Datta          : RHF DLPNO-CCSD density
   Achintya Kumar Dutta   : EOM-CC, STEOM-CC
   Dmitry Ganyushin       : Spin-Orbit,Spin-Spin,Magnetic field MRCI
   Yang Guo               : DLPNO-NEVPT2, CIM, IAO-localization
   Andreas Hansen         : Spin unrestricted coupled pair/coupled cluster methods
   Lee Huntington         : MR-EOM, pCC
   Robert Izsak           : Overlap fitted RIJCOSX, COSX-SCS-MP3, EOM
   Christian Kollmar      : KDIIS, OOCD, Brueckner-CCSD(T), CCSD density
   Simone Kossmann        : Meta GGA functionals, TD-DFT gradient, OOMP2, MP2 Hessian
   Martin Krupicka        : AUTO-CI
   Dagmar Lenk            : GEPOL surface
   Dimitrios Liakos       : Extrapolation schemes; parallel MDCI
   Dimitrios Manganas     : ROCIS; embedding schemes
   Dimitrios Pantazis     : SARC Basis sets
   Taras Petrenko         : DFT Hessian,TD-DFT gradient, ASA, ECA, R-Raman, ABS, FL, XAS/XES, NRVS
   Peter Pinski           : DLPNO-MP2
   Christoph Reimann      : Effective Core Potentials
   Marius Retegan         : Local ZFS, SOC
   Christoph Riplinger    : Optimizer, TS searches, QM/MM, DLPNO-CCSD(T), (RO)-DLPNO pert. Triples
   Tobias Risthaus        : Range-separated hybrids, TD-DFT gradient, RPA, STAB
   Michael Roemelt        : Restricted open shell CIS
   Masaaki Saitow         : Open-shell DLPNO
   Barbara Sandhoefer     : DKH picture change effects
   Kantharuban Sivalingam : CASSCF convergence, NEVPT2, FIC-MRCI
   Georgi Stoychev        : AutoAux
   Boris Wezisla          : Elementary symmetry handling
   Frank Wennmohs         : Technical directorship


 We gratefully acknowledge several colleagues who have allowed us to
 interface, adapt or use parts of their codes:
   Stefan Grimme, W. Hujo, H. Kruse,             : VdW corrections, initial TS optimization,
                  C. Bannwarth                     DFT functionals, gCP, sTDA/sTD-DF
   Ed Valeev                                     : LibInt (2-el integral package), F12 methods
   Garnet Chan, S. Sharma, J. Yang, R. Olivares  : DMRG
   Ulf Ekstrom                                   : XCFun DFT Library
   Mihaly Kallay                                 : mrcc  (arbitrary order and MRCC methods)
   Jiri Pittner, Ondrej Demel                    : Mk-CCSD
   Frank Weinhold                                : gennbo (NPA and NBO analysis)
   Christopher J. Cramer and Donald G. Truhlar   : smd solvation model


 Your calculation uses the libint2 library for the computation of 2-el integrals
 For citations please refer to: http://libint.valeyev.net

 This ORCA versions uses:
   CBLAS   interface :  Fast vector & matrix operations
   LAPACKE interface :  Fast linear algebra routines
   SCALAPACK package :  Parallel linear algebra routines


Your calculation utilizes the atom-pairwise dispersion correction
with the zero-damping scheme (D30)
Cite in your paper:
S.Grimme, J.Antony, S.Ehrlich and H.Krieg, J.Chem.Phys., 132, (2010), 154104 
   

XCFun DFT library Copyright 2009-2010 Ulf Ekstrom and contributors.
See http://admol.org/xcfun for more information. This is free soft-
ware; see the source code for copying conditions. There is ABSOLUTELY
NO WARRANTY; not even for MERCHANTABILITY or FITNESS FOR A PARTICULAR
PURPOSE. For details see the documentation. Scientific users of this 
library should cite U. Ekstrom, L. Visscher, R. Bast, A. J. Thorvald-
sen and K. Ruud; J.Chem.Theor.Comp. 2010, DOI: 10.1021/ct100117s
XCFun Version 0.99 
Your calculation utilizes the basis: 6-31G(d)
   H-He, Li-Ne : W. J. Hehre, R. Ditchfield and J.A. Pople, J. Chem. Phys. 56, 2257 (1972).
                 Note: He and Ne are unpublished basis sets taken from the Gaussian program.
                 Note: Li and B from J. D. Dill and J. A. Pople, J. Chem. Phys. 62, 2921 (1975).
   Na - Ar     : M. M. Francl, W. J. Pietro, W. J. Hehre, J. S. Binkley, M. S. Gordon, 
                 D. J. DeFrees and J. A. Pople, J. Chem. Phys. 77, 3654 (1982).
   K - Zn      : V. A. Rassolov, J. A. Pople, M. A. Ratner, and T. L. Windus, J. Chem. Phys. 109, 1223 (1998).

================================================================================
                                        WARNINGS
                       Please study these warnings very carefully!
================================================================================

Warning: TCutStore was < 0. Adjusted to Thresh (uncritical)

INFO   : the flag for use of LIBINT has been found!

================================================================================
                                       INPUT FILE
================================================================================
NAME = initial7.inp
|  1> ! WB97X-D3 6-31G(d) VerySlowConv
|  2> ! KDIIS NOSOSCF
|  3> %base "Scan_7"
|  4> 
|  5> %scf
|  6> maxiter 999
|  7> end
|  8> 
|  9> * xyz 0 1
| 10> C         -3.504123566728    0.400128298931    0.000000000000
| 11> N         -2.373263958845    0.433544122359    0.000000000000
| 12> H         -4.562392474427    0.368857578710   -0.000000000000
| 13> **                         ****END OF INPUT****
================================================================================

                       ****************************
                       * Single Point Calculation *
                       ****************************

---------------------------------
CARTESIAN COORDINATES (ANGSTROEM)
---------------------------------
  C     -3.504124    0.400128    0.000000
  N     -2.373264    0.433544    0.000000
  H     -4.562392    0.368858   -0.000000

----------------------------
CARTESIAN COORDINATES (A.U.)
----------------------------
  NO LB      ZA    FRAG     MASS         X           Y           Z
   0 C     6.0000    0    12.011   -6.621834    0.756133    0.000000
   1 N     7.0000    0    14.007   -4.484819    0.819280    0.000000
   2 H     1.0000    0     1.008   -8.621672    0.697040   -0.000000

--------------------------------
INTERNAL COORDINATES (ANGSTROEM)
--------------------------------
 C      0   0   0     0.000000000000     0.00000000     0.00000000
 N      1   0   0     1.131353203026     0.00000000     0.00000000
 H      1   2   0     1.058730815149   179.99999361     0.00000000

---------------------------
INTERNAL COORDINATES (A.U.)
---------------------------
 C      0   0   0     0.000000000000     0.00000000     0.00000000
 N      1   0   0     2.137947714453     0.00000000     0.00000000
 H      1   2   0     2.000711290174   179.99999361     0.00000000

---------------------
BASIS SET INFORMATION
---------------------
There are 3 groups of distinct atoms

 Group   1 Type C   : 10s4p1d contracted to 3s2p1d pattern {631/31/1}
 Group   2 Type N   : 10s4p1d contracted to 3s2p1d pattern {631/31/1}
 Group   3 Type H   : 4s contracted to 2s pattern {31}

Atom   0C    basis set group =>   1
Atom   1N    basis set group =>   2
Atom   2H    basis set group =>   3
------------------------------------------------------------------------------
                           ORCA GTO INTEGRAL CALCULATION
------------------------------------------------------------------------------

                         BASIS SET STATISTICS AND STARTUP INFO

 # of primitive gaussian shells          ...   34
 # of primitive gaussian functions       ...   58
 # of contracted shells                  ...   14
 # of contracted basis functions         ...   30
 Highest angular momentum                ...    2
 Maximum contraction depth               ...    6
 Integral package used                   ... LIBINT
 Integral threshhold            Thresh   ...  1.000e-10
 Primitive cut-off              TCut     ...  1.000e-11


------------------------------ INTEGRAL EVALUATION ----------------------------


 * One electron integrals 
 Pre-screening matrix                    ... done
 Shell pair data                         ... done (   0.000 sec)

-------------------------------------------------------------------------------
                                 ORCA SCF
-------------------------------------------------------------------------------

------------
SCF SETTINGS
------------
Hamiltonian:
 Density Functional     Method          .... DFT(GTOs)
 Exchange Functional    Exchange        .... WB97X-D3
 Correlation Functional Correlation     .... WB97X-D3
 Gradients option       PostSCFGGA      .... off
 Hybrid DFT is turned on
   Fraction HF Exchange ScalHFX         ....  0.195728
   Scaling of DF-GGA-X  ScalDFX         ....  0.000000
   Scaling of DF-GGA-C  ScalDFC         ....  1.000000
   Scaling of DF-LDA-C  ScalLDAC        ....  1.000000
   Perturbative correction              ....  0.000000
 Long-range corrected/Screened/Range-Separated Hybrid DFT is turned on
   Amount of maximum screened exact exchange              ....  0.804272
   Range separation parameter mu (erf(mu*r12)/r12)        ....  0.250000


General Settings:
 Integral files         IntName         .... Scan_7
 Hartree-Fock type      HFTyp           .... RHF
 Total Charge           Charge          ....    0
 Multiplicity           Mult            ....    1
 Number of Electrons    NEL             ....   14
 Basis Dimension        Dim             ....   30
 Nuclear Repulsion      ENuc            ....     24.3353105762 Eh

Convergence Acceleration:
 DIIS                   CNVDIIS         .... on
   Start iteration      DIISMaxIt       ....     0
   Startup error        DIISStart       ....  0.200000
   # of expansion vecs  DIISMaxEq       ....     5
   Bias factor          DIISBfac        ....   1.050
   Max. coefficient     DIISMaxC        ....  10.000
 Newton-Raphson         CNVNR           .... off
 SOSCF                  CNVSOSCF        .... off
 Level Shifting         CNVShift        .... off
 Zerner damping         CNVZerner       .... off
 Static damping         CNVDamp         .... off
 Fernandez-Rico         CNVRico         .... off

SCF Procedure:
 Maximum # iterations   MaxIter         ....   999
 SCF integral mode      SCFMode         .... Direct
   Integral package                     .... LIBINT
 Reset frequeny         DirectResetFreq ....    20
 Integral Threshold     Thresh          ....  1.000e-10 Eh
 Primitive CutOff       TCut            ....  1.000e-11 Eh

Convergence Tolerance:
 Convergence Check Mode ConvCheckMode   .... All-Criteria
 Convergence forced     ConvForced      .... 0
 Energy Change          TolE            ....  1.000e-06 Eh
 Max Density Change     TolMaxP         ....  1.000e-05
 RMS Density Change     TolRMSP         ....  1.000e-06
 DIIS Error             TolErr          ....  1.000e-06


Diagonalization of the overlap matrix:
Smallest eigenvalue                        ... 4.042e-03
Time for diagonalization                   ...    0.001 sec
Threshold for overlap eigenvalues          ... 1.000e-08
Number of eigenvalues below threshold      ... 0
Time for construction of square roots      ...    0.005 sec
Total time needed                          ...    0.005 sec

-------------------
DFT GRID GENERATION
-------------------

General Integration Accuracy     IntAcc      ...  4.340
Radial Grid Type                 RadialGrid  ... Gauss-Chebyshev
Angular Grid (max. acc.)         AngularGrid ... Lebedev-110
Angular grid pruning method      GridPruning ... 3 (G Style)
Weight generation scheme         WeightScheme... Becke
Basis function cutoff            BFCut       ...    1.0000e-10
Integration weight cutoff        WCut        ...    1.0000e-14
Grids for H and He will be reduced by one unit

# of grid points (after initial pruning)     ...   4152 (   0.0 sec)
# of grid points (after weights+screening)   ...   4100 (   0.0 sec)
nearest neighbour list constructed           ...    0.0 sec
Grid point re-assignment to atoms done       ...    0.0 sec
Grid point division into batches done        ...    0.0 sec
Reduced shell lists constructed in    0.0 sec

Total number of grid points                  ...     4100
Total number of batches                      ...       66
Average number of points per batch           ...       62
Average number of grid points per atom       ...     1367
Average number of shells per batch           ...    12.25 (87.53%)
Average number of basis functions per batch  ...    26.67 (88.91%)
Average number of large shells per batch     ...    11.51 (93.91%)
Average number of large basis fcns per batch ...    25.66 (96.19%)
Maximum spatial batch extension              ...  18.07, 25.60, 31.36 au
Average spatial batch extension              ...   4.26,  6.58,  6.23 au

Time for grid setup =    0.025 sec

------------------------------
INITIAL GUESS: MODEL POTENTIAL
------------------------------
Loading Hartree-Fock densities                     ... done
Calculating cut-offs                               ... done
Setting up the integral package                    ... done
Initializing the effective Hamiltonian             ... done
Starting the Coulomb interaction                   ... done (   0.0 sec)
Reading the grid                                   ... done
Mapping shells                                     ... done
Starting the XC term evaluation                    ... done (   0.0 sec)
  promolecular density results
     # of electrons  =     13.999804799
     EX              =    -11.854995107
     EC              =     -0.433699768
     EX+EC           =    -12.288694875
Transforming the Hamiltonian                       ... done (   0.0 sec)
Diagonalizing the Hamiltonian                      ... done (   0.0 sec)
Back transforming the eigenvectors                 ... done (   0.0 sec)
Now organizing SCF variables                       ... done
                      ------------------
                      INITIAL GUESS DONE (   0.1 sec)
                      ------------------
--------------
SCF ITERATIONS
--------------
ITER       Energy         Delta-E        Max-DP      RMS-DP      [F,P]   Gradient Norm
               ***  Starting incremental Fock matrix formation  ***
                             ****Resetting KDIIS****
                             ****Turning on KDIIS(Cayley)****
  0    -93.3074075944   0.000000000000 0.03474794  0.00261994  0.1117245   0.107229132
  1    -93.3383310414  -0.030923446988 0.02046051  0.00217602  0.0824679   0.082074021
  2    -93.3551952407  -0.016864199343 0.03375242  0.00329657  0.0691542   0.066797188
  3    -93.3745528968  -0.019357656012 0.05145259  0.00504076  0.0429961   0.041778619
  4    -93.3868153676  -0.012262470862 0.00257716  0.00021377  0.0039328   0.002982828
  5    -93.3868529602  -0.000037592583 0.01377439  0.00111385  0.0031013   0.002291892
Warning: badly conditioned DIIS matrix, 1 vectors out of 5 destroyed
  6    -93.3869016724  -0.000048712247 0.00314422  0.00028014  0.0011146   0.001038496
Warning: badly conditioned DIIS matrix, 1 vectors out of 5 destroyed
  7    -93.3869114622  -0.000009789746 0.00005276  0.00000437  0.0000215   0.000018477
                          ***Energy convergence achieved***
  8    -93.3869114647  -0.000000002485 0.00001603  0.00000125  0.0000027   0.000002656
                           ***RMSP convergence achieved***
                           ***MAXP convergence achieved***
                    *** KDIIS BlockDiag ( 0.000 sec) ***

               *****************************************************
               *                     SUCCESS                       *
               *           SCF CONVERGED AFTER   9 CYCLES          *
               *****************************************************

Setting up the final grid:

General Integration Accuracy     IntAcc      ...  4.670
Radial Grid Type                 RadialGrid  ... Gauss-Chebyshev
Angular Grid (max. acc.)         AngularGrid ... Lebedev-302
Angular grid pruning method      GridPruning ... 3 (G Style)
Weight generation scheme         WeightScheme... Becke
Basis function cutoff            BFCut       ...    1.0000e-10
Integration weight cutoff        WCut        ...    1.0000e-14
Grids for H and He will be reduced by one unit

# of grid points (after initial pruning)     ...  15818 (   0.0 sec)
# of grid points (after weights+screening)   ...  15660 (   0.0 sec)
nearest neighbour list constructed           ...    0.0 sec
Grid point re-assignment to atoms done       ...    0.0 sec
Grid point division into batches done        ...    0.1 sec
Reduced shell lists constructed in    0.1 sec

Total number of grid points                  ...    15660
Total number of batches                      ...      247
Average number of points per batch           ...       63
Average number of grid points per atom       ...     5220
Average number of shells per batch           ...    11.19 (79.95%)
Average number of basis functions per batch  ...    24.56 (81.88%)
Average number of large shells per batch     ...    10.25 (91.61%)
Average number of large basis fcns per batch ...    22.66 (92.24%)
Maximum spatial batch extension              ...  20.29, 20.30, 25.05 au
Average spatial batch extension              ...   3.16,  4.07,  4.18 au

Final grid set up in    0.1 sec
Final integration                            ... done (   0.1 sec)
Change in XC energy                          ...     0.000002089
Integrated number of electrons               ...    13.999999106
Previous integrated no of electrons          ...    13.998535693

----------------
TOTAL SCF ENERGY
----------------

Total Energy       :          -93.38690938 Eh           -2541.18700 eV

Components:
Nuclear Repulsion  :           24.33531058 Eh             662.19747 eV
Electronic Energy  :         -117.72221995 Eh           -3203.38446 eV
One Electron Energy:         -173.66711971 Eh           -4725.72258 eV
Two Electron Energy:           55.94489976 Eh            1522.33812 eV

Virial components:
Potential Energy   :         -186.27363099 Eh           -5068.76319 eV
Kinetic Energy     :           92.88672161 Eh            2527.57619 eV
Virial Ratio       :            2.00538492


DFT components:
N(Alpha)           :        6.999999552941 electrons
N(Beta)            :        6.999999552941 electrons
N(Total)           :       13.999999105881 electrons
E(XC)              :       -8.736314781198 Eh       

---------------
SCF CONVERGENCE
---------------

  Last Energy change         ...   -5.0008e-11  Tolerance :   1.0000e-06
  Last MAX-Density change    ...    1.4139e-06  Tolerance :   1.0000e-05
  Last RMS-Density change    ...    1.2226e-07  Tolerance :   1.0000e-06
  Last DIIS Error            ...    3.3538e-07  Tolerance :   1.0000e-06

             **** THE GBW FILE WAS UPDATED (Scan_7.gbw) ****
             **** DENSITY FILE WAS UPDATED (Scan_7.scfp.tmp) ****
             **** ENERGY FILE WAS UPDATED (Scan_7.en.tmp) ****
----------------
ORBITAL ENERGIES
----------------

  NO   OCC          E(Eh)            E(eV) 
   0   2.0000     -14.455363      -393.3504 
   1   2.0000     -10.333925      -281.2004 
   2   2.0000      -1.042435       -28.3661 
   3   2.0000      -0.712978       -19.4011 
   4   2.0000      -0.477683       -12.9984 
   5   2.0000      -0.461461       -12.5570 
   6   2.0000      -0.461455       -12.5568 
   7   0.0000       0.122216         3.3257 
   8   0.0000       0.122227         3.3260 
   9   0.0000       0.186191         5.0665 
  10   0.0000       0.370749        10.0886 
  11   0.0000       0.621925        16.9235 
  12   0.0000       0.621936        16.9237 
  13   0.0000       0.743626        20.2351 
  14   0.0000       0.804149        21.8820 
  15   0.0000       0.881704        23.9924 
  16   0.0000       0.881704        23.9924 
  17   0.0000       0.933648        25.4059 
  18   0.0000       1.252939        34.0942 
  19   0.0000       1.592224        43.3266 
  20   0.0000       1.592616        43.3373 
  21   0.0000       1.592785        43.3419 
  22   0.0000       1.648002        44.8444 
  23   0.0000       1.648010        44.8446 
  24   0.0000       2.063906        56.1617 
  25   0.0000       2.063930        56.1624 
  26   0.0000       2.680559        72.9417 
  27   0.0000       2.680568        72.9420 
  28   0.0000       2.780426        75.6592 
  29   0.0000       3.165701        86.1431 

                    ********************************
                    * MULLIKEN POPULATION ANALYSIS *
                    ********************************

-----------------------
MULLIKEN ATOMIC CHARGES
-----------------------
   0 C :   -0.008920
   1 N :   -0.266902
   2 H :    0.275822
Sum of atomic charges:    0.0000000

--------------------------------
MULLIKEN REDUCED ORBITAL CHARGES
--------------------------------
  0 C s       :     3.139259  s :     3.139259
      pz      :     0.934749  p :     2.834533
      px      :     0.964996
      py      :     0.934788
      dz2     :     0.003678  d :     0.035128
      dxz     :     0.010202
      dyz     :     0.000009
      dx2y2   :     0.011032
      dxy     :     0.010206
  1 N s       :     3.761237  s :     3.761237
      pz      :     1.039263  p :     3.461579
      px      :     1.382783
      py      :     1.039534
      dz2     :     0.003133  d :     0.044086
      dxz     :     0.015763
      dyz     :     0.000014
      dx2y2   :     0.009422
      dxy     :     0.015754
  2 H s       :     0.724178  s :     0.724178


                     *******************************
                     * LOEWDIN POPULATION ANALYSIS *
                     *******************************

----------------------
LOEWDIN ATOMIC CHARGES
----------------------
   0 C :   -0.118972
   1 N :   -0.059355
   2 H :    0.178328

-------------------------------
LOEWDIN REDUCED ORBITAL CHARGES
-------------------------------
  0 C s       :     3.015920  s :     3.015920
      pz      :     0.924990  p :     3.025154
      px      :     1.174937
      py      :     0.925227
      dz2     :     0.009312  d :     0.077898
      dxz     :     0.020310
      dyz     :     0.000018
      dx2y2   :     0.027910
      dxy     :     0.020347
  1 N s       :     3.423357  s :     3.423357
      pz      :     1.031958  p :     3.559049
      px      :     1.494747
      py      :     1.032344
      dz2     :     0.007875  d :     0.076949
      dxz     :     0.022704
      dyz     :     0.000020
      dx2y2   :     0.023624
      dxy     :     0.022726
  2 H s       :     0.821672  s :     0.821672


                      *****************************
                      * MAYER POPULATION ANALYSIS *
                      *****************************

  NA   - Mulliken gross atomic population
  ZA   - Total nuclear charge
  QA   - Mulliken gross atomic charge
  VA   - Mayer's total valence
  BVA  - Mayer's bonded valence
  FA   - Mayer's free valence

  ATOM       NA         ZA         QA         VA         BVA        FA
  0 C      6.0089     6.0000    -0.0089     3.9021     3.9021    -0.0000
  1 N      7.2669     7.0000    -0.2669     3.0384     3.0384     0.0000
  2 H      0.7242     1.0000     0.2758     0.8934     0.8934     0.0000

  Mayer bond orders larger than 0.1
B(  0-C ,  1-N ) :   3.0235 B(  0-C ,  2-H ) :   0.8786 

-------
TIMINGS
-------

Total SCF time: 0 days 0 hours 0 min 3 sec 

Total time                  ....       3.635 sec
Sum of individual times     ....       3.492 sec  ( 96.1%)

Fock matrix formation       ....       3.199 sec  ( 88.0%)
  XC integration            ....       0.843 sec  ( 26.4% of F)
    Basis function eval.    ....       0.180 sec  ( 21.4% of XC)
    Density eval.           ....       0.029 sec  (  3.4% of XC)
    XC-Functional eval.     ....       0.160 sec  ( 18.9% of XC)
    XC-Potential eval.      ....       0.024 sec  (  2.8% of XC)
Diagonalization             ....       0.020 sec  (  0.5%)
Density matrix formation    ....       0.000 sec  (  0.0%)
Population analysis         ....       0.011 sec  (  0.3%)
Initial guess               ....       0.112 sec  (  3.1%)
Orbital Transformation      ....       0.000 sec  (  0.0%)
Orbital Orthonormalization  ....       0.000 sec  (  0.0%)
DIIS solution               ....       0.000 sec  (  0.0%)
Grid generation             ....       0.150 sec  (  4.1%)


-------------------------------------------------------------------------------
                          DFT DISPERSION CORRECTION                            
                                                                               
                              DFTD3 V3.1  Rev 1                                
                              USING zero damping                               
-------------------------------------------------------------------------------
The omegaB97X-D3 functional is recognized. Fit by Chai et al.
Active option DFTDOPT                   ...         3   

molecular C6(AA) [au] = 141.159195 


            DFT-D V3
 parameters
 s6 scaling factor         :     1.0000 
 rs6 scaling factor        :     1.2810 
 s8 scaling factor         :     1.0000 
 rs8 scaling factor        :     1.0940 
 Damping factor alpha6     :    14.0000 
 Damping factor alpha8     :    16.0000 
 ad hoc parameters k1-k3   :    16.0000     1.3333    -4.0000 

 Edisp/kcal,au: -0.012951219456  -0.000020639080 
 E6   /kcal   :  -0.001809420 
 E8   /kcal   :  -0.011141799 
 % E8         :  86.028957519 

-------------------------   ----------------
Dispersion correction           -0.000020639
-------------------------   ----------------


-------------------------   --------------------
FINAL SINGLE POINT ENERGY       -93.386930015213
-------------------------   --------------------


                            ***************************************
                            *     ORCA property calculations      *
                            ***************************************

                                    ---------------------
                                    Active property flags
                                    ---------------------
   (+) Dipole Moment


------------------------------------------------------------------------------
                       ORCA ELECTRIC PROPERTIES CALCULATION
------------------------------------------------------------------------------

Dipole Moment Calculation                       ... on
Quadrupole Moment Calculation                   ... off
Polarizability Calculation                      ... off
GBWName                                         ... Scan_7.gbw
Electron density file                           ... Scan_7.scfp.tmp

-------------
DIPOLE MOMENT
-------------
                                X             Y             Z
Electronic contribution:      0.33594       0.00988       0.00000
Nuclear contribution   :     -1.50246      -0.04440       0.00000
                        -----------------------------------------
Total Dipole Moment    :     -1.16652      -0.03451       0.00000
                        -----------------------------------------
Magnitude (a.u.)       :      1.16703
Magnitude (Debye)      :      2.96635


Timings for individual modules:

Sum of individual times         ...        3.953 sec (=   0.066 min)
GTO integral calculation        ...        0.295 sec (=   0.005 min)   7.5 %
SCF iterations                  ...        3.658 sec (=   0.061 min)  92.5 %
                             ****ORCA TERMINATED NORMALLY****
TOTAL RUN TIME: 0 days 0 hours 0 minutes 4 seconds 295 msec
