
                                 *****************
                                 * O   R   C   A *
                                 *****************

           --- An Ab Initio, DFT and Semiempirical electronic structure package ---

                  #######################################################
                  #                        -***-                        #
                  #  Department of molecular theory and spectroscopy    #
                  #              Directorship: Frank Neese              #
                  # Max Planck Institute for Chemical Energy Conversion #
                  #                  D-45470 Muelheim/Ruhr              #
                  #                       Germany                       #
                  #                                                     #
                  #                  All rights reserved                #
                  #                        -***-                        #
                  #######################################################


                         Program Version 4.0.0.2 - RELEASE -


 With contributions from (in alphabetic order):
   Daniel Aravena         : Magnetic Properties
   Michael Atanasov       : Ab Initio Ligand Field Theory
   Ute Becker             : Parallelization
   Martin Brehm           : Molecular dynamics
   Dmytro Bykov           : SCF Hessian
   Vijay G. Chilkuri      : MRCI spin determinant printing
   Dipayan Datta          : RHF DLPNO-CCSD density
   Achintya Kumar Dutta   : EOM-CC, STEOM-CC
   Dmitry Ganyushin       : Spin-Orbit,Spin-Spin,Magnetic field MRCI
   Yang Guo               : DLPNO-NEVPT2, CIM, IAO-localization
   Andreas Hansen         : Spin unrestricted coupled pair/coupled cluster methods
   Lee Huntington         : MR-EOM, pCC
   Robert Izsak           : Overlap fitted RIJCOSX, COSX-SCS-MP3, EOM
   Christian Kollmar      : KDIIS, OOCD, Brueckner-CCSD(T), CCSD density
   Simone Kossmann        : Meta GGA functionals, TD-DFT gradient, OOMP2, MP2 Hessian
   Martin Krupicka        : AUTO-CI
   Dagmar Lenk            : GEPOL surface
   Dimitrios Liakos       : Extrapolation schemes; parallel MDCI
   Dimitrios Manganas     : ROCIS; embedding schemes
   Dimitrios Pantazis     : SARC Basis sets
   Taras Petrenko         : DFT Hessian,TD-DFT gradient, ASA, ECA, R-Raman, ABS, FL, XAS/XES, NRVS
   Peter Pinski           : DLPNO-MP2
   Christoph Reimann      : Effective Core Potentials
   Marius Retegan         : Local ZFS, SOC
   Christoph Riplinger    : Optimizer, TS searches, QM/MM, DLPNO-CCSD(T), (RO)-DLPNO pert. Triples
   Tobias Risthaus        : Range-separated hybrids, TD-DFT gradient, RPA, STAB
   Michael Roemelt        : Restricted open shell CIS
   Masaaki Saitow         : Open-shell DLPNO
   Barbara Sandhoefer     : DKH picture change effects
   Kantharuban Sivalingam : CASSCF convergence, NEVPT2, FIC-MRCI
   Georgi Stoychev        : AutoAux
   Boris Wezisla          : Elementary symmetry handling
   Frank Wennmohs         : Technical directorship


 We gratefully acknowledge several colleagues who have allowed us to
 interface, adapt or use parts of their codes:
   Stefan Grimme, W. Hujo, H. Kruse,             : VdW corrections, initial TS optimization,
                  C. Bannwarth                     DFT functionals, gCP, sTDA/sTD-DF
   Ed Valeev                                     : LibInt (2-el integral package), F12 methods
   Garnet Chan, S. Sharma, J. Yang, R. Olivares  : DMRG
   Ulf Ekstrom                                   : XCFun DFT Library
   Mihaly Kallay                                 : mrcc  (arbitrary order and MRCC methods)
   Jiri Pittner, Ondrej Demel                    : Mk-CCSD
   Frank Weinhold                                : gennbo (NPA and NBO analysis)
   Christopher J. Cramer and Donald G. Truhlar   : smd solvation model


 Your calculation uses the libint2 library for the computation of 2-el integrals
 For citations please refer to: http://libint.valeyev.net

 This ORCA versions uses:
   CBLAS   interface :  Fast vector & matrix operations
   LAPACKE interface :  Fast linear algebra routines
   SCALAPACK package :  Parallel linear algebra routines


Your calculation utilizes the atom-pairwise dispersion correction
with the zero-damping scheme (D30)
Cite in your paper:
S.Grimme, J.Antony, S.Ehrlich and H.Krieg, J.Chem.Phys., 132, (2010), 154104 
   

XCFun DFT library Copyright 2009-2010 Ulf Ekstrom and contributors.
See http://admol.org/xcfun for more information. This is free soft-
ware; see the source code for copying conditions. There is ABSOLUTELY
NO WARRANTY; not even for MERCHANTABILITY or FITNESS FOR A PARTICULAR
PURPOSE. For details see the documentation. Scientific users of this 
library should cite U. Ekstrom, L. Visscher, R. Bast, A. J. Thorvald-
sen and K. Ruud; J.Chem.Theor.Comp. 2010, DOI: 10.1021/ct100117s
XCFun Version 0.99 
Your calculation utilizes the basis: 6-31G(d)
   H-He, Li-Ne : W. J. Hehre, R. Ditchfield and J.A. Pople, J. Chem. Phys. 56, 2257 (1972).
                 Note: He and Ne are unpublished basis sets taken from the Gaussian program.
                 Note: Li and B from J. D. Dill and J. A. Pople, J. Chem. Phys. 62, 2921 (1975).
   Na - Ar     : M. M. Francl, W. J. Pietro, W. J. Hehre, J. S. Binkley, M. S. Gordon, 
                 D. J. DeFrees and J. A. Pople, J. Chem. Phys. 77, 3654 (1982).
   K - Zn      : V. A. Rassolov, J. A. Pople, M. A. Ratner, and T. L. Windus, J. Chem. Phys. 109, 1223 (1998).

================================================================================
                                        WARNINGS
                       Please study these warnings very carefully!
================================================================================

Warning: TCutStore was < 0. Adjusted to Thresh (uncritical)

INFO   : the flag for use of LIBINT has been found!

================================================================================
                                       INPUT FILE
================================================================================
NAME = initial8.inp
|  1> ! WB97X-D3 6-31G(d) VerySlowConv
|  2> ! KDIIS NOSOSCF
|  3> %base "Scan_8"
|  4> 
|  5> %scf
|  6> maxiter 999
|  7> end
|  8> 
|  9> * xyz 0 1
| 10> C         -3.514041925963    0.399835237234    0.000000000000
| 11> N         -2.354804754120    0.434089566767    0.000000000000
| 12> H         -4.570933319917    0.368605195999   -0.000000000000
| 13> **                         ****END OF INPUT****
================================================================================

                       ****************************
                       * Single Point Calculation *
                       ****************************

---------------------------------
CARTESIAN COORDINATES (ANGSTROEM)
---------------------------------
  C     -3.514042    0.399835    0.000000
  N     -2.354805    0.434090    0.000000
  H     -4.570933    0.368605   -0.000000

----------------------------
CARTESIAN COORDINATES (A.U.)
----------------------------
  NO LB      ZA    FRAG     MASS         X           Y           Z
   0 C     6.0000    0    12.011   -6.640577    0.755579    0.000000
   1 N     7.0000    0    14.007   -4.449936    0.820310    0.000000
   2 H     1.0000    0     1.008   -8.637812    0.696563   -0.000000

--------------------------------
INTERNAL COORDINATES (ANGSTROEM)
--------------------------------
 C      0   0   0     0.000000000000     0.00000000     0.00000000
 N      1   0   0     1.159743152458     0.00000000     0.00000000
 H      1   2   0     1.057352700895   179.99999600     0.00000000

---------------------------
INTERNAL COORDINATES (A.U.)
---------------------------
 C      0   0   0     0.000000000000     0.00000000     0.00000000
 N      1   0   0     2.191596943837     0.00000000     0.00000000
 H      1   2   0     1.998107031653   179.99999600     0.00000000

---------------------
BASIS SET INFORMATION
---------------------
There are 3 groups of distinct atoms

 Group   1 Type C   : 10s4p1d contracted to 3s2p1d pattern {631/31/1}
 Group   2 Type N   : 10s4p1d contracted to 3s2p1d pattern {631/31/1}
 Group   3 Type H   : 4s contracted to 2s pattern {31}

Atom   0C    basis set group =>   1
Atom   1N    basis set group =>   2
Atom   2H    basis set group =>   3
------------------------------------------------------------------------------
                           ORCA GTO INTEGRAL CALCULATION
------------------------------------------------------------------------------

                         BASIS SET STATISTICS AND STARTUP INFO

 # of primitive gaussian shells          ...   34
 # of primitive gaussian functions       ...   58
 # of contracted shells                  ...   14
 # of contracted basis functions         ...   30
 Highest angular momentum                ...    2
 Maximum contraction depth               ...    6
 Integral package used                   ... LIBINT
 Integral threshhold            Thresh   ...  1.000e-10
 Primitive cut-off              TCut     ...  1.000e-11


------------------------------ INTEGRAL EVALUATION ----------------------------


 * One electron integrals 
 Pre-screening matrix                    ... done
 Shell pair data                         ... done (   0.000 sec)

-------------------------------------------------------------------------------
                                 ORCA SCF
-------------------------------------------------------------------------------

------------
SCF SETTINGS
------------
Hamiltonian:
 Density Functional     Method          .... DFT(GTOs)
 Exchange Functional    Exchange        .... WB97X-D3
 Correlation Functional Correlation     .... WB97X-D3
 Gradients option       PostSCFGGA      .... off
 Hybrid DFT is turned on
   Fraction HF Exchange ScalHFX         ....  0.195728
   Scaling of DF-GGA-X  ScalDFX         ....  0.000000
   Scaling of DF-GGA-C  ScalDFC         ....  1.000000
   Scaling of DF-LDA-C  ScalLDAC        ....  1.000000
   Perturbative correction              ....  0.000000
 Long-range corrected/Screened/Range-Separated Hybrid DFT is turned on
   Amount of maximum screened exact exchange              ....  0.804272
   Range separation parameter mu (erf(mu*r12)/r12)        ....  0.250000


General Settings:
 Integral files         IntName         .... Scan_8
 Hartree-Fock type      HFTyp           .... RHF
 Total Charge           Charge          ....    0
 Multiplicity           Mult            ....    1
 Number of Electrons    NEL             ....   14
 Basis Dimension        Dim             ....   30
 Nuclear Repulsion      ENuc            ....     23.8377123346 Eh

Convergence Acceleration:
 DIIS                   CNVDIIS         .... on
   Start iteration      DIISMaxIt       ....     0
   Startup error        DIISStart       ....  0.200000
   # of expansion vecs  DIISMaxEq       ....     5
   Bias factor          DIISBfac        ....   1.050
   Max. coefficient     DIISMaxC        ....  10.000
 Newton-Raphson         CNVNR           .... off
 SOSCF                  CNVSOSCF        .... off
 Level Shifting         CNVShift        .... off
 Zerner damping         CNVZerner       .... off
 Static damping         CNVDamp         .... off
 Fernandez-Rico         CNVRico         .... off

SCF Procedure:
 Maximum # iterations   MaxIter         ....   999
 SCF integral mode      SCFMode         .... Direct
   Integral package                     .... LIBINT
 Reset frequeny         DirectResetFreq ....    20
 Integral Threshold     Thresh          ....  1.000e-10 Eh
 Primitive CutOff       TCut            ....  1.000e-11 Eh

Convergence Tolerance:
 Convergence Check Mode ConvCheckMode   .... All-Criteria
 Convergence forced     ConvForced      .... 0
 Energy Change          TolE            ....  1.000e-06 Eh
 Max Density Change     TolMaxP         ....  1.000e-05
 RMS Density Change     TolRMSP         ....  1.000e-06
 DIIS Error             TolErr          ....  1.000e-06


Diagonalization of the overlap matrix:
Smallest eigenvalue                        ... 4.368e-03
Time for diagonalization                   ...    0.001 sec
Threshold for overlap eigenvalues          ... 1.000e-08
Number of eigenvalues below threshold      ... 0
Time for construction of square roots      ...    0.005 sec
Total time needed                          ...    0.005 sec

-------------------
DFT GRID GENERATION
-------------------

General Integration Accuracy     IntAcc      ...  4.340
Radial Grid Type                 RadialGrid  ... Gauss-Chebyshev
Angular Grid (max. acc.)         AngularGrid ... Lebedev-110
Angular grid pruning method      GridPruning ... 3 (G Style)
Weight generation scheme         WeightScheme... Becke
Basis function cutoff            BFCut       ...    1.0000e-10
Integration weight cutoff        WCut        ...    1.0000e-14
Grids for H and He will be reduced by one unit

# of grid points (after initial pruning)     ...   4152 (   0.0 sec)
# of grid points (after weights+screening)   ...   4100 (   0.0 sec)
nearest neighbour list constructed           ...    0.0 sec
Grid point re-assignment to atoms done       ...    0.0 sec
Grid point division into batches done        ...    0.0 sec
Reduced shell lists constructed in    0.0 sec

Total number of grid points                  ...     4100
Total number of batches                      ...       65
Average number of points per batch           ...       63
Average number of grid points per atom       ...     1367
Average number of shells per batch           ...    12.21 (87.23%)
Average number of basis functions per batch  ...    26.61 (88.69%)
Average number of large shells per batch     ...    11.39 (93.30%)
Average number of large basis fcns per batch ...    25.52 (95.90%)
Maximum spatial batch extension              ...  18.13, 25.60, 31.36 au
Average spatial batch extension              ...   4.26,  6.68,  6.30 au

Time for grid setup =    0.025 sec

------------------------------
INITIAL GUESS: MODEL POTENTIAL
------------------------------
Loading Hartree-Fock densities                     ... done
Calculating cut-offs                               ... done
Setting up the integral package                    ... done
Initializing the effective Hamiltonian             ... done
Starting the Coulomb interaction                   ... done (   0.0 sec)
Reading the grid                                   ... done
Mapping shells                                     ... done
Starting the XC term evaluation                    ... done (   0.0 sec)
  promolecular density results
     # of electrons  =     13.999756881
     EX              =    -11.841558726
     EC              =     -0.432510046
     EX+EC           =    -12.274068772
Transforming the Hamiltonian                       ... done (   0.0 sec)
Diagonalizing the Hamiltonian                      ... done (   0.0 sec)
Back transforming the eigenvectors                 ... done (   0.0 sec)
Now organizing SCF variables                       ... done
                      ------------------
                      INITIAL GUESS DONE (   0.1 sec)
                      ------------------
--------------
SCF ITERATIONS
--------------
ITER       Energy         Delta-E        Max-DP      RMS-DP      [F,P]   Gradient Norm
               ***  Starting incremental Fock matrix formation  ***
                             ****Resetting KDIIS****
                             ****Turning on KDIIS(Cayley)****
  0    -93.3130074260   0.000000000000 0.03396093  0.00252543  0.1122653   0.104026601
  1    -93.3426913143  -0.029683888346 0.02163983  0.00216663  0.0829594   0.079044555
  2    -93.3589734415  -0.016282127173 0.03384906  0.00318851  0.0672531   0.064008005
  3    -93.3771659119  -0.018192470391 0.04945259  0.00472663  0.0403036   0.039291606
  4    -93.3878411841  -0.010675272204 0.00717980  0.00058213  0.0046928   0.003186766
  5    -93.3879218029  -0.000080618827 0.02317506  0.00186924  0.0024083   0.001750009
  6    -93.3878460340   0.000075768947 0.00753496  0.00063415  0.0045172   0.003829575
  7    -93.3879586440  -0.000112610053 0.00568811  0.00048851  0.0019396   0.001695619
  8    -93.3879855557  -0.000026911737 0.00007531  0.00000550  0.0000179   0.000019882
                          ***Energy convergence achieved***
  9    -93.3879855580  -0.000000002303 0.00002134  0.00000171  0.0000081   0.000006213
Warning: badly conditioned DIIS matrix, 1 vectors out of 5 destroyed
                           ***RMSP convergence achieved***
                           ***MAXP convergence achieved***
                    *** KDIIS BlockDiag ( 0.000 sec) ***

               *****************************************************
               *                     SUCCESS                       *
               *           SCF CONVERGED AFTER  10 CYCLES          *
               *****************************************************

Setting up the final grid:

General Integration Accuracy     IntAcc      ...  4.670
Radial Grid Type                 RadialGrid  ... Gauss-Chebyshev
Angular Grid (max. acc.)         AngularGrid ... Lebedev-302
Angular grid pruning method      GridPruning ... 3 (G Style)
Weight generation scheme         WeightScheme... Becke
Basis function cutoff            BFCut       ...    1.0000e-10
Integration weight cutoff        WCut        ...    1.0000e-14
Grids for H and He will be reduced by one unit

# of grid points (after initial pruning)     ...  15818 (   0.0 sec)
# of grid points (after weights+screening)   ...  15661 (   0.0 sec)
nearest neighbour list constructed           ...    0.0 sec
Grid point re-assignment to atoms done       ...    0.0 sec
Grid point division into batches done        ...    0.1 sec
Reduced shell lists constructed in    0.1 sec

Total number of grid points                  ...    15661
Total number of batches                      ...      246
Average number of points per batch           ...       63
Average number of grid points per atom       ...     5220
Average number of shells per batch           ...    11.19 (79.90%)
Average number of basis functions per batch  ...    24.52 (81.74%)
Average number of large shells per batch     ...    10.22 (91.39%)
Average number of large basis fcns per batch ...    22.64 (92.34%)
Maximum spatial batch extension              ...  20.34, 20.30, 25.05 au
Average spatial batch extension              ...   3.19,  4.09,  4.21 au

Final grid set up in    0.1 sec
Final integration                            ... done (   0.1 sec)
Change in XC energy                          ...    -0.000058168
Integrated number of electrons               ...    13.999995058
Previous integrated no of electrons          ...    13.998458743

----------------
TOTAL SCF ENERGY
----------------

Total Energy       :          -93.38804373 Eh           -2541.21786 eV

Components:
Nuclear Repulsion  :           23.83771233 Eh             648.65713 eV
Electronic Energy  :         -117.22575606 Eh           -3189.87499 eV
One Electron Energy:         -172.69238798 Eh           -4699.19878 eV
Two Electron Energy:           55.46663192 Eh            1509.32379 eV

Virial components:
Potential Energy   :         -186.12351160 Eh           -5064.67823 eV
Kinetic Energy     :           92.73546787 Eh            2523.46037 eV
Virial Ratio       :            2.00703696


DFT components:
N(Alpha)           :        6.999997528865 electrons
N(Beta)            :        6.999997528865 electrons
N(Total)           :       13.999995057730 electrons
E(XC)              :       -8.712014225341 Eh       

---------------
SCF CONVERGENCE
---------------

  Last Energy change         ...   -3.3299e-10  Tolerance :   1.0000e-06
  Last MAX-Density change    ...    2.7698e-06  Tolerance :   1.0000e-05
  Last RMS-Density change    ...    2.0533e-07  Tolerance :   1.0000e-06
  Last DIIS Error            ...    8.4182e-07  Tolerance :   1.0000e-06

             **** THE GBW FILE WAS UPDATED (Scan_8.gbw) ****
             **** DENSITY FILE WAS UPDATED (Scan_8.scfp.tmp) ****
             **** ENERGY FILE WAS UPDATED (Scan_8.en.tmp) ****
----------------
ORBITAL ENERGIES
----------------

  NO   OCC          E(Eh)            E(eV) 
   0   2.0000     -14.463509      -393.5721 
   1   2.0000     -10.341524      -281.4072 
   2   2.0000      -1.032573       -28.0977 
   3   2.0000      -0.716262       -19.4905 
   4   2.0000      -0.480290       -13.0694 
   5   2.0000      -0.454943       -12.3796 
   6   2.0000      -0.454938       -12.3795 
   7   0.0000       0.111229         3.0267 
   8   0.0000       0.111240         3.0270 
   9   0.0000       0.184010         5.0072 
  10   0.0000       0.372022        10.1232 
  11   0.0000       0.624184        16.9849 
  12   0.0000       0.624193        16.9851 
  13   0.0000       0.745851        20.2956 
  14   0.0000       0.793017        21.5791 
  15   0.0000       0.877504        23.8781 
  16   0.0000       0.877506        23.8781 
  17   0.0000       0.924343        25.1526 
  18   0.0000       1.214935        33.0601 
  19   0.0000       1.577763        42.9331 
  20   0.0000       1.600595        43.5544 
  21   0.0000       1.600758        43.5588 
  22   0.0000       1.625125        44.2219 
  23   0.0000       1.625129        44.2220 
  24   0.0000       2.046892        55.6988 
  25   0.0000       2.046927        55.6997 
  26   0.0000       2.649363        72.0928 
  27   0.0000       2.649372        72.0931 
  28   0.0000       2.738627        74.5218 
  29   0.0000       3.098260        84.3080 

                    ********************************
                    * MULLIKEN POPULATION ANALYSIS *
                    ********************************

-----------------------
MULLIKEN ATOMIC CHARGES
-----------------------
   0 C :   -0.003658
   1 N :   -0.273695
   2 H :    0.277354
Sum of atomic charges:   -0.0000000

--------------------------------
MULLIKEN REDUCED ORBITAL CHARGES
--------------------------------
  0 C s       :     3.152373  s :     3.152373
      pz      :     0.933401  p :     2.817789
      px      :     0.950961
      py      :     0.933427
      dz2     :     0.003639  d :     0.033496
      dxz     :     0.009466
      dyz     :     0.000008
      dx2y2   :     0.010912
      dxy     :     0.009472
  1 N s       :     3.786118  s :     3.786118
      pz      :     1.042228  p :     3.445519
      px      :     1.360814
      py      :     1.042477
      dz2     :     0.003066  d :     0.042058
      dxz     :     0.014884
      dyz     :     0.000013
      dx2y2   :     0.009219
      dxy     :     0.014876
  2 H s       :     0.722646  s :     0.722646


                     *******************************
                     * LOEWDIN POPULATION ANALYSIS *
                     *******************************

----------------------
LOEWDIN ATOMIC CHARGES
----------------------
   0 C :   -0.112557
   1 N :   -0.066592
   2 H :    0.179149

-------------------------------
LOEWDIN REDUCED ORBITAL CHARGES
-------------------------------
  0 C s       :     3.025654  s :     3.025654
      pz      :     0.924628  p :     3.013982
      px      :     1.164500
      py      :     0.924854
      dz2     :     0.008932  d :     0.072921
      dxz     :     0.018583
      dyz     :     0.000016
      dx2y2   :     0.026769
      dxy     :     0.018621
  1 N s       :     3.444992  s :     3.444992
      pz      :     1.035623  p :     3.549098
      px      :     1.477484
      py      :     1.035991
      dz2     :     0.007550  d :     0.072502
      dxz     :     0.021132
      dyz     :     0.000018
      dx2y2   :     0.022647
      dxy     :     0.021155
  2 H s       :     0.820851  s :     0.820851


                      *****************************
                      * MAYER POPULATION ANALYSIS *
                      *****************************

  NA   - Mulliken gross atomic population
  ZA   - Total nuclear charge
  QA   - Mulliken gross atomic charge
  VA   - Mayer's total valence
  BVA  - Mayer's bonded valence
  FA   - Mayer's free valence

  ATOM       NA         ZA         QA         VA         BVA        FA
  0 C      6.0037     6.0000    -0.0037     3.8718     3.8718     0.0000
  1 N      7.2737     7.0000    -0.2737     3.0100     3.0100    -0.0000
  2 H      0.7226     1.0000     0.2774     0.8922     0.8922    -0.0000

  Mayer bond orders larger than 0.1
B(  0-C ,  1-N ) :   2.9948 B(  0-C ,  2-H ) :   0.8770 

-------
TIMINGS
-------

Total SCF time: 0 days 0 hours 0 min 3 sec 

Total time                  ....       3.968 sec
Sum of individual times     ....       3.819 sec  ( 96.3%)

Fock matrix formation       ....       3.528 sec  ( 88.9%)
  XC integration            ....       0.926 sec  ( 26.2% of F)
    Basis function eval.    ....       0.194 sec  ( 20.9% of XC)
    Density eval.           ....       0.031 sec  (  3.4% of XC)
    XC-Functional eval.     ....       0.183 sec  ( 19.8% of XC)
    XC-Potential eval.      ....       0.027 sec  (  2.9% of XC)
Diagonalization             ....       0.005 sec  (  0.1%)
Density matrix formation    ....       0.000 sec  (  0.0%)
Population analysis         ....       0.023 sec  (  0.6%)
Initial guess               ....       0.114 sec  (  2.9%)
Orbital Transformation      ....       0.000 sec  (  0.0%)
Orbital Orthonormalization  ....       0.000 sec  (  0.0%)
DIIS solution               ....       0.000 sec  (  0.0%)
Grid generation             ....       0.149 sec  (  3.8%)


-------------------------------------------------------------------------------
                          DFT DISPERSION CORRECTION                            
                                                                               
                              DFTD3 V3.1  Rev 1                                
                              USING zero damping                               
-------------------------------------------------------------------------------
The omegaB97X-D3 functional is recognized. Fit by Chai et al.
Active option DFTDOPT                   ...         3   

molecular C6(AA) [au] = 141.159910 


            DFT-D V3
 parameters
 s6 scaling factor         :     1.0000 
 rs6 scaling factor        :     1.2810 
 s8 scaling factor         :     1.0000 
 rs8 scaling factor        :     1.0940 
 Damping factor alpha6     :    14.0000 
 Damping factor alpha8     :    16.0000 
 ad hoc parameters k1-k3   :    16.0000     1.3333    -4.0000 

 Edisp/kcal,au: -0.014256221603  -0.000022718733 
 E6   /kcal   :  -0.001995306 
 E8   /kcal   :  -0.012260915 
 % E8         :  86.003961869 

-------------------------   ----------------
Dispersion correction           -0.000022719
-------------------------   ----------------


-------------------------   --------------------
FINAL SINGLE POINT ENERGY       -93.388066445262
-------------------------   --------------------


                            ***************************************
                            *     ORCA property calculations      *
                            ***************************************

                                    ---------------------
                                    Active property flags
                                    ---------------------
   (+) Dipole Moment


------------------------------------------------------------------------------
                       ORCA ELECTRIC PROPERTIES CALCULATION
------------------------------------------------------------------------------

Dipole Moment Calculation                       ... on
Quadrupole Moment Calculation                   ... off
Polarizability Calculation                      ... off
GBWName                                         ... Scan_8.gbw
Electron density file                           ... Scan_8.scfp.tmp

-------------
DIPOLE MOMENT
-------------
                                X             Y             Z
Electronic contribution:      0.34707       0.01021       0.00000
Nuclear contribution   :     -1.51494      -0.04476       0.00000
                        -----------------------------------------
Total Dipole Moment    :     -1.16787      -0.03455       0.00000
                        -----------------------------------------
Magnitude (a.u.)       :      1.16838
Magnitude (Debye)      :      2.96979


Timings for individual modules:

Sum of individual times         ...        4.287 sec (=   0.071 min)
GTO integral calculation        ...        0.292 sec (=   0.005 min)   6.8 %
SCF iterations                  ...        3.995 sec (=   0.067 min)  93.2 %
                             ****ORCA TERMINATED NORMALLY****
TOTAL RUN TIME: 0 days 0 hours 0 minutes 4 seconds 818 msec
