5
Point_1/orca1.out	Energy:     -40.2799777
C         -4.47271        1.92592        0.00000
H         -3.61362        1.92592       -0.00000
H         -4.75907        2.15096        0.77807
H         -4.75907        1.13957       -0.19414
H         -4.75907        2.48723       -0.58392
