5
Point_10/orca10.out	Energy:     -40.4012519
C         -4.47271        1.92592        0.00000
H         -3.13859        1.92592       -0.00000
H         -4.91741        2.27540        1.20830
H         -4.91742        0.70476       -0.30149
H         -4.91742        2.79760       -0.90680
