5
Point_11/orca11.out	Energy:     -40.3325065
C         -4.47269        1.92593        0.00000
H         -3.04218        1.92591       -0.00000
H         -4.94955        2.30064        1.29560
H         -4.94955        0.61654       -0.32327
H         -4.94956        2.86057       -0.97232
