5
Point_12/orca12.out	Energy:     -40.2558607
C         -4.47262        1.92596        0.00000
H         -2.94099        1.92589       -0.00000
H         -4.98331        2.32711        1.38717
H         -4.98329        0.52402       -0.34610
H         -4.98332        2.92662       -1.04106
