5
Point_13/orca13.out	Energy:     -40.1743310
C         -4.47271        1.92592        0.00000
H         -2.83341        1.92592       -0.00001
H         -5.01914        2.35534        1.48469
H         -5.01914        0.42543       -0.37045
H         -5.01915        2.99699       -1.11423
