5
Point_14/orca14.out	Energy:     -40.0924732
C         -4.47269        1.92595        0.00000
H         -2.72034        1.92590       -0.00001
H         -5.05683        2.38494        1.58709
H         -5.05683        0.32197       -0.39599
H         -5.05685        3.07085       -1.19109
