5
Point_15/orca15.out	Energy:     -40.0149226
C         -4.47269        1.92595        0.00000
H         -2.60474        1.92590       -0.00001
H         -5.09537        2.41522        1.69179
H         -5.09536        0.21615       -0.42212
H         -5.09538        3.14638       -1.26967
