5
Point_16/orca16.out	Energy:     -39.9464190
C         -4.47271        1.92592        0.00000
H         -2.49234        1.92592       -0.00001
H         -5.13282        2.44469        1.79360
H         -5.13283        0.11324       -0.44753
H         -5.13284        3.21983       -1.34606
