5
Point_17/orca17.out	Energy:     -39.8856592
C         -4.47271        1.92592        0.00000
H         -2.38185        1.92592       -0.00001
H         -5.16965        2.47363        1.89366
H         -5.16966        0.01211       -0.47249
H         -5.16967        3.29202       -1.42116
