5
Point_18/orca18.out	Energy:     -39.8315710
C         -4.47271        1.92592        0.00000
H         -2.27238        1.92592       -0.00001
H         -5.20614        2.50231        1.99282
H         -5.20615       -0.08810       -0.49723
H         -5.20616        3.36355       -1.49557
