5
Point_19/orca19.out	Energy:     -39.7831675
C         -4.47271        1.92592        0.00000
H         -2.16335        1.92592       -0.00001
H         -5.24249        2.53087        2.09156
H         -5.24250       -0.18789       -0.52187
H         -5.24250        3.43479       -1.56967
