5
Point_2/orca2.out	Energy:     -40.3384597
C         -4.47271        1.92592        0.00000
H         -3.58631        1.92592       -0.00000
H         -4.76817        2.15812        0.80280
H         -4.76818        1.11458       -0.20031
H         -4.76818        2.50507       -0.60249
