5
Point_20/orca20.out	Energy:     -39.7397740
C         -4.47271        1.92592        0.00000
H         -2.05473        1.92592       -0.00001
H         -5.27869        2.55932        2.18994
H         -5.27871       -0.28731       -0.54642
H         -5.27871        3.50575       -1.64350
