5
Point_21/orca21.out	Energy:     -39.7008212
C         -4.47271        1.92592        0.00000
H         -1.94674        1.92592       -0.00001
H         -5.31469        2.58761        2.28774
H         -5.31470       -0.38616       -0.57082
H         -5.31470        3.57632       -1.71690
