5
Point_22/orca22.out	Energy:     -39.6657839
C         -4.47271        1.92592        0.00000
H         -1.83958        1.92592       -0.00001
H         -5.35041        2.61568        2.38479
H         -5.35042       -0.48424       -0.59504
H         -5.35042        3.64633       -1.78974
