5
Point_23/orca23.out	Energy:     -39.6341370
C         -4.47271        1.92592        0.00000
H         -1.73335        1.92592       -0.00001
H         -5.38582        2.64351        2.48100
H         -5.38583       -0.58148       -0.61904
H         -5.38583        3.71573       -1.86194
