5
Point_24/orca24.out	Energy:     -39.6053709
C         -4.47271        1.92592        0.00000
H         -1.62801        1.92592       -0.00001
H         -5.42093        2.67110        2.57641
H         -5.42094       -0.67790       -0.64285
H         -5.42095        3.78456       -1.93354
