5
Point_25/orca25.out	Energy:     -39.5791145
C         -4.47271        1.92592        0.00000
H         -1.52345        1.92592       -0.00001
H         -5.45578        2.69849        2.67111
H         -5.45580       -0.77361       -0.66648
H         -5.45580        3.85288       -2.00461
