5
Point_26/orca26.out	Energy:     -39.5550291
C         -4.47271        1.92592        0.00000
H         -1.41952        1.92592       -0.00001
H         -5.49043        2.72572        2.76524
H         -5.49044       -0.86874       -0.68996
H         -5.49045        3.92078       -2.07526
