5
Point_27/orca27.out	Energy:     -39.5328981
C         -4.47271        1.92592        0.00000
H         -1.31608        1.92592       -0.00001
H         -5.52491        2.75282        2.85893
H         -5.52492       -0.96342       -0.71334
H         -5.52493        3.98837       -2.14557
