5
Point_28/orca28.out	Energy:     -39.5125634
C         -4.47271        1.92592        0.00000
H         -1.21300        1.92592       -0.00001
H         -5.55926        2.77982        2.95228
H         -5.55928       -1.05777       -0.73664
H         -5.55929        4.05572       -2.21563
