5
Point_29/orca29.out	Energy:     -39.4938740
C         -4.47271        1.92592        0.00000
H         -1.11018        1.92592       -0.00001
H         -5.59354        2.80675        3.04541
H         -5.59356       -1.15189       -0.75987
H         -5.59356        4.12290       -2.28552
