5
Point_3/orca3.out	Energy:     -40.3910843
C         -4.47271        1.92592        0.00000
H         -3.55530        1.92592       -0.00000
H         -4.77851        2.16624        0.83088
H         -4.77851        1.08620       -0.20731
H         -4.77851        2.52533       -0.62356
