5
Point_30/orca30.out	Energy:     -39.4766931
C         -4.47271        1.92592        0.00000
H         -1.00754        1.92592       -0.00001
H         -5.62775        2.83364        3.13836
H         -5.62777       -1.24583       -0.78306
H         -5.62777        4.18996       -2.35528
