5
Point_31/orca31.out	Energy:     -39.4609238
C         -4.47271        1.92592        0.00000
H         -0.90503        1.92592       -0.00001
H         -5.66192        2.86049        3.23121
H         -5.66194       -1.33966       -0.80623
H         -5.66194        4.25694       -2.42496
