5
Point_32/orca32.out	Energy:     -39.4465074
C         -4.47271        1.92592        0.00000
H         -0.80260        1.92592       -0.00001
H         -5.69606        2.88732        3.32397
H         -5.69608       -1.43342       -0.82938
H         -5.69609        4.32386       -2.49458
