5
Point_33/orca33.out	Energy:     -39.4333309
C         -4.47271        1.92592        0.00000
H         -0.70023        1.92592       -0.00001
H         -5.73019        2.91414        3.41669
H         -5.73021       -1.52712       -0.85251
H         -5.73021        4.39075       -2.56416
