5
Point_34/orca34.out	Energy:     -39.4231531
C         -4.47271        1.92592        0.00000
H         -0.59789        1.92592       -0.00001
H         -5.76430        2.94095        3.50938
H         -5.76432       -1.62080       -0.87564
H         -5.76432        4.45761       -2.63372
