5
Point_35/orca35.out	Energy:     -39.4103492
C         -4.47271        1.92592        0.00000
H         -0.49558        1.92592       -0.00001
H         -5.79840        2.96775        3.60204
H         -5.79842       -1.71445       -0.89876
H         -5.79843        4.52446       -2.70326
