5
Point_36/orca36.out	Energy:     -39.4003681
C         -4.47271        1.92592        0.00000
H         -0.39327        1.92592       -0.00002
H         -5.83250        2.99455        3.69470
H         -5.83253       -1.80809       -0.92188
H         -5.83253        4.59130       -2.77280
