5
Point_37/orca37.out	Energy:     -39.3739209
C         -4.47271        1.92592        0.00000
H         -0.29098        1.92592       -0.00002
H         -5.86660        3.02134        3.78734
H         -5.86662       -1.90172       -0.94499
H         -5.86663        4.65814       -2.84233
