5
Point_38/orca38.out	Energy:     -39.4165018
C         -4.47271        1.92592        0.00000
H         -0.18869        1.92592       -0.00002
H         -5.90069        3.04814        3.87998
H         -5.90072       -1.99534       -0.96811
H         -5.90072        4.72497       -2.91185
