5
Point_39/orca39.out	Energy:     -39.4130953
C         -4.47271        1.92592        0.00000
H         -0.08641        1.92592       -0.00002
H         -5.93479        3.07493        3.97262
H         -5.93481       -2.08897       -0.99122
H         -5.93482        4.79180       -2.98137
