5
Point_4/orca4.out	Energy:     -40.4363338
C         -4.47271        1.92592        0.00000
H         -3.51958        1.92592       -0.00000
H         -4.79041        2.17560        0.86324
H         -4.79042        1.05350       -0.21539
H         -4.79042        2.54867       -0.64784
