5
Point_40/orca40.out	Energy:     -38.7934937
C         -4.47271        1.92592        0.00000
H          0.01587        1.92592       -0.00002
H         -5.96888        3.10173        4.06525
H         -5.96891       -2.18259       -1.01434
H         -5.96891        4.85863       -3.05089
