5
Point_41/orca41.out	Energy:     -38.7837761
C         -4.47271        1.92592        0.00000
H          0.11815        1.92592       -0.00002
H         -6.00298        3.12852        4.15789
H         -6.00300       -2.27621       -1.03745
H         -6.00301        4.92545       -3.12041
