5
Point_42/orca42.out	Energy:     -39.3577592
C         -4.47271        1.92592        0.00000
H          0.22043        1.92592       -0.00002
H         -6.03707        3.15531        4.25052
H         -6.03709       -2.36983       -1.06056
H         -6.03710        4.99228       -3.18993
