5
Point_43/orca43.out	Energy:     -38.9040609
C         -4.47271        1.92592        0.00000
H          0.32271        1.92591       -0.00002
H         -6.07116        3.18210        4.34316
H         -6.07119       -2.46344       -1.08368
H         -6.07119        5.05910       -3.25945
