5
Point_44/orca44.out	Energy:     -38.6142305
C         -4.47271        1.92592        0.00000
H          0.42499        1.92591       -0.00002
H         -6.10525        3.20890        4.43579
H         -6.10528       -2.55706       -1.10679
H         -6.10529        5.12593       -3.32897
