5
Point_45/orca45.out	Energy:     -38.3116439
C         -4.47271        1.92592        0.00000
H          0.52726        1.92591       -0.00002
H         -6.13934        3.23569        4.52842
H         -6.13937       -2.65068       -1.12990
H         -6.13938        5.19275       -3.39849
