5
Point_5/orca5.out	Energy:     -40.4717539
C         -4.47271        1.92592        0.00000
H         -3.47810        1.92592       -0.00000
H         -4.80424        2.18646        0.90081
H         -4.80425        1.01553       -0.22476
H         -4.80425        2.57577       -0.67604
