5
Point_6/orca6.out	Energy:     -40.4945488
C         -4.47271        1.92592        0.00000
H         -3.42917        1.92592       -0.00000
H         -4.82055        2.19928        0.94512
H         -4.82055        0.97074       -0.23582
H         -4.82056        2.60774       -0.70929
