5
Point_7/orca7.out	Energy:     -40.5010882
C         -4.47271        1.92592        0.00000
H         -3.37158        1.92592       -0.00000
H         -4.83975        2.21437        0.99728
H         -4.83975        0.91803       -0.24883
H         -4.83975        2.64537       -0.74844
