5
Point_8/orca8.out	Energy:     -40.4883971
C         -4.47271        1.92592        0.00000
H         -3.30452        1.92592       -0.00000
H         -4.86210        2.23193        1.05801
H         -4.86211        0.85665       -0.26399
H         -4.86211        2.68918       -0.79402
