5
Point_9/orca9.out	Energy:     -40.4545986
C         -4.47271        1.92592        0.00000
H         -3.22636        1.92592       -0.00000
H         -4.88815        2.25241        1.12881
H         -4.88816        0.78511       -0.28165
H         -4.88816        2.74025       -0.84714
