
                                 *****************
                                 * O   R   C   A *
                                 *****************

           --- An Ab Initio, DFT and Semiempirical electronic structure package ---

                  #######################################################
                  #                        -***-                        #
                  #  Department of molecular theory and spectroscopy    #
                  #              Directorship: Frank Neese              #
                  # Max Planck Institute for Chemical Energy Conversion #
                  #                  D-45470 Muelheim/Ruhr              #
                  #                       Germany                       #
                  #                                                     #
                  #                  All rights reserved                #
                  #                        -***-                        #
                  #######################################################


                         Program Version 4.0.0.2 - RELEASE -


 With contributions from (in alphabetic order):
   Daniel Aravena         : Magnetic Properties
   Michael Atanasov       : Ab Initio Ligand Field Theory
   Ute Becker             : Parallelization
   Martin Brehm           : Molecular dynamics
   Dmytro Bykov           : SCF Hessian
   Vijay G. Chilkuri      : MRCI spin determinant printing
   Dipayan Datta          : RHF DLPNO-CCSD density
   Achintya Kumar Dutta   : EOM-CC, STEOM-CC
   Dmitry Ganyushin       : Spin-Orbit,Spin-Spin,Magnetic field MRCI
   Yang Guo               : DLPNO-NEVPT2, CIM, IAO-localization
   Andreas Hansen         : Spin unrestricted coupled pair/coupled cluster methods
   Lee Huntington         : MR-EOM, pCC
   Robert Izsak           : Overlap fitted RIJCOSX, COSX-SCS-MP3, EOM
   Christian Kollmar      : KDIIS, OOCD, Brueckner-CCSD(T), CCSD density
   Simone Kossmann        : Meta GGA functionals, TD-DFT gradient, OOMP2, MP2 Hessian
   Martin Krupicka        : AUTO-CI
   Dagmar Lenk            : GEPOL surface
   Dimitrios Liakos       : Extrapolation schemes; parallel MDCI
   Dimitrios Manganas     : ROCIS; embedding schemes
   Dimitrios Pantazis     : SARC Basis sets
   Taras Petrenko         : DFT Hessian,TD-DFT gradient, ASA, ECA, R-Raman, ABS, FL, XAS/XES, NRVS
   Peter Pinski           : DLPNO-MP2
   Christoph Reimann      : Effective Core Potentials
   Marius Retegan         : Local ZFS, SOC
   Christoph Riplinger    : Optimizer, TS searches, QM/MM, DLPNO-CCSD(T), (RO)-DLPNO pert. Triples
   Tobias Risthaus        : Range-separated hybrids, TD-DFT gradient, RPA, STAB
   Michael Roemelt        : Restricted open shell CIS
   Masaaki Saitow         : Open-shell DLPNO
   Barbara Sandhoefer     : DKH picture change effects
   Kantharuban Sivalingam : CASSCF convergence, NEVPT2, FIC-MRCI
   Georgi Stoychev        : AutoAux
   Boris Wezisla          : Elementary symmetry handling
   Frank Wennmohs         : Technical directorship


 We gratefully acknowledge several colleagues who have allowed us to
 interface, adapt or use parts of their codes:
   Stefan Grimme, W. Hujo, H. Kruse,             : VdW corrections, initial TS optimization,
                  C. Bannwarth                     DFT functionals, gCP, sTDA/sTD-DF
   Ed Valeev                                     : LibInt (2-el integral package), F12 methods
   Garnet Chan, S. Sharma, J. Yang, R. Olivares  : DMRG
   Ulf Ekstrom                                   : XCFun DFT Library
   Mihaly Kallay                                 : mrcc  (arbitrary order and MRCC methods)
   Jiri Pittner, Ondrej Demel                    : Mk-CCSD
   Frank Weinhold                                : gennbo (NPA and NBO analysis)
   Christopher J. Cramer and Donald G. Truhlar   : smd solvation model


 Your calculation uses the libint2 library for the computation of 2-el integrals
 For citations please refer to: http://libint.valeyev.net

 This ORCA versions uses:
   CBLAS   interface :  Fast vector & matrix operations
   LAPACKE interface :  Fast linear algebra routines
   SCALAPACK package :  Parallel linear algebra routines


Your calculation utilizes the atom-pairwise dispersion correction
with the zero-damping scheme (D30)
Cite in your paper:
S.Grimme, J.Antony, S.Ehrlich and H.Krieg, J.Chem.Phys., 132, (2010), 154104 
   

XCFun DFT library Copyright 2009-2010 Ulf Ekstrom and contributors.
See http://admol.org/xcfun for more information. This is free soft-
ware; see the source code for copying conditions. There is ABSOLUTELY
NO WARRANTY; not even for MERCHANTABILITY or FITNESS FOR A PARTICULAR
PURPOSE. For details see the documentation. Scientific users of this 
library should cite U. Ekstrom, L. Visscher, R. Bast, A. J. Thorvald-
sen and K. Ruud; J.Chem.Theor.Comp. 2010, DOI: 10.1021/ct100117s
XCFun Version 0.99 
Your calculation utilizes the basis: 6-31G(d)
   H-He, Li-Ne : W. J. Hehre, R. Ditchfield and J.A. Pople, J. Chem. Phys. 56, 2257 (1972).
                 Note: He and Ne are unpublished basis sets taken from the Gaussian program.
                 Note: Li and B from J. D. Dill and J. A. Pople, J. Chem. Phys. 62, 2921 (1975).
   Na - Ar     : M. M. Francl, W. J. Pietro, W. J. Hehre, J. S. Binkley, M. S. Gordon, 
                 D. J. DeFrees and J. A. Pople, J. Chem. Phys. 77, 3654 (1982).
   K - Zn      : V. A. Rassolov, J. A. Pople, M. A. Ratner, and T. L. Windus, J. Chem. Phys. 109, 1223 (1998).

================================================================================
                                        WARNINGS
                       Please study these warnings very carefully!
================================================================================

Warning: TCutStore was < 0. Adjusted to Thresh (uncritical)

INFO   : the flag for use of LIBINT has been found!

================================================================================
                                       INPUT FILE
================================================================================
NAME = initial1.inp
|  1> ! WB97X-D3 6-31G(d) VerySlowConv
|  2> ! KDIIS NOSOSCF
|  3> %base "Scan_1"
|  4> 
|  5> %scf
|  6> maxiter 999
|  7> end
|  8> 
|  9> * xyz 0 1
| 10> C         -2.786155724254    2.625847940525   -0.000000000000
| 11> C         -1.738354276082    2.631392059473    0.000000000000
| 12> H         -3.842771686817    2.620261874603    0.000000000000
| 13> H         -0.681738312847    2.636978125399   -0.000000000000
| 14> **                         ****END OF INPUT****
================================================================================

                       ****************************
                       * Single Point Calculation *
                       ****************************

---------------------------------
CARTESIAN COORDINATES (ANGSTROEM)
---------------------------------
  C     -2.786156    2.625848   -0.000000
  C     -1.738354    2.631392    0.000000
  H     -3.842772    2.620262    0.000000
  H     -0.681738    2.636978   -0.000000

----------------------------
CARTESIAN COORDINATES (A.U.)
----------------------------
  NO LB      ZA    FRAG     MASS         X           Y           Z
   0 C     6.0000    0    12.011   -5.265071    4.962133   -0.000000
   1 C     6.0000    0    12.011   -3.285014    4.972610    0.000000
   2 H     1.0000    0     1.008   -7.261786    4.951577    0.000000
   3 H     1.0000    0     1.008   -1.288299    4.983166   -0.000000

--------------------------------
INTERNAL COORDINATES (ANGSTROEM)
--------------------------------
 C      0   0   0     0.000000000000     0.00000000     0.00000000
 C      1   0   0     1.047816115569     0.00000000     0.00000000
 H      1   2   0     1.056630728531   179.99974556     0.00000000
 H      2   1   3     1.056630729203   179.99974556   180.00000000

---------------------------
INTERNAL COORDINATES (A.U.)
---------------------------
 C      0   0   0     0.000000000000     0.00000000     0.00000000
 C      1   0   0     1.980085497135     0.00000000     0.00000000
 H      1   2   0     1.996742701609   179.99974556     0.00000000
 H      2   1   3     1.996742702879   179.99974556   180.00000000

---------------------
BASIS SET INFORMATION
---------------------
There are 2 groups of distinct atoms

 Group   1 Type C   : 10s4p1d contracted to 3s2p1d pattern {631/31/1}
 Group   2 Type H   : 4s contracted to 2s pattern {31}

Atom   0C    basis set group =>   1
Atom   1C    basis set group =>   1
Atom   2H    basis set group =>   2
Atom   3H    basis set group =>   2
------------------------------------------------------------------------------
                           ORCA GTO INTEGRAL CALCULATION
------------------------------------------------------------------------------

                         BASIS SET STATISTICS AND STARTUP INFO

 # of primitive gaussian shells          ...   38
 # of primitive gaussian functions       ...   62
 # of contracted shells                  ...   16
 # of contracted basis functions         ...   32
 Highest angular momentum                ...    2
 Maximum contraction depth               ...    6
 Integral package used                   ... LIBINT
 Integral threshhold            Thresh   ...  1.000e-10
 Primitive cut-off              TCut     ...  1.000e-11


------------------------------ INTEGRAL EVALUATION ----------------------------


 * One electron integrals 
 Pre-screening matrix                    ... done
 Shell pair data                         ... done (   0.000 sec)

-------------------------------------------------------------------------------
                                 ORCA SCF
-------------------------------------------------------------------------------

------------
SCF SETTINGS
------------
Hamiltonian:
 Density Functional     Method          .... DFT(GTOs)
 Exchange Functional    Exchange        .... WB97X-D3
 Correlation Functional Correlation     .... WB97X-D3
 Gradients option       PostSCFGGA      .... off
 Hybrid DFT is turned on
   Fraction HF Exchange ScalHFX         ....  0.195728
   Scaling of DF-GGA-X  ScalDFX         ....  0.000000
   Scaling of DF-GGA-C  ScalDFC         ....  1.000000
   Scaling of DF-LDA-C  ScalLDAC        ....  1.000000
   Perturbative correction              ....  0.000000
 Long-range corrected/Screened/Range-Separated Hybrid DFT is turned on
   Amount of maximum screened exact exchange              ....  0.804272
   Range separation parameter mu (erf(mu*r12)/r12)        ....  0.250000


General Settings:
 Integral files         IntName         .... Scan_1
 Hartree-Fock type      HFTyp           .... RHF
 Total Charge           Charge          ....    0
 Multiplicity           Mult            ....    1
 Number of Electrons    NEL             ....   14
 Basis Dimension        Dim             ....   32
 Nuclear Repulsion      ENuc            ....     27.3757051205 Eh

Convergence Acceleration:
 DIIS                   CNVDIIS         .... on
   Start iteration      DIISMaxIt       ....     0
   Startup error        DIISStart       ....  0.200000
   # of expansion vecs  DIISMaxEq       ....     5
   Bias factor          DIISBfac        ....   1.050
   Max. coefficient     DIISMaxC        ....  10.000
 Newton-Raphson         CNVNR           .... off
 SOSCF                  CNVSOSCF        .... off
 Level Shifting         CNVShift        .... off
 Zerner damping         CNVZerner       .... off
 Static damping         CNVDamp         .... off
 Fernandez-Rico         CNVRico         .... off

SCF Procedure:
 Maximum # iterations   MaxIter         ....   999
 SCF integral mode      SCFMode         .... Direct
   Integral package                     .... LIBINT
 Reset frequeny         DirectResetFreq ....    20
 Integral Threshold     Thresh          ....  1.000e-10 Eh
 Primitive CutOff       TCut            ....  1.000e-11 Eh

Convergence Tolerance:
 Convergence Check Mode ConvCheckMode   .... All-Criteria
 Convergence forced     ConvForced      .... 0
 Energy Change          TolE            ....  1.000e-06 Eh
 Max Density Change     TolMaxP         ....  1.000e-05
 RMS Density Change     TolRMSP         ....  1.000e-06
 DIIS Error             TolErr          ....  1.000e-06


Diagonalization of the overlap matrix:
Smallest eigenvalue                        ... 4.102e-04
Time for diagonalization                   ...    0.001 sec
Threshold for overlap eigenvalues          ... 1.000e-08
Number of eigenvalues below threshold      ... 0
Time for construction of square roots      ...    0.006 sec
Total time needed                          ...    0.007 sec

-------------------
DFT GRID GENERATION
-------------------

General Integration Accuracy     IntAcc      ...  4.340
Radial Grid Type                 RadialGrid  ... Gauss-Chebyshev
Angular Grid (max. acc.)         AngularGrid ... Lebedev-110
Angular grid pruning method      GridPruning ... 3 (G Style)
Weight generation scheme         WeightScheme... Becke
Basis function cutoff            BFCut       ...    1.0000e-10
Integration weight cutoff        WCut        ...    1.0000e-14
Grids for H and He will be reduced by one unit

# of grid points (after initial pruning)     ...   4900 (   0.0 sec)
# of grid points (after weights+screening)   ...   4820 (   0.0 sec)
nearest neighbour list constructed           ...    0.0 sec
Grid point re-assignment to atoms done       ...    0.0 sec
Grid point division into batches done        ...    0.0 sec
Reduced shell lists constructed in    0.0 sec

Total number of grid points                  ...     4820
Total number of batches                      ...       78
Average number of points per batch           ...       61
Average number of grid points per atom       ...     1205
Average number of shells per batch           ...    13.94 (87.10%)
Average number of basis functions per batch  ...    28.52 (89.12%)
Average number of large shells per batch     ...    13.18 (94.55%)
Average number of large basis fcns per batch ...    27.46 (96.27%)
Maximum spatial batch extension              ...  18.06, 27.13, 31.36 au
Average spatial batch extension              ...   3.90,  6.87,  7.18 au

Time for grid setup =    0.034 sec

------------------------------
INITIAL GUESS: MODEL POTENTIAL
------------------------------
Loading Hartree-Fock densities                     ... done
Calculating cut-offs                               ... done
Setting up the integral package                    ... done
Initializing the effective Hamiltonian             ... done
Starting the Coulomb interaction                   ... done (   0.0 sec)
Reading the grid                                   ... done
Mapping shells                                     ... done
Starting the XC term evaluation                    ... done (   0.0 sec)
  promolecular density results
     # of electrons  =     14.001521975
     EX              =    -10.796926858
     EC              =     -0.426876431
     EX+EC           =    -11.223803289
Transforming the Hamiltonian                       ... done (   0.0 sec)
Diagonalizing the Hamiltonian                      ... done (   0.0 sec)
Back transforming the eigenvectors                 ... done (   0.0 sec)
Now organizing SCF variables                       ... done
                      ------------------
                      INITIAL GUESS DONE (   0.2 sec)
                      ------------------
--------------
SCF ITERATIONS
--------------
ITER       Energy         Delta-E        Max-DP      RMS-DP      [F,P]   Gradient Norm
               ***  Starting incremental Fock matrix formation  ***
                             ****Resetting KDIIS****
                             ****Turning on KDIIS(Cayley)****
  0    -77.1028640705   0.000000000000 0.02131233  0.00255516  0.1409370   0.124756272
  1    -77.1388075881  -0.035943517645 0.02493366  0.00279112  0.1203769   0.105378386
  2    -77.1687266324  -0.029919044273 0.03516083  0.00436701  0.0987398   0.086033311
  3    -77.2050470377  -0.036320405266 0.04720011  0.00635366  0.0614865   0.053321432
  4    -77.2272010197  -0.022153982033 0.00162713  0.00017700  0.0013205   0.000988467
  5    -77.2272066017  -0.000005581943 0.00047771  0.00006968  0.0004339   0.000357163
                          ***Energy convergence achieved***
  6    -77.2272073638  -0.000000762153 0.00023831  0.00003261  0.0002907   0.000235087
Warning: badly conditioned DIIS matrix, 1 vectors out of 5 destroyed
                           ***MAXP convergence achieved***

            ***Energy convergence in two consecutive cycles with***
                    ***'reasonable' density convergence***
                       *** signaling convergence ***

                    *** KDIIS BlockDiag ( 0.000 sec) ***

               *****************************************************
               *                     SUCCESS                       *
               *           SCF CONVERGED AFTER   7 CYCLES          *
               *****************************************************

Setting up the final grid:

General Integration Accuracy     IntAcc      ...  4.670
Radial Grid Type                 RadialGrid  ... Gauss-Chebyshev
Angular Grid (max. acc.)         AngularGrid ... Lebedev-302
Angular grid pruning method      GridPruning ... 3 (G Style)
Weight generation scheme         WeightScheme... Becke
Basis function cutoff            BFCut       ...    1.0000e-10
Integration weight cutoff        WCut        ...    1.0000e-14
Grids for H and He will be reduced by one unit

# of grid points (after initial pruning)     ...  19212 (   0.0 sec)
# of grid points (after weights+screening)   ...  18840 (   0.0 sec)
nearest neighbour list constructed           ...    0.0 sec
Grid point re-assignment to atoms done       ...    0.0 sec
Grid point division into batches done        ...    0.1 sec
Reduced shell lists constructed in    0.1 sec

Total number of grid points                  ...    18840
Total number of batches                      ...      296
Average number of points per batch           ...       63
Average number of grid points per atom       ...     4710
Average number of shells per batch           ...    12.80 (80.01%)
Average number of basis functions per batch  ...    26.18 (81.82%)
Average number of large shells per batch     ...    11.81 (92.24%)
Average number of large basis fcns per batch ...    24.35 (92.99%)
Maximum spatial batch extension              ...  18.86, 19.92, 25.71 au
Average spatial batch extension              ...   2.93,  4.31,  4.39 au

Final grid set up in    0.2 sec
Final integration                            ... done (   0.2 sec)
Change in XC energy                          ...    -0.000322403
Integrated number of electrons               ...    13.999993969
Previous integrated no of electrons          ...    13.997869286

----------------
TOTAL SCF ENERGY
----------------

Total Energy       :          -77.22753015 Eh           -2101.46793 eV

Components:
Nuclear Repulsion  :           27.37570512 Eh             744.93081 eV
Electronic Energy  :         -104.60323527 Eh           -2846.39874 eV
One Electron Energy:         -157.00966366 Eh           -4272.45016 eV
Two Electron Energy:           52.40642839 Eh            1426.05142 eV

Virial components:
Potential Energy   :         -155.01857044 Eh           -4218.26975 eV
Kinetic Energy     :           77.79104029 Eh            2116.80182 eV
Virial Ratio       :            1.99275610


DFT components:
N(Alpha)           :        6.999996984289 electrons
N(Beta)            :        6.999996984289 electrons
N(Total)           :       13.999993968577 electrons
E(XC)              :       -7.982447637972 Eh       

---------------
SCF CONVERGENCE
---------------

  Last Energy change         ...   -3.7956e-07  Tolerance :   1.0000e-06
  Last MAX-Density change    ...    9.3752e-06  Tolerance :   1.0000e-05
  Last RMS-Density change    ...    1.1857e-06  Tolerance :   1.0000e-06
  Last DIIS Error            ...    6.9718e-06  Tolerance :   1.0000e-06

             **** THE GBW FILE WAS UPDATED (Scan_1.gbw) ****
             **** DENSITY FILE WAS UPDATED (Scan_1.scfp.tmp) ****
             **** ENERGY FILE WAS UPDATED (Scan_1.en.tmp) ****
----------------
ORBITAL ENERGIES
----------------

  NO   OCC          E(Eh)            E(eV) 
   0   2.0000     -10.249955      -278.9155 
   1   2.0000     -10.240993      -278.6716 
   2   2.0000      -0.881296       -23.9813 
   3   2.0000      -0.649830       -17.6828 
   4   2.0000      -0.589182       -16.0325 
   5   2.0000      -0.406136       -11.0515 
   6   2.0000      -0.406136       -11.0515 
   7   0.0000       0.193433         5.2636 
   8   0.0000       0.193434         5.2636 
   9   0.0000       0.228127         6.2076 
  10   0.0000       0.255249         6.9457 
  11   0.0000       0.557624        15.1737 
  12   0.0000       0.589332        16.0365 
  13   0.0000       0.605136        16.4666 
  14   0.0000       0.605137        16.4666 
  15   0.0000       0.808683        22.0054 
  16   0.0000       0.808684        22.0054 
  17   0.0000       0.863088        23.4858 
  18   0.0000       0.919914        25.0321 
  19   0.0000       1.203682        32.7539 
  20   0.0000       1.600846        43.5612 
  21   0.0000       1.601028        43.5662 
  22   0.0000       1.645587        44.7787 
  23   0.0000       1.657533        45.1038 
  24   0.0000       1.736196        47.2443 
  25   0.0000       1.736197        47.2443 
  26   0.0000       2.139003        58.2052 
  27   0.0000       2.139094        58.2077 
  28   0.0000       2.686048        73.0911 
  29   0.0000       2.768575        75.3368 
  30   0.0000       2.768578        75.3368 
  31   0.0000       4.003462       108.9397 

                    ********************************
                    * MULLIKEN POPULATION ANALYSIS *
                    ********************************

-----------------------
MULLIKEN ATOMIC CHARGES
-----------------------
   0 C :   -0.207453
   1 C :   -0.207453
   2 H :    0.207453
   3 H :    0.207453
Sum of atomic charges:   -0.0000000

--------------------------------
MULLIKEN REDUCED ORBITAL CHARGES
--------------------------------
  0 C s       :     3.172307  s :     3.172307
      pz      :     0.990395  p :     3.004161
      px      :     1.023371
      py      :     0.990395
      dz2     :     0.002944  d :     0.030985
      dxz     :     0.009605
      dyz     :     0.000000
      dx2y2   :     0.008832
      dxy     :     0.009605
  1 C s       :     3.172307  s :     3.172307
      pz      :     0.990395  p :     3.004161
      px      :     1.023371
      py      :     0.990395
      dz2     :     0.002944  d :     0.030985
      dxz     :     0.009605
      dyz     :     0.000000
      dx2y2   :     0.008832
      dxy     :     0.009605
  2 H s       :     0.792547  s :     0.792547
  3 H s       :     0.792547  s :     0.792547


                     *******************************
                     * LOEWDIN POPULATION ANALYSIS *
                     *******************************

----------------------
LOEWDIN ATOMIC CHARGES
----------------------
   0 C :   -0.160010
   1 C :   -0.160010
   2 H :    0.160010
   3 H :    0.160010

-------------------------------
LOEWDIN REDUCED ORBITAL CHARGES
-------------------------------
  0 C s       :     2.949638  s :     2.949638
      pz      :     0.979280  p :     3.133529
      px      :     1.174963
      py      :     0.979286
      dz2     :     0.008851  d :     0.076842
      dxz     :     0.020719
      dyz     :     0.000001
      dx2y2   :     0.026551
      dxy     :     0.020720
  1 C s       :     2.949638  s :     2.949638
      pz      :     0.979280  p :     3.133529
      px      :     1.174963
      py      :     0.979286
      dz2     :     0.008851  d :     0.076842
      dxz     :     0.020719
      dyz     :     0.000001
      dx2y2   :     0.026551
      dxy     :     0.020720
  2 H s       :     0.839990  s :     0.839990
  3 H s       :     0.839990  s :     0.839990


                      *****************************
                      * MAYER POPULATION ANALYSIS *
                      *****************************

  NA   - Mulliken gross atomic population
  ZA   - Total nuclear charge
  QA   - Mulliken gross atomic charge
  VA   - Mayer's total valence
  BVA  - Mayer's bonded valence
  FA   - Mayer's free valence

  ATOM       NA         ZA         QA         VA         BVA        FA
  0 C      6.2075     6.0000    -0.2075     4.0490     4.0490    -0.0000
  1 C      6.2075     6.0000    -0.2075     4.0490     4.0490     0.0000
  2 H      0.7925     1.0000     0.2075     0.9206     0.9206    -0.0000
  3 H      0.7925     1.0000     0.2075     0.9206     0.9206     0.0000

  Mayer bond orders larger than 0.1
B(  0-C ,  1-C ) :   3.1309 B(  0-C ,  2-H ) :   0.9000 B(  1-C ,  3-H ) :   0.9000 


-------
TIMINGS
-------

Total SCF time: 0 days 0 hours 0 min 3 sec 

Total time                  ....       3.252 sec
Sum of individual times     ....       3.136 sec  ( 96.5%)

Fock matrix formation       ....       2.764 sec  ( 85.0%)
  XC integration            ....       0.630 sec  ( 22.8% of F)
    Basis function eval.    ....       0.215 sec  ( 34.2% of XC)
    Density eval.           ....       0.030 sec  (  4.7% of XC)
    XC-Functional eval.     ....       0.172 sec  ( 27.3% of XC)
    XC-Potential eval.      ....       0.029 sec  (  4.5% of XC)
Diagonalization             ....       0.037 sec  (  1.1%)
Density matrix formation    ....       0.000 sec  (  0.0%)
Population analysis         ....       0.010 sec  (  0.3%)
Initial guess               ....       0.132 sec  (  4.0%)
Orbital Transformation      ....       0.000 sec  (  0.0%)
Orbital Orthonormalization  ....       0.000 sec  (  0.0%)
DIIS solution               ....       0.000 sec  (  0.0%)
Grid generation             ....       0.193 sec  (  5.9%)


-------------------------------------------------------------------------------
                          DFT DISPERSION CORRECTION                            
                                                                               
                              DFTD3 V3.1  Rev 1                                
                              USING zero damping                               
-------------------------------------------------------------------------------
The omegaB97X-D3 functional is recognized. Fit by Chai et al.
Active option DFTDOPT                   ...         3   

molecular C6(AA) [au] = 206.606636 


            DFT-D V3
 parameters
 s6 scaling factor         :     1.0000 
 rs6 scaling factor        :     1.2810 
 s8 scaling factor         :     1.0000 
 rs8 scaling factor        :     1.0940 
 Damping factor alpha6     :    14.0000 
 Damping factor alpha8     :    16.0000 
 ad hoc parameters k1-k3   :    16.0000     1.3333    -4.0000 

 Edisp/kcal,au: -0.048525538498  -0.000077330360 
 E6   /kcal   :  -0.022464509 
 E8   /kcal   :  -0.026061029 
 % E8         :  53.705800868 

-------------------------   ----------------
Dispersion correction           -0.000077330
-------------------------   ----------------


-------------------------   --------------------
FINAL SINGLE POINT ENERGY       -77.227607476702
-------------------------   --------------------


                            ***************************************
                            *     ORCA property calculations      *
                            ***************************************

                                    ---------------------
                                    Active property flags
                                    ---------------------
   (+) Dipole Moment


------------------------------------------------------------------------------
                       ORCA ELECTRIC PROPERTIES CALCULATION
------------------------------------------------------------------------------

Dipole Moment Calculation                       ... on
Quadrupole Moment Calculation                   ... off
Polarizability Calculation                      ... off
GBWName                                         ... Scan_1.gbw
Electron density file                           ... Scan_1.scfp.tmp

-------------
DIPOLE MOMENT
-------------
                                X             Y             Z
Electronic contribution:     -0.00000      -0.00000       0.00000
Nuclear contribution   :      0.00000       0.00000       0.00000
                        -----------------------------------------
Total Dipole Moment    :     -0.00000      -0.00000       0.00000
                        -----------------------------------------
Magnitude (a.u.)       :      0.00000
Magnitude (Debye)      :      0.00000


Timings for individual modules:

Sum of individual times         ...        3.606 sec (=   0.060 min)
GTO integral calculation        ...        0.330 sec (=   0.005 min)   9.1 %
SCF iterations                  ...        3.277 sec (=   0.055 min)  90.9 %
                             ****ORCA TERMINATED NORMALLY****
TOTAL RUN TIME: 0 days 0 hours 0 minutes 3 seconds 942 msec
