
                                 *****************
                                 * O   R   C   A *
                                 *****************

           --- An Ab Initio, DFT and Semiempirical electronic structure package ---

                  #######################################################
                  #                        -***-                        #
                  #  Department of molecular theory and spectroscopy    #
                  #              Directorship: Frank Neese              #
                  # Max Planck Institute for Chemical Energy Conversion #
                  #                  D-45470 Muelheim/Ruhr              #
                  #                       Germany                       #
                  #                                                     #
                  #                  All rights reserved                #
                  #                        -***-                        #
                  #######################################################


                         Program Version 4.0.0.2 - RELEASE -


 With contributions from (in alphabetic order):
   Daniel Aravena         : Magnetic Properties
   Michael Atanasov       : Ab Initio Ligand Field Theory
   Ute Becker             : Parallelization
   Martin Brehm           : Molecular dynamics
   Dmytro Bykov           : SCF Hessian
   Vijay G. Chilkuri      : MRCI spin determinant printing
   Dipayan Datta          : RHF DLPNO-CCSD density
   Achintya Kumar Dutta   : EOM-CC, STEOM-CC
   Dmitry Ganyushin       : Spin-Orbit,Spin-Spin,Magnetic field MRCI
   Yang Guo               : DLPNO-NEVPT2, CIM, IAO-localization
   Andreas Hansen         : Spin unrestricted coupled pair/coupled cluster methods
   Lee Huntington         : MR-EOM, pCC
   Robert Izsak           : Overlap fitted RIJCOSX, COSX-SCS-MP3, EOM
   Christian Kollmar      : KDIIS, OOCD, Brueckner-CCSD(T), CCSD density
   Simone Kossmann        : Meta GGA functionals, TD-DFT gradient, OOMP2, MP2 Hessian
   Martin Krupicka        : AUTO-CI
   Dagmar Lenk            : GEPOL surface
   Dimitrios Liakos       : Extrapolation schemes; parallel MDCI
   Dimitrios Manganas     : ROCIS; embedding schemes
   Dimitrios Pantazis     : SARC Basis sets
   Taras Petrenko         : DFT Hessian,TD-DFT gradient, ASA, ECA, R-Raman, ABS, FL, XAS/XES, NRVS
   Peter Pinski           : DLPNO-MP2
   Christoph Reimann      : Effective Core Potentials
   Marius Retegan         : Local ZFS, SOC
   Christoph Riplinger    : Optimizer, TS searches, QM/MM, DLPNO-CCSD(T), (RO)-DLPNO pert. Triples
   Tobias Risthaus        : Range-separated hybrids, TD-DFT gradient, RPA, STAB
   Michael Roemelt        : Restricted open shell CIS
   Masaaki Saitow         : Open-shell DLPNO
   Barbara Sandhoefer     : DKH picture change effects
   Kantharuban Sivalingam : CASSCF convergence, NEVPT2, FIC-MRCI
   Georgi Stoychev        : AutoAux
   Boris Wezisla          : Elementary symmetry handling
   Frank Wennmohs         : Technical directorship


 We gratefully acknowledge several colleagues who have allowed us to
 interface, adapt or use parts of their codes:
   Stefan Grimme, W. Hujo, H. Kruse,             : VdW corrections, initial TS optimization,
                  C. Bannwarth                     DFT functionals, gCP, sTDA/sTD-DF
   Ed Valeev                                     : LibInt (2-el integral package), F12 methods
   Garnet Chan, S. Sharma, J. Yang, R. Olivares  : DMRG
   Ulf Ekstrom                                   : XCFun DFT Library
   Mihaly Kallay                                 : mrcc  (arbitrary order and MRCC methods)
   Jiri Pittner, Ondrej Demel                    : Mk-CCSD
   Frank Weinhold                                : gennbo (NPA and NBO analysis)
   Christopher J. Cramer and Donald G. Truhlar   : smd solvation model


 Your calculation uses the libint2 library for the computation of 2-el integrals
 For citations please refer to: http://libint.valeyev.net

 This ORCA versions uses:
   CBLAS   interface :  Fast vector & matrix operations
   LAPACKE interface :  Fast linear algebra routines
   SCALAPACK package :  Parallel linear algebra routines


Your calculation utilizes the atom-pairwise dispersion correction
with the zero-damping scheme (D30)
Cite in your paper:
S.Grimme, J.Antony, S.Ehrlich and H.Krieg, J.Chem.Phys., 132, (2010), 154104 
   

XCFun DFT library Copyright 2009-2010 Ulf Ekstrom and contributors.
See http://admol.org/xcfun for more information. This is free soft-
ware; see the source code for copying conditions. There is ABSOLUTELY
NO WARRANTY; not even for MERCHANTABILITY or FITNESS FOR A PARTICULAR
PURPOSE. For details see the documentation. Scientific users of this 
library should cite U. Ekstrom, L. Visscher, R. Bast, A. J. Thorvald-
sen and K. Ruud; J.Chem.Theor.Comp. 2010, DOI: 10.1021/ct100117s
XCFun Version 0.99 
Your calculation utilizes the basis: 6-31G(d)
   H-He, Li-Ne : W. J. Hehre, R. Ditchfield and J.A. Pople, J. Chem. Phys. 56, 2257 (1972).
                 Note: He and Ne are unpublished basis sets taken from the Gaussian program.
                 Note: Li and B from J. D. Dill and J. A. Pople, J. Chem. Phys. 62, 2921 (1975).
   Na - Ar     : M. M. Francl, W. J. Pietro, W. J. Hehre, J. S. Binkley, M. S. Gordon, 
                 D. J. DeFrees and J. A. Pople, J. Chem. Phys. 77, 3654 (1982).
   K - Zn      : V. A. Rassolov, J. A. Pople, M. A. Ratner, and T. L. Windus, J. Chem. Phys. 109, 1223 (1998).

================================================================================
                                        WARNINGS
                       Please study these warnings very carefully!
================================================================================

Warning: TCutStore was < 0. Adjusted to Thresh (uncritical)

INFO   : the flag for use of LIBINT has been found!

================================================================================
                                       INPUT FILE
================================================================================
NAME = initial10.inp
|  1> ! WB97X-D3 6-31G(d) VerySlowConv
|  2> ! KDIIS NOSOSCF
|  3> %base "Scan_10"
|  4> 
|  5> %scf
|  6> maxiter 999
|  7> end
|  8> 
|  9> * xyz 0 1
| 10> C         -2.898468535974    2.625254086027   -0.000000000008
| 11> C         -1.626041501920    2.631985913772    0.000000000008
| 12> H         -3.945762645102    2.619714232809   -0.000000000006
| 13> H         -0.578747317004    2.637525767392    0.000000000006
| 14> **                         ****END OF INPUT****
================================================================================

                       ****************************
                       * Single Point Calculation *
                       ****************************

---------------------------------
CARTESIAN COORDINATES (ANGSTROEM)
---------------------------------
  C     -2.898469    2.625254   -0.000000
  C     -1.626042    2.631986    0.000000
  H     -3.945763    2.619714   -0.000000
  H     -0.578747    2.637526    0.000000

----------------------------
CARTESIAN COORDINATES (A.U.)
----------------------------
  NO LB      ZA    FRAG     MASS         X           Y           Z
   0 C     6.0000    0    12.011   -5.477312    4.961011   -0.000000
   1 C     6.0000    0    12.011   -3.072773    4.973733    0.000000
   2 H     1.0000    0     1.008   -7.456411    4.950542   -0.000000
   3 H     1.0000    0     1.008   -1.093674    4.984201    0.000000

--------------------------------
INTERNAL COORDINATES (ANGSTROEM)
--------------------------------
 C      0   0   0     0.000000000000     0.00000000     0.00000000
 C      1   0   0     1.272444841436     0.00000000     0.00000000
 H      1   2   0     1.047308761058   179.99995083     0.00000000
 H      2   1   3     1.047308836847   179.99995079   180.00000000

---------------------------
INTERNAL COORDINATES (A.U.)
---------------------------
 C      0   0   0     0.000000000000     0.00000000     0.00000000
 C      1   0   0     2.404572270834     0.00000000     0.00000000
 H      1   2   0     1.979126736055   179.99995083     0.00000000
 H      2   1   3     1.979126879276   179.99995079   180.00000000

---------------------
BASIS SET INFORMATION
---------------------
There are 2 groups of distinct atoms

 Group   1 Type C   : 10s4p1d contracted to 3s2p1d pattern {631/31/1}
 Group   2 Type H   : 4s contracted to 2s pattern {31}

Atom   0C    basis set group =>   1
Atom   1C    basis set group =>   1
Atom   2H    basis set group =>   2
Atom   3H    basis set group =>   2
------------------------------------------------------------------------------
                           ORCA GTO INTEGRAL CALCULATION
------------------------------------------------------------------------------

                         BASIS SET STATISTICS AND STARTUP INFO

 # of primitive gaussian shells          ...   38
 # of primitive gaussian functions       ...   62
 # of contracted shells                  ...   16
 # of contracted basis functions         ...   32
 Highest angular momentum                ...    2
 Maximum contraction depth               ...    6
 Integral package used                   ... LIBINT
 Integral threshhold            Thresh   ...  1.000e-10
 Primitive cut-off              TCut     ...  1.000e-11


------------------------------ INTEGRAL EVALUATION ----------------------------


 * One electron integrals 
 Pre-screening matrix                    ... done
 Shell pair data                         ... done (   0.000 sec)

-------------------------------------------------------------------------------
                                 ORCA SCF
-------------------------------------------------------------------------------

------------
SCF SETTINGS
------------
Hamiltonian:
 Density Functional     Method          .... DFT(GTOs)
 Exchange Functional    Exchange        .... WB97X-D3
 Correlation Functional Correlation     .... WB97X-D3
 Gradients option       PostSCFGGA      .... off
 Hybrid DFT is turned on
   Fraction HF Exchange ScalHFX         ....  0.195728
   Scaling of DF-GGA-X  ScalDFX         ....  0.000000
   Scaling of DF-GGA-C  ScalDFC         ....  1.000000
   Scaling of DF-LDA-C  ScalLDAC        ....  1.000000
   Perturbative correction              ....  0.000000
 Long-range corrected/Screened/Range-Separated Hybrid DFT is turned on
   Amount of maximum screened exact exchange              ....  0.804272
   Range separation parameter mu (erf(mu*r12)/r12)        ....  0.250000


General Settings:
 Integral files         IntName         .... Scan_10
 Hartree-Fock type      HFTyp           .... RHF
 Total Charge           Charge          ....    0
 Multiplicity           Mult            ....    1
 Number of Electrons    NEL             ....   14
 Basis Dimension        Dim             ....   32
 Nuclear Repulsion      ENuc            ....     23.9293346998 Eh

Convergence Acceleration:
 DIIS                   CNVDIIS         .... on
   Start iteration      DIISMaxIt       ....     0
   Startup error        DIISStart       ....  0.200000
   # of expansion vecs  DIISMaxEq       ....     5
   Bias factor          DIISBfac        ....   1.050
   Max. coefficient     DIISMaxC        ....  10.000
 Newton-Raphson         CNVNR           .... off
 SOSCF                  CNVSOSCF        .... off
 Level Shifting         CNVShift        .... off
 Zerner damping         CNVZerner       .... off
 Static damping         CNVDamp         .... off
 Fernandez-Rico         CNVRico         .... off

SCF Procedure:
 Maximum # iterations   MaxIter         ....   999
 SCF integral mode      SCFMode         .... Direct
   Integral package                     .... LIBINT
 Reset frequeny         DirectResetFreq ....    20
 Integral Threshold     Thresh          ....  1.000e-10 Eh
 Primitive CutOff       TCut            ....  1.000e-11 Eh

Convergence Tolerance:
 Convergence Check Mode ConvCheckMode   .... All-Criteria
 Convergence forced     ConvForced      .... 0
 Energy Change          TolE            ....  1.000e-06 Eh
 Max Density Change     TolMaxP         ....  1.000e-05
 RMS Density Change     TolRMSP         ....  1.000e-06
 DIIS Error             TolErr          ....  1.000e-06


Diagonalization of the overlap matrix:
Smallest eigenvalue                        ... 1.476e-03
Time for diagonalization                   ...    0.001 sec
Threshold for overlap eigenvalues          ... 1.000e-08
Number of eigenvalues below threshold      ... 0
Time for construction of square roots      ...    0.004 sec
Total time needed                          ...    0.005 sec

-------------------
DFT GRID GENERATION
-------------------

General Integration Accuracy     IntAcc      ...  4.340
Radial Grid Type                 RadialGrid  ... Gauss-Chebyshev
Angular Grid (max. acc.)         AngularGrid ... Lebedev-110
Angular grid pruning method      GridPruning ... 3 (G Style)
Weight generation scheme         WeightScheme... Becke
Basis function cutoff            BFCut       ...    1.0000e-10
Integration weight cutoff        WCut        ...    1.0000e-14
Grids for H and He will be reduced by one unit

# of grid points (after initial pruning)     ...   4900 (   0.0 sec)
# of grid points (after weights+screening)   ...   4822 (   0.0 sec)
nearest neighbour list constructed           ...    0.0 sec
Grid point re-assignment to atoms done       ...    0.0 sec
Grid point division into batches done        ...    0.0 sec
Reduced shell lists constructed in    0.0 sec

Total number of grid points                  ...     4822
Total number of batches                      ...       78
Average number of points per batch           ...       61
Average number of grid points per atom       ...     1206
Average number of shells per batch           ...    13.89 (86.79%)
Average number of basis functions per batch  ...    28.47 (88.96%)
Average number of large shells per batch     ...    12.89 (92.80%)
Average number of large basis fcns per batch ...    26.84 (94.26%)
Maximum spatial batch extension              ...  18.39, 28.49, 31.36 au
Average spatial batch extension              ...   4.12,  7.14,  7.45 au

Time for grid setup =    0.032 sec

------------------------------
INITIAL GUESS: MODEL POTENTIAL
------------------------------
Loading Hartree-Fock densities                     ... done
Calculating cut-offs                               ... done
Setting up the integral package                    ... done
Initializing the effective Hamiltonian             ... done
Starting the Coulomb interaction                   ... done (   0.0 sec)
Reading the grid                                   ... done
Mapping shells                                     ... done
Starting the XC term evaluation                    ... done (   0.0 sec)
  promolecular density results
     # of electrons  =     14.000195010
     EX              =    -10.704937961
     EC              =     -0.419275540
     EX+EC           =    -11.124213501
Transforming the Hamiltonian                       ... done (   0.0 sec)
Diagonalizing the Hamiltonian                      ... done (   0.0 sec)
Back transforming the eigenvectors                 ... done (   0.0 sec)
Now organizing SCF variables                       ... done
                      ------------------
                      INITIAL GUESS DONE (   0.2 sec)
                      ------------------
--------------
SCF ITERATIONS
--------------
ITER       Energy         Delta-E        Max-DP      RMS-DP      [F,P]   Gradient Norm
               ***  Starting incremental Fock matrix formation  ***
                             ****Resetting KDIIS****
                             ****Turning on KDIIS(Cayley)****
  0    -77.2376078893   0.000000000000 0.01169008  0.00149564  0.0873839   0.075022117
  1    -77.2506538910  -0.013046001706 0.01515401  0.00177472  0.0749960   0.063947991
  2    -77.2627433022  -0.012089411229 0.02381496  0.00284297  0.0606908   0.051691600
  3    -77.2769892430  -0.014245940733 0.03353025  0.00420426  0.0369387   0.031469191
Warning: badly conditioned DIIS matrix, 1 vectors out of 5 destroyed
  4    -77.2852778417  -0.008288598737 0.00053728  0.00007645  0.0004222   0.000350995
  5    -77.2852788953  -0.000001053587 0.00009225  0.00001113  0.0000419   0.000043407
Warning: badly conditioned DIIS matrix, 1 vectors out of 5 destroyed
                          ***Energy convergence achieved***
  6    -77.2852789009  -0.000000005616 0.00005747  0.00000704  0.0000372   0.000028338
Warning: badly conditioned DIIS matrix, 1 vectors out of 5 destroyed
                           ***RMSP convergence achieved***
                           ***MAXP convergence achieved***
                    *** KDIIS BlockDiag ( 0.000 sec) ***

               *****************************************************
               *                     SUCCESS                       *
               *           SCF CONVERGED AFTER   7 CYCLES          *
               *****************************************************

Setting up the final grid:

General Integration Accuracy     IntAcc      ...  4.670
Radial Grid Type                 RadialGrid  ... Gauss-Chebyshev
Angular Grid (max. acc.)         AngularGrid ... Lebedev-302
Angular grid pruning method      GridPruning ... 3 (G Style)
Weight generation scheme         WeightScheme... Becke
Basis function cutoff            BFCut       ...    1.0000e-10
Integration weight cutoff        WCut        ...    1.0000e-14
Grids for H and He will be reduced by one unit

# of grid points (after initial pruning)     ...  19212 (   0.0 sec)
# of grid points (after weights+screening)   ...  18870 (   0.0 sec)
nearest neighbour list constructed           ...    0.0 sec
Grid point re-assignment to atoms done       ...    0.0 sec
Grid point division into batches done        ...    0.1 sec
Reduced shell lists constructed in    0.1 sec

Total number of grid points                  ...    18870
Total number of batches                      ...      298
Average number of points per batch           ...       63
Average number of grid points per atom       ...     4718
Average number of shells per batch           ...    12.75 (79.68%)
Average number of basis functions per batch  ...    26.18 (81.81%)
Average number of large shells per batch     ...    11.52 (90.35%)
Average number of large basis fcns per batch ...    23.91 (91.34%)
Maximum spatial batch extension              ...  19.01, 25.72, 25.71 au
Average spatial batch extension              ...   2.89,  4.37,  4.36 au

Final grid set up in    0.2 sec
Final integration                            ... done (   0.2 sec)
Change in XC energy                          ...    -0.000216726
Integrated number of electrons               ...    14.000005692
Previous integrated no of electrons          ...    13.996538712

----------------
TOTAL SCF ENERGY
----------------

Total Energy       :          -77.28549563 Eh           -2103.04525 eV

Components:
Nuclear Repulsion  :           23.92933470 Eh             651.15030 eV
Electronic Energy  :         -101.21483033 Eh           -2754.19555 eV
One Electron Energy:         -150.27639908 Eh           -4089.22871 eV
Two Electron Energy:           49.06156874 Eh            1335.03316 eV

Virial components:
Potential Energy   :         -153.85012832 Eh           -4186.47483 eV
Kinetic Energy     :           76.56463268 Eh            2083.42957 eV
Virial Ratio       :            2.00941509


DFT components:
N(Alpha)           :        7.000002845769 electrons
N(Beta)            :        7.000002845769 electrons
N(Total)           :       14.000005691537 electrons
E(XC)              :       -7.801564072135 Eh       

---------------
SCF CONVERGENCE
---------------

  Last Energy change         ...   -7.0348e-09  Tolerance :   1.0000e-06
  Last MAX-Density change    ...    4.6188e-06  Tolerance :   1.0000e-05
  Last RMS-Density change    ...    4.6538e-07  Tolerance :   1.0000e-06
  Last DIIS Error            ...    1.6257e-06  Tolerance :   1.0000e-06

             **** THE GBW FILE WAS UPDATED (Scan_10.gbw) ****
             **** DENSITY FILE WAS UPDATED (Scan_10.scfp.tmp) ****
             **** ENERGY FILE WAS UPDATED (Scan_10.en.tmp) ****
----------------
ORBITAL ENERGIES
----------------

  NO   OCC          E(Eh)            E(eV) 
   0   2.0000     -10.304025      -280.3868 
   1   2.0000     -10.302679      -280.3501 
   2   2.0000      -0.846558       -23.0360 
   3   2.0000      -0.682672       -18.5765 
   4   2.0000      -0.591409       -16.0931 
   5   2.0000      -0.366586        -9.9753 
   6   2.0000      -0.366586        -9.9753 
   7   0.0000       0.120423         3.2769 
   8   0.0000       0.120424         3.2769 
   9   0.0000       0.198649         5.4055 
  10   0.0000       0.254817         6.9339 
  11   0.0000       0.496317        13.5055 
  12   0.0000       0.577582        15.7168 
  13   0.0000       0.643901        17.5214 
  14   0.0000       0.643901        17.5215 
  15   0.0000       0.748413        20.3654 
  16   0.0000       0.748413        20.3654 
  17   0.0000       0.854923        23.2636 
  18   0.0000       0.945106        25.7176 
  19   0.0000       1.124289        30.5935 
  20   0.0000       1.239748        33.7353 
  21   0.0000       1.561248        42.4837 
  22   0.0000       1.561248        42.4837 
  23   0.0000       1.599227        43.5172 
  24   0.0000       1.658764        45.1373 
  25   0.0000       1.659004        45.1438 
  26   0.0000       2.002993        54.5042 
  27   0.0000       2.003065        54.5062 
  28   0.0000       2.510004        68.3007 
  29   0.0000       2.510005        68.3007 
  30   0.0000       2.540567        69.1323 
  31   0.0000       3.208872        87.3179 

                    ********************************
                    * MULLIKEN POPULATION ANALYSIS *
                    ********************************

-----------------------
MULLIKEN ATOMIC CHARGES
-----------------------
   0 C :   -0.235434
   1 C :   -0.235438
   2 H :    0.235436
   3 H :    0.235436
Sum of atomic charges:   -0.0000000

--------------------------------
MULLIKEN REDUCED ORBITAL CHARGES
--------------------------------
  0 C s       :     3.246001  s :     3.246001
      pz      :     0.994895  p :     2.968842
      px      :     0.979053
      py      :     0.994894
      dz2     :     0.002596  d :     0.020592
      dxz     :     0.005104
      dyz     :     0.000000
      dx2y2   :     0.007788
      dxy     :     0.005104
  1 C s       :     3.246001  s :     3.246001
      pz      :     0.994897  p :     2.968845
      px      :     0.979053
      py      :     0.994895
      dz2     :     0.002596  d :     0.020592
      dxz     :     0.005104
      dyz     :     0.000000
      dx2y2   :     0.007788
      dxy     :     0.005104
  2 H s       :     0.764564  s :     0.764564
  3 H s       :     0.764564  s :     0.764564


                     *******************************
                     * LOEWDIN POPULATION ANALYSIS *
                     *******************************

----------------------
LOEWDIN ATOMIC CHARGES
----------------------
   0 C :   -0.174368
   1 C :   -0.174371
   2 H :    0.174369
   3 H :    0.174370

-------------------------------
LOEWDIN REDUCED ORBITAL CHARGES
-------------------------------
  0 C s       :     3.024199  s :     3.024199
      pz      :     0.989617  p :     3.108646
      px      :     1.129407
      py      :     0.989621
      dz2     :     0.005190  d :     0.041523
      dxz     :     0.010382
      dyz     :     0.000000
      dx2y2   :     0.015569
      dxy     :     0.010382
  1 C s       :     3.024199  s :     3.024199
      pz      :     0.989619  p :     3.108649
      px      :     1.129408
      py      :     0.989623
      dz2     :     0.005190  d :     0.041523
      dxz     :     0.010382
      dyz     :     0.000000
      dx2y2   :     0.015569
      dxy     :     0.010382
  2 H s       :     0.825631  s :     0.825631
  3 H s       :     0.825630  s :     0.825630


                      *****************************
                      * MAYER POPULATION ANALYSIS *
                      *****************************

  NA   - Mulliken gross atomic population
  ZA   - Total nuclear charge
  QA   - Mulliken gross atomic charge
  VA   - Mayer's total valence
  BVA  - Mayer's bonded valence
  FA   - Mayer's free valence

  ATOM       NA         ZA         QA         VA         BVA        FA
  0 C      6.2354     6.0000    -0.2354     3.9351     3.9351     0.0000
  1 C      6.2354     6.0000    -0.2354     3.9351     3.9351    -0.0000
  2 H      0.7646     1.0000     0.2354     0.9191     0.9191     0.0000
  3 H      0.7646     1.0000     0.2354     0.9191     0.9191    -0.0000

  Mayer bond orders larger than 0.1
B(  0-C ,  1-C ) :   3.0189 B(  0-C ,  2-H ) :   0.9050 B(  1-C ,  3-H ) :   0.9050 


-------
TIMINGS
-------

Total SCF time: 0 days 0 hours 0 min 3 sec 

Total time                  ....       3.041 sec
Sum of individual times     ....       2.935 sec  ( 96.5%)

Fock matrix formation       ....       2.604 sec  ( 85.7%)
  XC integration            ....       0.589 sec  ( 22.6% of F)
    Basis function eval.    ....       0.206 sec  ( 35.0% of XC)
    Density eval.           ....       0.029 sec  (  4.9% of XC)
    XC-Functional eval.     ....       0.173 sec  ( 29.3% of XC)
    XC-Potential eval.      ....       0.029 sec  (  4.9% of XC)
Diagonalization             ....       0.006 sec  (  0.2%)
Density matrix formation    ....       0.000 sec  (  0.0%)
Population analysis         ....       0.010 sec  (  0.3%)
Initial guess               ....       0.126 sec  (  4.2%)
Orbital Transformation      ....       0.000 sec  (  0.0%)
Orbital Orthonormalization  ....       0.000 sec  (  0.0%)
DIIS solution               ....       0.000 sec  (  0.0%)
Grid generation             ....       0.188 sec  (  6.2%)


-------------------------------------------------------------------------------
                          DFT DISPERSION CORRECTION                            
                                                                               
                              DFTD3 V3.1  Rev 1                                
                              USING zero damping                               
-------------------------------------------------------------------------------
The omegaB97X-D3 functional is recognized. Fit by Chai et al.
Active option DFTDOPT                   ...         3   

molecular C6(AA) [au] = 206.664022 


            DFT-D V3
 parameters
 s6 scaling factor         :     1.0000 
 rs6 scaling factor        :     1.2810 
 s8 scaling factor         :     1.0000 
 rs8 scaling factor        :     1.0940 
 Damping factor alpha6     :    14.0000 
 Damping factor alpha8     :    16.0000 
 ad hoc parameters k1-k3   :    16.0000     1.3333    -4.0000 

 Edisp/kcal,au: -0.059769256779  -0.000095248363 
 E6   /kcal   :  -0.024351429 
 E8   /kcal   :  -0.035417827 
 % E8         :  59.257600642 

-------------------------   ----------------
Dispersion correction           -0.000095248
-------------------------   ----------------


-------------------------   --------------------
FINAL SINGLE POINT ENERGY       -77.285590882526
-------------------------   --------------------


                            ***************************************
                            *     ORCA property calculations      *
                            ***************************************

                                    ---------------------
                                    Active property flags
                                    ---------------------
   (+) Dipole Moment


------------------------------------------------------------------------------
                       ORCA ELECTRIC PROPERTIES CALCULATION
------------------------------------------------------------------------------

Dipole Moment Calculation                       ... on
Quadrupole Moment Calculation                   ... off
Polarizability Calculation                      ... off
GBWName                                         ... Scan_10.gbw
Electron density file                           ... Scan_10.scfp.tmp

-------------
DIPOLE MOMENT
-------------
                                X             Y             Z
Electronic contribution:     -0.00000      -0.00000      -0.00000
Nuclear contribution   :      0.00000       0.00000       0.00000
                        -----------------------------------------
Total Dipole Moment    :     -0.00000      -0.00000      -0.00000
                        -----------------------------------------
Magnitude (a.u.)       :      0.00000
Magnitude (Debye)      :      0.00001


Timings for individual modules:

Sum of individual times         ...        3.366 sec (=   0.056 min)
GTO integral calculation        ...        0.302 sec (=   0.005 min)   9.0 %
SCF iterations                  ...        3.064 sec (=   0.051 min)  91.0 %
                             ****ORCA TERMINATED NORMALLY****
TOTAL RUN TIME: 0 days 0 hours 0 minutes 3 seconds 684 msec
