
                                 *****************
                                 * O   R   C   A *
                                 *****************

           --- An Ab Initio, DFT and Semiempirical electronic structure package ---

                  #######################################################
                  #                        -***-                        #
                  #  Department of molecular theory and spectroscopy    #
                  #              Directorship: Frank Neese              #
                  # Max Planck Institute for Chemical Energy Conversion #
                  #                  D-45470 Muelheim/Ruhr              #
                  #                       Germany                       #
                  #                                                     #
                  #                  All rights reserved                #
                  #                        -***-                        #
                  #######################################################


                         Program Version 4.0.0.2 - RELEASE -


 With contributions from (in alphabetic order):
   Daniel Aravena         : Magnetic Properties
   Michael Atanasov       : Ab Initio Ligand Field Theory
   Ute Becker             : Parallelization
   Martin Brehm           : Molecular dynamics
   Dmytro Bykov           : SCF Hessian
   Vijay G. Chilkuri      : MRCI spin determinant printing
   Dipayan Datta          : RHF DLPNO-CCSD density
   Achintya Kumar Dutta   : EOM-CC, STEOM-CC
   Dmitry Ganyushin       : Spin-Orbit,Spin-Spin,Magnetic field MRCI
   Yang Guo               : DLPNO-NEVPT2, CIM, IAO-localization
   Andreas Hansen         : Spin unrestricted coupled pair/coupled cluster methods
   Lee Huntington         : MR-EOM, pCC
   Robert Izsak           : Overlap fitted RIJCOSX, COSX-SCS-MP3, EOM
   Christian Kollmar      : KDIIS, OOCD, Brueckner-CCSD(T), CCSD density
   Simone Kossmann        : Meta GGA functionals, TD-DFT gradient, OOMP2, MP2 Hessian
   Martin Krupicka        : AUTO-CI
   Dagmar Lenk            : GEPOL surface
   Dimitrios Liakos       : Extrapolation schemes; parallel MDCI
   Dimitrios Manganas     : ROCIS; embedding schemes
   Dimitrios Pantazis     : SARC Basis sets
   Taras Petrenko         : DFT Hessian,TD-DFT gradient, ASA, ECA, R-Raman, ABS, FL, XAS/XES, NRVS
   Peter Pinski           : DLPNO-MP2
   Christoph Reimann      : Effective Core Potentials
   Marius Retegan         : Local ZFS, SOC
   Christoph Riplinger    : Optimizer, TS searches, QM/MM, DLPNO-CCSD(T), (RO)-DLPNO pert. Triples
   Tobias Risthaus        : Range-separated hybrids, TD-DFT gradient, RPA, STAB
   Michael Roemelt        : Restricted open shell CIS
   Masaaki Saitow         : Open-shell DLPNO
   Barbara Sandhoefer     : DKH picture change effects
   Kantharuban Sivalingam : CASSCF convergence, NEVPT2, FIC-MRCI
   Georgi Stoychev        : AutoAux
   Boris Wezisla          : Elementary symmetry handling
   Frank Wennmohs         : Technical directorship


 We gratefully acknowledge several colleagues who have allowed us to
 interface, adapt or use parts of their codes:
   Stefan Grimme, W. Hujo, H. Kruse,             : VdW corrections, initial TS optimization,
                  C. Bannwarth                     DFT functionals, gCP, sTDA/sTD-DF
   Ed Valeev                                     : LibInt (2-el integral package), F12 methods
   Garnet Chan, S. Sharma, J. Yang, R. Olivares  : DMRG
   Ulf Ekstrom                                   : XCFun DFT Library
   Mihaly Kallay                                 : mrcc  (arbitrary order and MRCC methods)
   Jiri Pittner, Ondrej Demel                    : Mk-CCSD
   Frank Weinhold                                : gennbo (NPA and NBO analysis)
   Christopher J. Cramer and Donald G. Truhlar   : smd solvation model


 Your calculation uses the libint2 library for the computation of 2-el integrals
 For citations please refer to: http://libint.valeyev.net

 This ORCA versions uses:
   CBLAS   interface :  Fast vector & matrix operations
   LAPACKE interface :  Fast linear algebra routines
   SCALAPACK package :  Parallel linear algebra routines


Your calculation utilizes the atom-pairwise dispersion correction
with the zero-damping scheme (D30)
Cite in your paper:
S.Grimme, J.Antony, S.Ehrlich and H.Krieg, J.Chem.Phys., 132, (2010), 154104 
   

XCFun DFT library Copyright 2009-2010 Ulf Ekstrom and contributors.
See http://admol.org/xcfun for more information. This is free soft-
ware; see the source code for copying conditions. There is ABSOLUTELY
NO WARRANTY; not even for MERCHANTABILITY or FITNESS FOR A PARTICULAR
PURPOSE. For details see the documentation. Scientific users of this 
library should cite U. Ekstrom, L. Visscher, R. Bast, A. J. Thorvald-
sen and K. Ruud; J.Chem.Theor.Comp. 2010, DOI: 10.1021/ct100117s
XCFun Version 0.99 
Your calculation utilizes the basis: 6-31G(d)
   H-He, Li-Ne : W. J. Hehre, R. Ditchfield and J.A. Pople, J. Chem. Phys. 56, 2257 (1972).
                 Note: He and Ne are unpublished basis sets taken from the Gaussian program.
                 Note: Li and B from J. D. Dill and J. A. Pople, J. Chem. Phys. 62, 2921 (1975).
   Na - Ar     : M. M. Francl, W. J. Pietro, W. J. Hehre, J. S. Binkley, M. S. Gordon, 
                 D. J. DeFrees and J. A. Pople, J. Chem. Phys. 77, 3654 (1982).
   K - Zn      : V. A. Rassolov, J. A. Pople, M. A. Ratner, and T. L. Windus, J. Chem. Phys. 109, 1223 (1998).

================================================================================
                                        WARNINGS
                       Please study these warnings very carefully!
================================================================================

Warning: TCutStore was < 0. Adjusted to Thresh (uncritical)

INFO   : the flag for use of LIBINT has been found!

================================================================================
                                       INPUT FILE
================================================================================
NAME = initial11.inp
|  1> ! WB97X-D3 6-31G(d) VerySlowConv
|  2> ! KDIIS NOSOSCF
|  3> %base "Scan_11"
|  4> 
|  5> %scf
|  6> maxiter 999
|  7> end
|  8> 
|  9> * xyz 0 1
| 10> C         -2.921380474146    2.625132887370   -0.000000000008
| 11> C         -1.603129470599    2.632107112924    0.000000000008
| 12> H         -3.967744213233    2.619597938054   -0.000000000007
| 13> H         -0.556765842022    2.637642061651    0.000000000007
| 14> **                         ****END OF INPUT****
================================================================================

                       ****************************
                       * Single Point Calculation *
                       ****************************

---------------------------------
CARTESIAN COORDINATES (ANGSTROEM)
---------------------------------
  C     -2.921380    2.625133   -0.000000
  C     -1.603129    2.632107    0.000000
  H     -3.967744    2.619598   -0.000000
  H     -0.556766    2.637642    0.000000

----------------------------
CARTESIAN COORDINATES (A.U.)
----------------------------
  NO LB      ZA    FRAG     MASS         X           Y           Z
   0 C     6.0000    0    12.011   -5.520609    4.960782   -0.000000
   1 C     6.0000    0    12.011   -3.029476    4.973962    0.000000
   2 H     1.0000    0     1.008   -7.497950    4.950323   -0.000000
   3 H     1.0000    0     1.008   -1.052135    4.984421    0.000000

--------------------------------
INTERNAL COORDINATES (ANGSTROEM)
--------------------------------
 C      0   0   0     0.000000000000     0.00000000     0.00000000
 C      1   0   0     1.318269452037     0.00000000     0.00000000
 H      1   2   0     1.046378378093   179.99995331     0.00000000
 H      2   1   3     1.046378267581   179.99995331   180.00000000

---------------------------
INTERNAL COORDINATES (A.U.)
---------------------------
 C      0   0   0     0.000000000000     0.00000000     0.00000000
 C      1   0   0     2.491168235065     0.00000000     0.00000000
 H      1   2   0     1.977368567052   179.99995331     0.00000000
 H      2   1   3     1.977368358215   179.99995331   180.00000000

---------------------
BASIS SET INFORMATION
---------------------
There are 2 groups of distinct atoms

 Group   1 Type C   : 10s4p1d contracted to 3s2p1d pattern {631/31/1}
 Group   2 Type H   : 4s contracted to 2s pattern {31}

Atom   0C    basis set group =>   1
Atom   1C    basis set group =>   1
Atom   2H    basis set group =>   2
Atom   3H    basis set group =>   2
------------------------------------------------------------------------------
                           ORCA GTO INTEGRAL CALCULATION
------------------------------------------------------------------------------

                         BASIS SET STATISTICS AND STARTUP INFO

 # of primitive gaussian shells          ...   38
 # of primitive gaussian functions       ...   62
 # of contracted shells                  ...   16
 # of contracted basis functions         ...   32
 Highest angular momentum                ...    2
 Maximum contraction depth               ...    6
 Integral package used                   ... LIBINT
 Integral threshhold            Thresh   ...  1.000e-10
 Primitive cut-off              TCut     ...  1.000e-11


------------------------------ INTEGRAL EVALUATION ----------------------------


 * One electron integrals 
 Pre-screening matrix                    ... done
 Shell pair data                         ... done (   0.000 sec)

-------------------------------------------------------------------------------
                                 ORCA SCF
-------------------------------------------------------------------------------

------------
SCF SETTINGS
------------
Hamiltonian:
 Density Functional     Method          .... DFT(GTOs)
 Exchange Functional    Exchange        .... WB97X-D3
 Correlation Functional Correlation     .... WB97X-D3
 Gradients option       PostSCFGGA      .... off
 Hybrid DFT is turned on
   Fraction HF Exchange ScalHFX         ....  0.195728
   Scaling of DF-GGA-X  ScalDFX         ....  0.000000
   Scaling of DF-GGA-C  ScalDFC         ....  1.000000
   Scaling of DF-LDA-C  ScalLDAC        ....  1.000000
   Perturbative correction              ....  0.000000
 Long-range corrected/Screened/Range-Separated Hybrid DFT is turned on
   Amount of maximum screened exact exchange              ....  0.804272
   Range separation parameter mu (erf(mu*r12)/r12)        ....  0.250000


General Settings:
 Integral files         IntName         .... Scan_11
 Hartree-Fock type      HFTyp           .... RHF
 Total Charge           Charge          ....    0
 Multiplicity           Mult            ....    1
 Number of Electrons    NEL             ....   14
 Basis Dimension        Dim             ....   32
 Nuclear Repulsion      ENuc            ....     23.3603031171 Eh

Convergence Acceleration:
 DIIS                   CNVDIIS         .... on
   Start iteration      DIISMaxIt       ....     0
   Startup error        DIISStart       ....  0.200000
   # of expansion vecs  DIISMaxEq       ....     5
   Bias factor          DIISBfac        ....   1.050
   Max. coefficient     DIISMaxC        ....  10.000
 Newton-Raphson         CNVNR           .... off
 SOSCF                  CNVSOSCF        .... off
 Level Shifting         CNVShift        .... off
 Zerner damping         CNVZerner       .... off
 Static damping         CNVDamp         .... off
 Fernandez-Rico         CNVRico         .... off

SCF Procedure:
 Maximum # iterations   MaxIter         ....   999
 SCF integral mode      SCFMode         .... Direct
   Integral package                     .... LIBINT
 Reset frequeny         DirectResetFreq ....    20
 Integral Threshold     Thresh          ....  1.000e-10 Eh
 Primitive CutOff       TCut            ....  1.000e-11 Eh

Convergence Tolerance:
 Convergence Check Mode ConvCheckMode   .... All-Criteria
 Convergence forced     ConvForced      .... 0
 Energy Change          TolE            ....  1.000e-06 Eh
 Max Density Change     TolMaxP         ....  1.000e-05
 RMS Density Change     TolRMSP         ....  1.000e-06
 DIIS Error             TolErr          ....  1.000e-06


Diagonalization of the overlap matrix:
Smallest eigenvalue                        ... 1.853e-03
Time for diagonalization                   ...    0.001 sec
Threshold for overlap eigenvalues          ... 1.000e-08
Number of eigenvalues below threshold      ... 0
Time for construction of square roots      ...    0.005 sec
Total time needed                          ...    0.006 sec

-------------------
DFT GRID GENERATION
-------------------

General Integration Accuracy     IntAcc      ...  4.340
Radial Grid Type                 RadialGrid  ... Gauss-Chebyshev
Angular Grid (max. acc.)         AngularGrid ... Lebedev-110
Angular grid pruning method      GridPruning ... 3 (G Style)
Weight generation scheme         WeightScheme... Becke
Basis function cutoff            BFCut       ...    1.0000e-10
Integration weight cutoff        WCut        ...    1.0000e-14
Grids for H and He will be reduced by one unit

# of grid points (after initial pruning)     ...   4900 (   0.0 sec)
# of grid points (after weights+screening)   ...   4822 (   0.0 sec)
nearest neighbour list constructed           ...    0.0 sec
Grid point re-assignment to atoms done       ...    0.0 sec
Grid point division into batches done        ...    0.0 sec
Reduced shell lists constructed in    0.0 sec

Total number of grid points                  ...     4822
Total number of batches                      ...       78
Average number of points per batch           ...       61
Average number of grid points per atom       ...     1206
Average number of shells per batch           ...    13.77 (86.08%)
Average number of basis functions per batch  ...    28.33 (88.53%)
Average number of large shells per batch     ...    12.76 (92.65%)
Average number of large basis fcns per batch ...    26.61 (93.92%)
Maximum spatial batch extension              ...  18.48, 25.61, 31.36 au
Average spatial batch extension              ...   4.00,  6.77,  7.49 au

Time for grid setup =    0.032 sec

------------------------------
INITIAL GUESS: MODEL POTENTIAL
------------------------------
Loading Hartree-Fock densities                     ... done
Calculating cut-offs                               ... done
Setting up the integral package                    ... done
Initializing the effective Hamiltonian             ... done
Starting the Coulomb interaction                   ... done (   0.0 sec)
Reading the grid                                   ... done
Mapping shells                                     ... done
Starting the XC term evaluation                    ... done (   0.0 sec)
  promolecular density results
     # of electrons  =     13.999934699
     EX              =    -10.689581476
     EC              =     -0.417634781
     EX+EC           =    -11.107216257
Transforming the Hamiltonian                       ... done (   0.0 sec)
Diagonalizing the Hamiltonian                      ... done (   0.0 sec)
Back transforming the eigenvectors                 ... done (   0.0 sec)
Now organizing SCF variables                       ... done
                      ------------------
                      INITIAL GUESS DONE (   0.2 sec)
                      ------------------
--------------
SCF ITERATIONS
--------------
ITER       Energy         Delta-E        Max-DP      RMS-DP      [F,P]   Gradient Norm
               ***  Starting incremental Fock matrix formation  ***
                             ****Resetting KDIIS****
                             ****Turning on KDIIS(Cayley)****
  0    -77.2322960071   0.000000000000 0.01069768  0.00134367  0.0788219   0.067497710
  1    -77.2428716144  -0.010575607282 0.01372596  0.00161906  0.0677314   0.057643309
  2    -77.2528410914  -0.009969477062 0.02192467  0.00260450  0.0547344   0.046543018
  3    -77.2645599408  -0.011718849402 0.03125164  0.00385827  0.0332316   0.028272221
  4    -77.2713439920  -0.006784051217 0.00060717  0.00008416  0.0003800   0.000313988
                          ***Energy convergence achieved***
  5    -77.2713448743  -0.000000882218 0.00009911  0.00001129  0.0000759   0.000065135
Warning: badly conditioned DIIS matrix, 1 vectors out of 5 destroyed

            ***Energy convergence in two consecutive cycles with***
                    ***'reasonable' density convergence***
                       *** signaling convergence ***

                    *** KDIIS BlockDiag ( 0.000 sec) ***

               *****************************************************
               *                     SUCCESS                       *
               *           SCF CONVERGED AFTER   6 CYCLES          *
               *****************************************************

Setting up the final grid:

General Integration Accuracy     IntAcc      ...  4.670
Radial Grid Type                 RadialGrid  ... Gauss-Chebyshev
Angular Grid (max. acc.)         AngularGrid ... Lebedev-302
Angular grid pruning method      GridPruning ... 3 (G Style)
Weight generation scheme         WeightScheme... Becke
Basis function cutoff            BFCut       ...    1.0000e-10
Integration weight cutoff        WCut        ...    1.0000e-14
Grids for H and He will be reduced by one unit

# of grid points (after initial pruning)     ...  19212 (   0.0 sec)
# of grid points (after weights+screening)   ...  18878 (   0.0 sec)
nearest neighbour list constructed           ...    0.0 sec
Grid point re-assignment to atoms done       ...    0.0 sec
Grid point division into batches done        ...    0.1 sec
Reduced shell lists constructed in    0.1 sec

Total number of grid points                  ...    18878
Total number of batches                      ...      298
Average number of points per batch           ...       63
Average number of grid points per atom       ...     4720
Average number of shells per batch           ...    12.71 (79.41%)
Average number of basis functions per batch  ...    26.14 (81.68%)
Average number of large shells per batch     ...    11.46 (90.18%)
Average number of large basis fcns per batch ...    23.81 (91.08%)
Maximum spatial batch extension              ...  19.10, 25.72, 25.71 au
Average spatial batch extension              ...   2.90,  4.41,  4.35 au

Final grid set up in    0.2 sec
Final integration                            ... done (   0.2 sec)
Change in XC energy                          ...    -0.000257404
Integrated number of electrons               ...    14.000002789
Previous integrated no of electrons          ...    13.996276933

----------------
TOTAL SCF ENERGY
----------------

Total Energy       :          -77.27160230 Eh           -2102.66720 eV

Components:
Nuclear Repulsion  :           23.36030312 Eh             635.66616 eV
Electronic Energy  :         -100.63190542 Eh           -2738.33336 eV
One Electron Energy:         -149.11746598 Eh           -4057.69254 eV
Two Electron Energy:           48.48556056 Eh            1319.35918 eV

Virial components:
Potential Energy   :         -153.68008038 Eh           -4181.84759 eV
Kinetic Energy     :           76.40847808 Eh            2079.18039 eV
Virial Ratio       :            2.01129618


DFT components:
N(Alpha)           :        7.000001394741 electrons
N(Beta)            :        7.000001394741 electrons
N(Total)           :       14.000002789481 electrons
E(XC)              :       -7.772866748459 Eh       

---------------
SCF CONVERGENCE
---------------

  Last Energy change         ...   -2.4758e-08  Tolerance :   1.0000e-06
  Last MAX-Density change    ...    5.9875e-05  Tolerance :   1.0000e-05
  Last RMS-Density change    ...    8.2548e-06  Tolerance :   1.0000e-06
  Last DIIS Error            ...    4.6171e-05  Tolerance :   1.0000e-06

             **** THE GBW FILE WAS UPDATED (Scan_11.gbw) ****
             **** DENSITY FILE WAS UPDATED (Scan_11.scfp.tmp) ****
             **** ENERGY FILE WAS UPDATED (Scan_11.en.tmp) ****
----------------
ORBITAL ENERGIES
----------------

  NO   OCC          E(Eh)            E(eV) 
   0   2.0000     -10.315009      -280.6857 
   1   2.0000     -10.314075      -280.6603 
   2   2.0000      -0.838927       -22.8284 
   3   2.0000      -0.688146       -18.7254 
   4   2.0000      -0.589719       -16.0471 
   5   2.0000      -0.360197        -9.8015 
   6   2.0000      -0.360197        -9.8015 
   7   0.0000       0.107393         2.9223 
   8   0.0000       0.107394         2.9223 
   9   0.0000       0.190479         5.1832 
  10   0.0000       0.254380         6.9220 
  11   0.0000       0.475503        12.9391 
  12   0.0000       0.583784        15.8856 
  13   0.0000       0.649072        17.6621 
  14   0.0000       0.649072        17.6621 
  15   0.0000       0.740461        20.1490 
  16   0.0000       0.740461        20.1490 
  17   0.0000       0.854848        23.2616 
  18   0.0000       0.949701        25.8427 
  19   0.0000       1.108882        30.1742 
  20   0.0000       1.178172        32.0597 
  21   0.0000       1.539397        41.8891 
  22   0.0000       1.539398        41.8891 
  23   0.0000       1.584380        43.1132 
  24   0.0000       1.671113        45.4733 
  25   0.0000       1.671262        45.4773 
  26   0.0000       1.980081        53.8807 
  27   0.0000       1.980090        53.8810 
  28   0.0000       2.460792        66.9615 
  29   0.0000       2.460793        66.9616 
  30   0.0000       2.489315        67.7377 
  31   0.0000       3.146880        85.6309 

                    ********************************
                    * MULLIKEN POPULATION ANALYSIS *
                    ********************************

-----------------------
MULLIKEN ATOMIC CHARGES
-----------------------
   0 C :   -0.240392
   1 C :   -0.240396
   2 H :    0.240394
   3 H :    0.240394
Sum of atomic charges:    0.0000000

--------------------------------
MULLIKEN REDUCED ORBITAL CHARGES
--------------------------------
  0 C s       :     3.257169  s :     3.257169
      pz      :     0.995629  p :     2.964329
      px      :     0.973073
      py      :     0.995627
      dz2     :     0.002538  d :     0.018894
      dxz     :     0.004370
      dyz     :     0.000000
      dx2y2   :     0.007615
      dxy     :     0.004370
  1 C s       :     3.257170  s :     3.257170
      pz      :     0.995631  p :     2.964333
      px      :     0.973073
      py      :     0.995629
      dz2     :     0.002538  d :     0.018894
      dxz     :     0.004370
      dyz     :     0.000000
      dx2y2   :     0.007615
      dxy     :     0.004370
  2 H s       :     0.759606  s :     0.759606
  3 H s       :     0.759606  s :     0.759606


                     *******************************
                     * LOEWDIN POPULATION ANALYSIS *
                     *******************************

----------------------
LOEWDIN ATOMIC CHARGES
----------------------
   0 C :   -0.177091
   1 C :   -0.177094
   2 H :    0.177092
   3 H :    0.177093

-------------------------------
LOEWDIN REDUCED ORBITAL CHARGES
-------------------------------
  0 C s       :     3.037836  s :     3.037836
      pz      :     0.991134  p :     3.102391
      px      :     1.120119
      py      :     0.991138
      dz2     :     0.004784  d :     0.036864
      dxz     :     0.008865
      dyz     :     0.000000
      dx2y2   :     0.014350
      dxy     :     0.008865
  1 C s       :     3.037836  s :     3.037836
      pz      :     0.991136  p :     3.102394
      px      :     1.120119
      py      :     0.991139
      dz2     :     0.004784  d :     0.036864
      dxz     :     0.008865
      dyz     :     0.000000
      dx2y2   :     0.014350
      dxy     :     0.008865
  2 H s       :     0.822908  s :     0.822908
  3 H s       :     0.822907  s :     0.822907


                      *****************************
                      * MAYER POPULATION ANALYSIS *
                      *****************************

  NA   - Mulliken gross atomic population
  ZA   - Total nuclear charge
  QA   - Mulliken gross atomic charge
  VA   - Mayer's total valence
  BVA  - Mayer's bonded valence
  FA   - Mayer's free valence

  ATOM       NA         ZA         QA         VA         BVA        FA
  0 C      6.2404     6.0000    -0.2404     3.9226     3.9226    -0.0000
  1 C      6.2404     6.0000    -0.2404     3.9226     3.9226     0.0000
  2 H      0.7596     1.0000     0.2404     0.9184     0.9184    -0.0000
  3 H      0.7596     1.0000     0.2404     0.9184     0.9184     0.0000

  Mayer bond orders larger than 0.1
B(  0-C ,  1-C ) :   3.0073 B(  0-C ,  2-H ) :   0.9032 B(  1-C ,  3-H ) :   0.9032 


-------
TIMINGS
-------

Total SCF time: 0 days 0 hours 0 min 2 sec 

Total time                  ....       2.727 sec
Sum of individual times     ....       2.633 sec  ( 96.6%)

Fock matrix formation       ....       2.303 sec  ( 84.5%)
  XC integration            ....       0.544 sec  ( 23.6% of F)
    Basis function eval.    ....       0.188 sec  ( 34.6% of XC)
    Density eval.           ....       0.026 sec  (  4.9% of XC)
    XC-Functional eval.     ....       0.153 sec  ( 28.2% of XC)
    XC-Potential eval.      ....       0.025 sec  (  4.7% of XC)
Diagonalization             ....       0.006 sec  (  0.2%)
Density matrix formation    ....       0.000 sec  (  0.0%)
Population analysis         ....       0.010 sec  (  0.4%)
Initial guess               ....       0.122 sec  (  4.5%)
Orbital Transformation      ....       0.000 sec  (  0.0%)
Orbital Orthonormalization  ....       0.000 sec  (  0.0%)
DIIS solution               ....       0.000 sec  (  0.0%)
Grid generation             ....       0.192 sec  (  7.0%)


-------------------------------------------------------------------------------
                          DFT DISPERSION CORRECTION                            
                                                                               
                              DFTD3 V3.1  Rev 1                                
                              USING zero damping                               
-------------------------------------------------------------------------------
The omegaB97X-D3 functional is recognized. Fit by Chai et al.
Active option DFTDOPT                   ...         3   

molecular C6(AA) [au] = 206.671386 


            DFT-D V3
 parameters
 s6 scaling factor         :     1.0000 
 rs6 scaling factor        :     1.2810 
 s8 scaling factor         :     1.0000 
 rs8 scaling factor        :     1.0940 
 Damping factor alpha6     :    14.0000 
 Damping factor alpha8     :    16.0000 
 ad hoc parameters k1-k3   :    16.0000     1.3333    -4.0000 

 Edisp/kcal,au: -0.063407566012  -0.000101046378 
 E6   /kcal   :  -0.024520347 
 E8   /kcal   :  -0.038887219 
 % E8         :  61.328989376 

-------------------------   ----------------
Dispersion correction           -0.000101046
-------------------------   ----------------


-------------------------   --------------------
FINAL SINGLE POINT ENERGY       -77.271703349848
-------------------------   --------------------


                            ***************************************
                            *     ORCA property calculations      *
                            ***************************************

                                    ---------------------
                                    Active property flags
                                    ---------------------
   (+) Dipole Moment


------------------------------------------------------------------------------
                       ORCA ELECTRIC PROPERTIES CALCULATION
------------------------------------------------------------------------------

Dipole Moment Calculation                       ... on
Quadrupole Moment Calculation                   ... off
Polarizability Calculation                      ... off
GBWName                                         ... Scan_11.gbw
Electron density file                           ... Scan_11.scfp.tmp

-------------
DIPOLE MOMENT
-------------
                                X             Y             Z
Electronic contribution:     -0.00000      -0.00000       0.00000
Nuclear contribution   :     -0.00000      -0.00000       0.00000
                        -----------------------------------------
Total Dipole Moment    :     -0.00000      -0.00000       0.00000
                        -----------------------------------------
Magnitude (a.u.)       :      0.00000
Magnitude (Debye)      :      0.00001


Timings for individual modules:

Sum of individual times         ...        3.053 sec (=   0.051 min)
GTO integral calculation        ...        0.302 sec (=   0.005 min)   9.9 %
SCF iterations                  ...        2.750 sec (=   0.046 min)  90.1 %
                             ****ORCA TERMINATED NORMALLY****
TOTAL RUN TIME: 0 days 0 hours 0 minutes 3 seconds 385 msec
