
                                 *****************
                                 * O   R   C   A *
                                 *****************

           --- An Ab Initio, DFT and Semiempirical electronic structure package ---

                  #######################################################
                  #                        -***-                        #
                  #  Department of molecular theory and spectroscopy    #
                  #              Directorship: Frank Neese              #
                  # Max Planck Institute for Chemical Energy Conversion #
                  #                  D-45470 Muelheim/Ruhr              #
                  #                       Germany                       #
                  #                                                     #
                  #                  All rights reserved                #
                  #                        -***-                        #
                  #######################################################


                         Program Version 4.0.0.2 - RELEASE -


 With contributions from (in alphabetic order):
   Daniel Aravena         : Magnetic Properties
   Michael Atanasov       : Ab Initio Ligand Field Theory
   Ute Becker             : Parallelization
   Martin Brehm           : Molecular dynamics
   Dmytro Bykov           : SCF Hessian
   Vijay G. Chilkuri      : MRCI spin determinant printing
   Dipayan Datta          : RHF DLPNO-CCSD density
   Achintya Kumar Dutta   : EOM-CC, STEOM-CC
   Dmitry Ganyushin       : Spin-Orbit,Spin-Spin,Magnetic field MRCI
   Yang Guo               : DLPNO-NEVPT2, CIM, IAO-localization
   Andreas Hansen         : Spin unrestricted coupled pair/coupled cluster methods
   Lee Huntington         : MR-EOM, pCC
   Robert Izsak           : Overlap fitted RIJCOSX, COSX-SCS-MP3, EOM
   Christian Kollmar      : KDIIS, OOCD, Brueckner-CCSD(T), CCSD density
   Simone Kossmann        : Meta GGA functionals, TD-DFT gradient, OOMP2, MP2 Hessian
   Martin Krupicka        : AUTO-CI
   Dagmar Lenk            : GEPOL surface
   Dimitrios Liakos       : Extrapolation schemes; parallel MDCI
   Dimitrios Manganas     : ROCIS; embedding schemes
   Dimitrios Pantazis     : SARC Basis sets
   Taras Petrenko         : DFT Hessian,TD-DFT gradient, ASA, ECA, R-Raman, ABS, FL, XAS/XES, NRVS
   Peter Pinski           : DLPNO-MP2
   Christoph Reimann      : Effective Core Potentials
   Marius Retegan         : Local ZFS, SOC
   Christoph Riplinger    : Optimizer, TS searches, QM/MM, DLPNO-CCSD(T), (RO)-DLPNO pert. Triples
   Tobias Risthaus        : Range-separated hybrids, TD-DFT gradient, RPA, STAB
   Michael Roemelt        : Restricted open shell CIS
   Masaaki Saitow         : Open-shell DLPNO
   Barbara Sandhoefer     : DKH picture change effects
   Kantharuban Sivalingam : CASSCF convergence, NEVPT2, FIC-MRCI
   Georgi Stoychev        : AutoAux
   Boris Wezisla          : Elementary symmetry handling
   Frank Wennmohs         : Technical directorship


 We gratefully acknowledge several colleagues who have allowed us to
 interface, adapt or use parts of their codes:
   Stefan Grimme, W. Hujo, H. Kruse,             : VdW corrections, initial TS optimization,
                  C. Bannwarth                     DFT functionals, gCP, sTDA/sTD-DF
   Ed Valeev                                     : LibInt (2-el integral package), F12 methods
   Garnet Chan, S. Sharma, J. Yang, R. Olivares  : DMRG
   Ulf Ekstrom                                   : XCFun DFT Library
   Mihaly Kallay                                 : mrcc  (arbitrary order and MRCC methods)
   Jiri Pittner, Ondrej Demel                    : Mk-CCSD
   Frank Weinhold                                : gennbo (NPA and NBO analysis)
   Christopher J. Cramer and Donald G. Truhlar   : smd solvation model


 Your calculation uses the libint2 library for the computation of 2-el integrals
 For citations please refer to: http://libint.valeyev.net

 This ORCA versions uses:
   CBLAS   interface :  Fast vector & matrix operations
   LAPACKE interface :  Fast linear algebra routines
   SCALAPACK package :  Parallel linear algebra routines


Your calculation utilizes the atom-pairwise dispersion correction
with the zero-damping scheme (D30)
Cite in your paper:
S.Grimme, J.Antony, S.Ehrlich and H.Krieg, J.Chem.Phys., 132, (2010), 154104 
   

XCFun DFT library Copyright 2009-2010 Ulf Ekstrom and contributors.
See http://admol.org/xcfun for more information. This is free soft-
ware; see the source code for copying conditions. There is ABSOLUTELY
NO WARRANTY; not even for MERCHANTABILITY or FITNESS FOR A PARTICULAR
PURPOSE. For details see the documentation. Scientific users of this 
library should cite U. Ekstrom, L. Visscher, R. Bast, A. J. Thorvald-
sen and K. Ruud; J.Chem.Theor.Comp. 2010, DOI: 10.1021/ct100117s
XCFun Version 0.99 
Your calculation utilizes the basis: 6-31G(d)
   H-He, Li-Ne : W. J. Hehre, R. Ditchfield and J.A. Pople, J. Chem. Phys. 56, 2257 (1972).
                 Note: He and Ne are unpublished basis sets taken from the Gaussian program.
                 Note: Li and B from J. D. Dill and J. A. Pople, J. Chem. Phys. 62, 2921 (1975).
   Na - Ar     : M. M. Francl, W. J. Pietro, W. J. Hehre, J. S. Binkley, M. S. Gordon, 
                 D. J. DeFrees and J. A. Pople, J. Chem. Phys. 77, 3654 (1982).
   K - Zn      : V. A. Rassolov, J. A. Pople, M. A. Ratner, and T. L. Windus, J. Chem. Phys. 109, 1223 (1998).

================================================================================
                                        WARNINGS
                       Please study these warnings very carefully!
================================================================================

Warning: TCutStore was < 0. Adjusted to Thresh (uncritical)

INFO   : the flag for use of LIBINT has been found!

================================================================================
                                       INPUT FILE
================================================================================
NAME = initial12.inp
|  1> ! WB97X-D3 6-31G(d) VerySlowConv
|  2> ! KDIIS NOSOSCF
|  3> %base "Scan_12"
|  4> 
|  5> %scf
|  6> maxiter 999
|  7> end
|  8> 
|  9> * xyz 0 1
| 10> C         -2.949041778019    2.624986523778   -0.000000000008
| 11> C         -1.575467862226    2.632253478105    0.000000000008
| 12> H         -3.993853711898    2.619459827311   -0.000000000008
| 13> H         -0.530656647858    2.637780170805    0.000000000008
| 14> **                         ****END OF INPUT****
================================================================================

                       ****************************
                       * Single Point Calculation *
                       ****************************

---------------------------------
CARTESIAN COORDINATES (ANGSTROEM)
---------------------------------
  C     -2.949042    2.624987   -0.000000
  C     -1.575468    2.632253    0.000000
  H     -3.993854    2.619460   -0.000000
  H     -0.530657    2.637780    0.000000

----------------------------
CARTESIAN COORDINATES (A.U.)
----------------------------
  NO LB      ZA    FRAG     MASS         X           Y           Z
   0 C     6.0000    0    12.011   -5.572881    4.960506   -0.000000
   1 C     6.0000    0    12.011   -2.977203    4.974238    0.000000
   2 H     1.0000    0     1.008   -7.547290    4.950062   -0.000000
   3 H     1.0000    0     1.008   -1.002796    4.984682    0.000000

--------------------------------
INTERNAL COORDINATES (ANGSTROEM)
--------------------------------
 C      0   0   0     0.000000000000     0.00000000     0.00000000
 C      1   0   0     1.373593138732     0.00000000     0.00000000
 H      1   2   0     1.044826550940   179.99994909     0.00000000
 H      2   1   3     1.044825831419   179.99994916   180.00000000

---------------------------
INTERNAL COORDINATES (A.U.)
---------------------------
 C      0   0   0     0.000000000000     0.00000000     0.00000000
 C      1   0   0     2.595714851637     0.00000000     0.00000000
 H      1   2   0     1.974436038727   179.99994909     0.00000000
 H      2   1   3     1.974434679029   179.99994916   180.00000000

---------------------
BASIS SET INFORMATION
---------------------
There are 2 groups of distinct atoms

 Group   1 Type C   : 10s4p1d contracted to 3s2p1d pattern {631/31/1}
 Group   2 Type H   : 4s contracted to 2s pattern {31}

Atom   0C    basis set group =>   1
Atom   1C    basis set group =>   1
Atom   2H    basis set group =>   2
Atom   3H    basis set group =>   2
------------------------------------------------------------------------------
                           ORCA GTO INTEGRAL CALCULATION
------------------------------------------------------------------------------

                         BASIS SET STATISTICS AND STARTUP INFO

 # of primitive gaussian shells          ...   38
 # of primitive gaussian functions       ...   62
 # of contracted shells                  ...   16
 # of contracted basis functions         ...   32
 Highest angular momentum                ...    2
 Maximum contraction depth               ...    6
 Integral package used                   ... LIBINT
 Integral threshhold            Thresh   ...  1.000e-10
 Primitive cut-off              TCut     ...  1.000e-11


------------------------------ INTEGRAL EVALUATION ----------------------------


 * One electron integrals 
 Pre-screening matrix                    ... done
 Shell pair data                         ... done (   0.000 sec)

-------------------------------------------------------------------------------
                                 ORCA SCF
-------------------------------------------------------------------------------

------------
SCF SETTINGS
------------
Hamiltonian:
 Density Functional     Method          .... DFT(GTOs)
 Exchange Functional    Exchange        .... WB97X-D3
 Correlation Functional Correlation     .... WB97X-D3
 Gradients option       PostSCFGGA      .... off
 Hybrid DFT is turned on
   Fraction HF Exchange ScalHFX         ....  0.195728
   Scaling of DF-GGA-X  ScalDFX         ....  0.000000
   Scaling of DF-GGA-C  ScalDFC         ....  1.000000
   Scaling of DF-LDA-C  ScalLDAC        ....  1.000000
   Perturbative correction              ....  0.000000
 Long-range corrected/Screened/Range-Separated Hybrid DFT is turned on
   Amount of maximum screened exact exchange              ....  0.804272
   Range separation parameter mu (erf(mu*r12)/r12)        ....  0.250000


General Settings:
 Integral files         IntName         .... Scan_12
 Hartree-Fock type      HFTyp           .... RHF
 Total Charge           Charge          ....    0
 Multiplicity           Mult            ....    1
 Number of Electrons    NEL             ....   14
 Basis Dimension        Dim             ....   32
 Nuclear Repulsion      ENuc            ....     22.7252311061 Eh

Convergence Acceleration:
 DIIS                   CNVDIIS         .... on
   Start iteration      DIISMaxIt       ....     0
   Startup error        DIISStart       ....  0.200000
   # of expansion vecs  DIISMaxEq       ....     5
   Bias factor          DIISBfac        ....   1.050
   Max. coefficient     DIISMaxC        ....  10.000
 Newton-Raphson         CNVNR           .... off
 SOSCF                  CNVSOSCF        .... off
 Level Shifting         CNVShift        .... off
 Zerner damping         CNVZerner       .... off
 Static damping         CNVDamp         .... off
 Fernandez-Rico         CNVRico         .... off

SCF Procedure:
 Maximum # iterations   MaxIter         ....   999
 SCF integral mode      SCFMode         .... Direct
   Integral package                     .... LIBINT
 Reset frequeny         DirectResetFreq ....    20
 Integral Threshold     Thresh          ....  1.000e-10 Eh
 Primitive CutOff       TCut            ....  1.000e-11 Eh

Convergence Tolerance:
 Convergence Check Mode ConvCheckMode   .... All-Criteria
 Convergence forced     ConvForced      .... 0
 Energy Change          TolE            ....  1.000e-06 Eh
 Max Density Change     TolMaxP         ....  1.000e-05
 RMS Density Change     TolRMSP         ....  1.000e-06
 DIIS Error             TolErr          ....  1.000e-06


Diagonalization of the overlap matrix:
Smallest eigenvalue                        ... 2.404e-03
Time for diagonalization                   ...    0.001 sec
Threshold for overlap eigenvalues          ... 1.000e-08
Number of eigenvalues below threshold      ... 0
Time for construction of square roots      ...    0.004 sec
Total time needed                          ...    0.005 sec

-------------------
DFT GRID GENERATION
-------------------

General Integration Accuracy     IntAcc      ...  4.340
Radial Grid Type                 RadialGrid  ... Gauss-Chebyshev
Angular Grid (max. acc.)         AngularGrid ... Lebedev-110
Angular grid pruning method      GridPruning ... 3 (G Style)
Weight generation scheme         WeightScheme... Becke
Basis function cutoff            BFCut       ...    1.0000e-10
Integration weight cutoff        WCut        ...    1.0000e-14
Grids for H and He will be reduced by one unit

# of grid points (after initial pruning)     ...   4900 (   0.0 sec)
# of grid points (after weights+screening)   ...   4822 (   0.0 sec)
nearest neighbour list constructed           ...    0.0 sec
Grid point re-assignment to atoms done       ...    0.0 sec
Grid point division into batches done        ...    0.0 sec
Reduced shell lists constructed in    0.0 sec

Total number of grid points                  ...     4822
Total number of batches                      ...       76
Average number of points per batch           ...       63
Average number of grid points per atom       ...     1206
Average number of shells per batch           ...    13.86 (86.61%)
Average number of basis functions per batch  ...    28.51 (89.08%)
Average number of large shells per batch     ...    12.82 (92.50%)
Average number of large basis fcns per batch ...    26.84 (94.17%)
Maximum spatial batch extension              ...  18.58, 25.61, 31.36 au
Average spatial batch extension              ...   4.06,  6.93,  7.53 au

Time for grid setup =    0.032 sec

------------------------------
INITIAL GUESS: MODEL POTENTIAL
------------------------------
Loading Hartree-Fock densities                     ... done
Calculating cut-offs                               ... done
Setting up the integral package                    ... done
Initializing the effective Hamiltonian             ... done
Starting the Coulomb interaction                   ... done (   0.0 sec)
Reading the grid                                   ... done
Mapping shells                                     ... done
Starting the XC term evaluation                    ... done (   0.0 sec)
  promolecular density results
     # of electrons  =     13.999669144
     EX              =    -10.672728770
     EC              =     -0.415664730
     EX+EC           =    -11.088393500
Transforming the Hamiltonian                       ... done (   0.0 sec)
Diagonalizing the Hamiltonian                      ... done (   0.0 sec)
Back transforming the eigenvectors                 ... done (   0.0 sec)
Now organizing SCF variables                       ... done
                      ------------------
                      INITIAL GUESS DONE (   0.1 sec)
                      ------------------
--------------
SCF ITERATIONS
--------------
ITER       Energy         Delta-E        Max-DP      RMS-DP      [F,P]   Gradient Norm
               ***  Starting incremental Fock matrix formation  ***
                             ****Resetting KDIIS****
                             ****Turning on KDIIS(Cayley)****
  0    -77.2178064157   0.000000000000 0.00960159  0.00118397  0.0697054   0.059516096
  1    -77.2260351902  -0.008228774478 0.01225479  0.00145292  0.0599963   0.050952345
  2    -77.2339508064  -0.007915616197 0.01992022  0.00234811  0.0484204   0.041097370
  3    -77.2432374790  -0.009286672613 0.02870271  0.00348405  0.0293299   0.024909990
  4    -77.2485880013  -0.005350522297 0.00054868  0.00007391  0.0003350   0.000276070
                          ***Energy convergence achieved***
  5    -77.2485887423  -0.000000740947 0.00008362  0.00001006  0.0000701   0.000057533
Warning: badly conditioned DIIS matrix, 1 vectors out of 5 destroyed

            ***Energy convergence in two consecutive cycles with***
                    ***'reasonable' density convergence***
                       *** signaling convergence ***

                    *** KDIIS BlockDiag ( 0.000 sec) ***

               *****************************************************
               *                     SUCCESS                       *
               *           SCF CONVERGED AFTER   6 CYCLES          *
               *****************************************************

Setting up the final grid:

General Integration Accuracy     IntAcc      ...  4.670
Radial Grid Type                 RadialGrid  ... Gauss-Chebyshev
Angular Grid (max. acc.)         AngularGrid ... Lebedev-302
Angular grid pruning method      GridPruning ... 3 (G Style)
Weight generation scheme         WeightScheme... Becke
Basis function cutoff            BFCut       ...    1.0000e-10
Integration weight cutoff        WCut        ...    1.0000e-14
Grids for H and He will be reduced by one unit

# of grid points (after initial pruning)     ...  19212 (   0.0 sec)
# of grid points (after weights+screening)   ...  18880 (   0.0 sec)
nearest neighbour list constructed           ...    0.0 sec
Grid point re-assignment to atoms done       ...    0.0 sec
Grid point division into batches done        ...    0.1 sec
Reduced shell lists constructed in    0.1 sec

Total number of grid points                  ...    18880
Total number of batches                      ...      296
Average number of points per batch           ...       63
Average number of grid points per atom       ...     4720
Average number of shells per batch           ...    12.68 (79.25%)
Average number of basis functions per batch  ...    26.07 (81.46%)
Average number of large shells per batch     ...    11.33 (89.38%)
Average number of large basis fcns per batch ...    23.49 (90.11%)
Maximum spatial batch extension              ...  19.21, 25.72, 25.71 au
Average spatial batch extension              ...   2.91,  4.40,  4.36 au

Final grid set up in    0.2 sec
Final integration                            ... done (   0.2 sec)
Change in XC energy                          ...    -0.000386777
Integrated number of electrons               ...    13.999996646
Previous integrated no of electrons          ...    13.995983402

----------------
TOTAL SCF ENERGY
----------------

Total Energy       :          -77.24897554 Eh           -2102.05149 eV

Components:
Nuclear Repulsion  :           22.72523111 Eh             618.38498 eV
Electronic Energy  :          -99.97420665 Eh           -2720.43647 eV
One Electron Energy:         -147.81012376 Eh           -4022.11795 eV
Two Electron Energy:           47.83591711 Eh            1301.68148 eV

Virial components:
Potential Energy   :         -153.50152508 Eh           -4176.98885 eV
Kinetic Energy     :           76.25254954 Eh            2074.93736 eV
Virial Ratio       :            2.01306745


DFT components:
N(Alpha)           :        6.999998323213 electrons
N(Beta)            :        6.999998323213 electrons
N(Total)           :       13.999996646427 electrons
E(XC)              :       -7.741786942590 Eh       

---------------
SCF CONVERGENCE
---------------

  Last Energy change         ...   -2.1713e-08  Tolerance :   1.0000e-06
  Last MAX-Density change    ...    4.9826e-05  Tolerance :   1.0000e-05
  Last RMS-Density change    ...    6.7940e-06  Tolerance :   1.0000e-06
  Last DIIS Error            ...    3.8383e-05  Tolerance :   1.0000e-06

             **** THE GBW FILE WAS UPDATED (Scan_12.gbw) ****
             **** DENSITY FILE WAS UPDATED (Scan_12.scfp.tmp) ****
             **** ENERGY FILE WAS UPDATED (Scan_12.en.tmp) ****
----------------
ORBITAL ENERGIES
----------------

  NO   OCC          E(Eh)            E(eV) 
   0   2.0000     -10.327548      -281.0269 
   1   2.0000     -10.326941      -281.0104 
   2   2.0000      -0.830143       -22.5893 
   3   2.0000      -0.694473       -18.8976 
   4   2.0000      -0.586902       -15.9704 
   5   2.0000      -0.353053        -9.6071 
   6   2.0000      -0.353053        -9.6071 
   7   0.0000       0.092548         2.5184 
   8   0.0000       0.092549         2.5184 
   9   0.0000       0.179569         4.8863 
  10   0.0000       0.253964         6.9107 
  11   0.0000       0.450405        12.2561 
  12   0.0000       0.591953        16.1079 
  13   0.0000       0.653962        17.7952 
  14   0.0000       0.653963        17.7952 
  15   0.0000       0.732318        19.9274 
  16   0.0000       0.732319        19.9274 
  17   0.0000       0.854843        23.2615 
  18   0.0000       0.955401        25.9978 
  19   0.0000       1.091109        29.6906 
  20   0.0000       1.114636        30.3308 
  21   0.0000       1.519894        41.3584 
  22   0.0000       1.519895        41.3584 
  23   0.0000       1.566046        42.6143 
  24   0.0000       1.685590        45.8672 
  25   0.0000       1.685599        45.8675 
  26   0.0000       1.954513        53.1850 
  27   0.0000       1.954602        53.1874 
  28   0.0000       2.402269        65.3691 
  29   0.0000       2.402270        65.3691 
  30   0.0000       2.423972        65.9596 
  31   0.0000       3.090533        84.0977 

                    ********************************
                    * MULLIKEN POPULATION ANALYSIS *
                    ********************************

-----------------------
MULLIKEN ATOMIC CHARGES
-----------------------
   0 C :   -0.245868
   1 C :   -0.245921
   2 H :    0.245893
   3 H :    0.245896
Sum of atomic charges:    0.0000000

--------------------------------
MULLIKEN REDUCED ORBITAL CHARGES
--------------------------------
  0 C s       :     3.270355  s :     3.270355
      pz      :     0.996422  p :     2.958467
      px      :     0.965625
      py      :     0.996420
      dz2     :     0.002477  d :     0.017046
      dxz     :     0.003568
      dyz     :     0.000000
      dx2y2   :     0.007432
      dxy     :     0.003569
  1 C s       :     3.270362  s :     3.270362
      pz      :     0.996441  p :     2.958513
      px      :     0.965633
      py      :     0.996439
      dz2     :     0.002477  d :     0.017046
      dxz     :     0.003568
      dyz     :     0.000000
      dx2y2   :     0.007432
      dxy     :     0.003568
  2 H s       :     0.754107  s :     0.754107
  3 H s       :     0.754104  s :     0.754104


                     *******************************
                     * LOEWDIN POPULATION ANALYSIS *
                     *******************************

----------------------
LOEWDIN ATOMIC CHARGES
----------------------
   0 C :   -0.180156
   1 C :   -0.180199
   2 H :    0.180177
   3 H :    0.180179

-------------------------------
LOEWDIN REDUCED ORBITAL CHARGES
-------------------------------
  0 C s       :     3.054108  s :     3.054108
      pz      :     0.992727  p :     3.094048
      px      :     1.108590
      py      :     0.992730
      dz2     :     0.004368  d :     0.032000
      dxz     :     0.007264
      dyz     :     0.000000
      dx2y2   :     0.013104
      dxy     :     0.007264
  1 C s       :     3.054112  s :     3.054112
      pz      :     0.992745  p :     3.094088
      px      :     1.108594
      py      :     0.992749
      dz2     :     0.004368  d :     0.031999
      dxz     :     0.007263
      dyz     :     0.000000
      dx2y2   :     0.013104
      dxy     :     0.007264
  2 H s       :     0.819823  s :     0.819823
  3 H s       :     0.819821  s :     0.819821


                      *****************************
                      * MAYER POPULATION ANALYSIS *
                      *****************************

  NA   - Mulliken gross atomic population
  ZA   - Total nuclear charge
  QA   - Mulliken gross atomic charge
  VA   - Mayer's total valence
  BVA  - Mayer's bonded valence
  FA   - Mayer's free valence

  ATOM       NA         ZA         QA         VA         BVA        FA
  0 C      6.2459     6.0000    -0.2459     3.9096     3.9096    -0.0000
  1 C      6.2459     6.0000    -0.2459     3.9096     3.9096     0.0000
  2 H      0.7541     1.0000     0.2459     0.9172     0.9172    -0.0000
  3 H      0.7541     1.0000     0.2459     0.9172     0.9172     0.0000

  Mayer bond orders larger than 0.1
B(  0-C ,  1-C ) :   2.9955 B(  0-C ,  2-H ) :   0.9004 B(  1-C ,  3-H ) :   0.9004 


-------
TIMINGS
-------

Total SCF time: 0 days 0 hours 0 min 2 sec 

Total time                  ....       2.624 sec
Sum of individual times     ....       2.523 sec  ( 96.1%)

Fock matrix formation       ....       2.202 sec  ( 83.9%)
  XC integration            ....       0.532 sec  ( 24.2% of F)
    Basis function eval.    ....       0.182 sec  ( 34.3% of XC)
    Density eval.           ....       0.026 sec  (  4.8% of XC)
    XC-Functional eval.     ....       0.149 sec  ( 28.0% of XC)
    XC-Potential eval.      ....       0.025 sec  (  4.7% of XC)
Diagonalization             ....       0.004 sec  (  0.2%)
Density matrix formation    ....       0.000 sec  (  0.0%)
Population analysis         ....       0.010 sec  (  0.4%)
Initial guess               ....       0.121 sec  (  4.6%)
Orbital Transformation      ....       0.000 sec  (  0.0%)
Orbital Orthonormalization  ....       0.000 sec  (  0.0%)
DIIS solution               ....       0.000 sec  (  0.0%)
Grid generation             ....       0.185 sec  (  7.0%)


-------------------------------------------------------------------------------
                          DFT DISPERSION CORRECTION                            
                                                                               
                              DFTD3 V3.1  Rev 1                                
                              USING zero damping                               
-------------------------------------------------------------------------------
The omegaB97X-D3 functional is recognized. Fit by Chai et al.
Active option DFTDOPT                   ...         3   

molecular C6(AA) [au] = 206.680778 


            DFT-D V3
 parameters
 s6 scaling factor         :     1.0000 
 rs6 scaling factor        :     1.2810 
 s8 scaling factor         :     1.0000 
 rs8 scaling factor        :     1.0940 
 Damping factor alpha6     :    14.0000 
 Damping factor alpha8     :    16.0000 
 ad hoc parameters k1-k3   :    16.0000     1.3333    -4.0000 

 Edisp/kcal,au: -0.068545757179  -0.000109234606 
 E6   /kcal   :  -0.024720482 
 E8   /kcal   :  -0.043825275 
 % E8         :  63.935795872 

-------------------------   ----------------
Dispersion correction           -0.000109235
-------------------------   ----------------


-------------------------   --------------------
FINAL SINGLE POINT ENERGY       -77.249084775344
-------------------------   --------------------


                            ***************************************
                            *     ORCA property calculations      *
                            ***************************************

                                    ---------------------
                                    Active property flags
                                    ---------------------
   (+) Dipole Moment


------------------------------------------------------------------------------
                       ORCA ELECTRIC PROPERTIES CALCULATION
------------------------------------------------------------------------------

Dipole Moment Calculation                       ... on
Quadrupole Moment Calculation                   ... off
Polarizability Calculation                      ... off
GBWName                                         ... Scan_12.gbw
Electron density file                           ... Scan_12.scfp.tmp

-------------
DIPOLE MOMENT
-------------
                                X             Y             Z
Electronic contribution:     -0.00005      -0.00000      -0.00000
Nuclear contribution   :     -0.00000      -0.00000       0.00000
                        -----------------------------------------
Total Dipole Moment    :     -0.00005      -0.00000      -0.00000
                        -----------------------------------------
Magnitude (a.u.)       :      0.00005
Magnitude (Debye)      :      0.00014


Timings for individual modules:

Sum of individual times         ...        2.949 sec (=   0.049 min)
GTO integral calculation        ...        0.302 sec (=   0.005 min)  10.2 %
SCF iterations                  ...        2.647 sec (=   0.044 min)  89.8 %
                             ****ORCA TERMINATED NORMALLY****
TOTAL RUN TIME: 0 days 0 hours 0 minutes 3 seconds 280 msec
