
                                 *****************
                                 * O   R   C   A *
                                 *****************

           --- An Ab Initio, DFT and Semiempirical electronic structure package ---

                  #######################################################
                  #                        -***-                        #
                  #  Department of molecular theory and spectroscopy    #
                  #              Directorship: Frank Neese              #
                  # Max Planck Institute for Chemical Energy Conversion #
                  #                  D-45470 Muelheim/Ruhr              #
                  #                       Germany                       #
                  #                                                     #
                  #                  All rights reserved                #
                  #                        -***-                        #
                  #######################################################


                         Program Version 4.0.0.2 - RELEASE -


 With contributions from (in alphabetic order):
   Daniel Aravena         : Magnetic Properties
   Michael Atanasov       : Ab Initio Ligand Field Theory
   Ute Becker             : Parallelization
   Martin Brehm           : Molecular dynamics
   Dmytro Bykov           : SCF Hessian
   Vijay G. Chilkuri      : MRCI spin determinant printing
   Dipayan Datta          : RHF DLPNO-CCSD density
   Achintya Kumar Dutta   : EOM-CC, STEOM-CC
   Dmitry Ganyushin       : Spin-Orbit,Spin-Spin,Magnetic field MRCI
   Yang Guo               : DLPNO-NEVPT2, CIM, IAO-localization
   Andreas Hansen         : Spin unrestricted coupled pair/coupled cluster methods
   Lee Huntington         : MR-EOM, pCC
   Robert Izsak           : Overlap fitted RIJCOSX, COSX-SCS-MP3, EOM
   Christian Kollmar      : KDIIS, OOCD, Brueckner-CCSD(T), CCSD density
   Simone Kossmann        : Meta GGA functionals, TD-DFT gradient, OOMP2, MP2 Hessian
   Martin Krupicka        : AUTO-CI
   Dagmar Lenk            : GEPOL surface
   Dimitrios Liakos       : Extrapolation schemes; parallel MDCI
   Dimitrios Manganas     : ROCIS; embedding schemes
   Dimitrios Pantazis     : SARC Basis sets
   Taras Petrenko         : DFT Hessian,TD-DFT gradient, ASA, ECA, R-Raman, ABS, FL, XAS/XES, NRVS
   Peter Pinski           : DLPNO-MP2
   Christoph Reimann      : Effective Core Potentials
   Marius Retegan         : Local ZFS, SOC
   Christoph Riplinger    : Optimizer, TS searches, QM/MM, DLPNO-CCSD(T), (RO)-DLPNO pert. Triples
   Tobias Risthaus        : Range-separated hybrids, TD-DFT gradient, RPA, STAB
   Michael Roemelt        : Restricted open shell CIS
   Masaaki Saitow         : Open-shell DLPNO
   Barbara Sandhoefer     : DKH picture change effects
   Kantharuban Sivalingam : CASSCF convergence, NEVPT2, FIC-MRCI
   Georgi Stoychev        : AutoAux
   Boris Wezisla          : Elementary symmetry handling
   Frank Wennmohs         : Technical directorship


 We gratefully acknowledge several colleagues who have allowed us to
 interface, adapt or use parts of their codes:
   Stefan Grimme, W. Hujo, H. Kruse,             : VdW corrections, initial TS optimization,
                  C. Bannwarth                     DFT functionals, gCP, sTDA/sTD-DF
   Ed Valeev                                     : LibInt (2-el integral package), F12 methods
   Garnet Chan, S. Sharma, J. Yang, R. Olivares  : DMRG
   Ulf Ekstrom                                   : XCFun DFT Library
   Mihaly Kallay                                 : mrcc  (arbitrary order and MRCC methods)
   Jiri Pittner, Ondrej Demel                    : Mk-CCSD
   Frank Weinhold                                : gennbo (NPA and NBO analysis)
   Christopher J. Cramer and Donald G. Truhlar   : smd solvation model


 Your calculation uses the libint2 library for the computation of 2-el integrals
 For citations please refer to: http://libint.valeyev.net

 This ORCA versions uses:
   CBLAS   interface :  Fast vector & matrix operations
   LAPACKE interface :  Fast linear algebra routines
   SCALAPACK package :  Parallel linear algebra routines


Your calculation utilizes the atom-pairwise dispersion correction
with the zero-damping scheme (D30)
Cite in your paper:
S.Grimme, J.Antony, S.Ehrlich and H.Krieg, J.Chem.Phys., 132, (2010), 154104 
   

XCFun DFT library Copyright 2009-2010 Ulf Ekstrom and contributors.
See http://admol.org/xcfun for more information. This is free soft-
ware; see the source code for copying conditions. There is ABSOLUTELY
NO WARRANTY; not even for MERCHANTABILITY or FITNESS FOR A PARTICULAR
PURPOSE. For details see the documentation. Scientific users of this 
library should cite U. Ekstrom, L. Visscher, R. Bast, A. J. Thorvald-
sen and K. Ruud; J.Chem.Theor.Comp. 2010, DOI: 10.1021/ct100117s
XCFun Version 0.99 
Your calculation utilizes the basis: 6-31G(d)
   H-He, Li-Ne : W. J. Hehre, R. Ditchfield and J.A. Pople, J. Chem. Phys. 56, 2257 (1972).
                 Note: He and Ne are unpublished basis sets taken from the Gaussian program.
                 Note: Li and B from J. D. Dill and J. A. Pople, J. Chem. Phys. 62, 2921 (1975).
   Na - Ar     : M. M. Francl, W. J. Pietro, W. J. Hehre, J. S. Binkley, M. S. Gordon, 
                 D. J. DeFrees and J. A. Pople, J. Chem. Phys. 77, 3654 (1982).
   K - Zn      : V. A. Rassolov, J. A. Pople, M. A. Ratner, and T. L. Windus, J. Chem. Phys. 109, 1223 (1998).

================================================================================
                                        WARNINGS
                       Please study these warnings very carefully!
================================================================================

Warning: TCutStore was < 0. Adjusted to Thresh (uncritical)

INFO   : the flag for use of LIBINT has been found!

================================================================================
                                       INPUT FILE
================================================================================
NAME = initial13.inp
|  1> ! WB97X-D3 6-31G(d) VerySlowConv
|  2> ! KDIIS NOSOSCF
|  3> %base "Scan_13"
|  4> 
|  5> %scf
|  6> maxiter 999
|  7> end
|  8> 
|  9> * xyz 0 1
| 10> C         -2.983198463904    2.624805679825   -0.000000000011
| 11> C         -1.541311538492    2.632434320148    0.000000000011
| 12> H         -4.027389106147    2.619282522742   -0.000000000009
| 13> H         -0.497120891458    2.637957477285    0.000000000009
| 14> **                         ****END OF INPUT****
================================================================================

                       ****************************
                       * Single Point Calculation *
                       ****************************

---------------------------------
CARTESIAN COORDINATES (ANGSTROEM)
---------------------------------
  C     -2.983198    2.624806   -0.000000
  C     -1.541312    2.632434    0.000000
  H     -4.027389    2.619283   -0.000000
  H     -0.497121    2.637957    0.000000

----------------------------
CARTESIAN COORDINATES (A.U.)
----------------------------
  NO LB      ZA    FRAG     MASS         X           Y           Z
   0 C     6.0000    0    12.011   -5.637428    4.960164   -0.000000
   1 C     6.0000    0    12.011   -2.912657    4.974580    0.000000
   2 H     1.0000    0     1.008   -7.610662    4.949727   -0.000000
   3 H     1.0000    0     1.008   -0.939422    4.985017    0.000000

--------------------------------
INTERNAL COORDINATES (ANGSTROEM)
--------------------------------
 C      0   0   0     0.000000000000     0.00000000     0.00000000
 C      1   0   0     1.441907105825     0.00000000     0.00000000
 H      1   2   0     1.044205249274   179.99992440     0.00000000
 H      2   1   3     1.044205254066   179.99992437   180.00000000

---------------------------
INTERNAL COORDINATES (A.U.)
---------------------------
 C      0   0   0     0.000000000000     0.00000000     0.00000000
 C      1   0   0     2.724809540563     0.00000000     0.00000000
 H      1   2   0     1.973261948731   179.99992440     0.00000000
 H      2   1   3     1.973261957785   179.99992437   180.00000000

---------------------
BASIS SET INFORMATION
---------------------
There are 2 groups of distinct atoms

 Group   1 Type C   : 10s4p1d contracted to 3s2p1d pattern {631/31/1}
 Group   2 Type H   : 4s contracted to 2s pattern {31}

Atom   0C    basis set group =>   1
Atom   1C    basis set group =>   1
Atom   2H    basis set group =>   2
Atom   3H    basis set group =>   2
------------------------------------------------------------------------------
                           ORCA GTO INTEGRAL CALCULATION
------------------------------------------------------------------------------

                         BASIS SET STATISTICS AND STARTUP INFO

 # of primitive gaussian shells          ...   38
 # of primitive gaussian functions       ...   62
 # of contracted shells                  ...   16
 # of contracted basis functions         ...   32
 Highest angular momentum                ...    2
 Maximum contraction depth               ...    6
 Integral package used                   ... LIBINT
 Integral threshhold            Thresh   ...  1.000e-10
 Primitive cut-off              TCut     ...  1.000e-11


------------------------------ INTEGRAL EVALUATION ----------------------------


 * One electron integrals 
 Pre-screening matrix                    ... done
 Shell pair data                         ... done (   0.000 sec)

-------------------------------------------------------------------------------
                                 ORCA SCF
-------------------------------------------------------------------------------

------------
SCF SETTINGS
------------
Hamiltonian:
 Density Functional     Method          .... DFT(GTOs)
 Exchange Functional    Exchange        .... WB97X-D3
 Correlation Functional Correlation     .... WB97X-D3
 Gradients option       PostSCFGGA      .... off
 Hybrid DFT is turned on
   Fraction HF Exchange ScalHFX         ....  0.195728
   Scaling of DF-GGA-X  ScalDFX         ....  0.000000
   Scaling of DF-GGA-C  ScalDFC         ....  1.000000
   Scaling of DF-LDA-C  ScalLDAC        ....  1.000000
   Perturbative correction              ....  0.000000
 Long-range corrected/Screened/Range-Separated Hybrid DFT is turned on
   Amount of maximum screened exact exchange              ....  0.804272
   Range separation parameter mu (erf(mu*r12)/r12)        ....  0.250000


General Settings:
 Integral files         IntName         .... Scan_13
 Hartree-Fock type      HFTyp           .... RHF
 Total Charge           Charge          ....    0
 Multiplicity           Mult            ....    1
 Number of Electrons    NEL             ....   14
 Basis Dimension        Dim             ....   32
 Nuclear Repulsion      ENuc            ....     21.9973682738 Eh

Convergence Acceleration:
 DIIS                   CNVDIIS         .... on
   Start iteration      DIISMaxIt       ....     0
   Startup error        DIISStart       ....  0.200000
   # of expansion vecs  DIISMaxEq       ....     5
   Bias factor          DIISBfac        ....   1.050
   Max. coefficient     DIISMaxC        ....  10.000
 Newton-Raphson         CNVNR           .... off
 SOSCF                  CNVSOSCF        .... off
 Level Shifting         CNVShift        .... off
 Zerner damping         CNVZerner       .... off
 Static damping         CNVDamp         .... off
 Fernandez-Rico         CNVRico         .... off

SCF Procedure:
 Maximum # iterations   MaxIter         ....   999
 SCF integral mode      SCFMode         .... Direct
   Integral package                     .... LIBINT
 Reset frequeny         DirectResetFreq ....    20
 Integral Threshold     Thresh          ....  1.000e-10 Eh
 Primitive CutOff       TCut            ....  1.000e-11 Eh

Convergence Tolerance:
 Convergence Check Mode ConvCheckMode   .... All-Criteria
 Convergence forced     ConvForced      .... 0
 Energy Change          TolE            ....  1.000e-06 Eh
 Max Density Change     TolMaxP         ....  1.000e-05
 RMS Density Change     TolRMSP         ....  1.000e-06
 DIIS Error             TolErr          ....  1.000e-06


Diagonalization of the overlap matrix:
Smallest eigenvalue                        ... 3.251e-03
Time for diagonalization                   ...    0.001 sec
Threshold for overlap eigenvalues          ... 1.000e-08
Number of eigenvalues below threshold      ... 0
Time for construction of square roots      ...    0.005 sec
Total time needed                          ...    0.006 sec

-------------------
DFT GRID GENERATION
-------------------

General Integration Accuracy     IntAcc      ...  4.340
Radial Grid Type                 RadialGrid  ... Gauss-Chebyshev
Angular Grid (max. acc.)         AngularGrid ... Lebedev-110
Angular grid pruning method      GridPruning ... 3 (G Style)
Weight generation scheme         WeightScheme... Becke
Basis function cutoff            BFCut       ...    1.0000e-10
Integration weight cutoff        WCut        ...    1.0000e-14
Grids for H and He will be reduced by one unit

# of grid points (after initial pruning)     ...   4900 (   0.0 sec)
# of grid points (after weights+screening)   ...   4822 (   0.0 sec)
nearest neighbour list constructed           ...    0.0 sec
Grid point re-assignment to atoms done       ...    0.0 sec
Grid point division into batches done        ...    0.0 sec
Reduced shell lists constructed in    0.0 sec

Total number of grid points                  ...     4822
Total number of batches                      ...       76
Average number of points per batch           ...       63
Average number of grid points per atom       ...     1206
Average number of shells per batch           ...    13.86 (86.61%)
Average number of basis functions per batch  ...    28.51 (89.08%)
Average number of large shells per batch     ...    12.62 (91.10%)
Average number of large basis fcns per batch ...    26.29 (92.21%)
Maximum spatial batch extension              ...  18.71, 30.13, 37.85 au
Average spatial batch extension              ...   4.08,  7.09,  7.52 au

Time for grid setup =    0.032 sec

------------------------------
INITIAL GUESS: MODEL POTENTIAL
------------------------------
Loading Hartree-Fock densities                     ... done
Calculating cut-offs                               ... done
Setting up the integral package                    ... done
Initializing the effective Hamiltonian             ... done
Starting the Coulomb interaction                   ... done (   0.0 sec)
Reading the grid                                   ... done
Mapping shells                                     ... done
Starting the XC term evaluation                    ... done (   0.0 sec)
  promolecular density results
     # of electrons  =     13.999350218
     EX              =    -10.653726970
     EC              =     -0.413205954
     EX+EC           =    -11.066932924
Transforming the Hamiltonian                       ... done (   0.0 sec)
Diagonalizing the Hamiltonian                      ... done (   0.0 sec)
Back transforming the eigenvectors                 ... done (   0.0 sec)
Now organizing SCF variables                       ... done
                      ------------------
                      INITIAL GUESS DONE (   0.2 sec)
                      ------------------
--------------
SCF ITERATIONS
--------------
ITER       Energy         Delta-E        Max-DP      RMS-DP      [F,P]   Gradient Norm
               ***  Starting incremental Fock matrix formation  ***
                             ****Resetting KDIIS****
                             ****Turning on KDIIS(Cayley)****
  0    -77.1913588403   0.000000000000 0.00841360  0.00101887  0.0601643   0.051253815
  1    -77.1974552312  -0.006096390859 0.01075801  0.00127687  0.0518882   0.044018916
  2    -77.2034596024  -0.006004371249 0.01781101  0.00207454  0.0418290   0.035471856
  3    -77.2104963001  -0.007036697668 0.02589069  0.00308308  0.0252835   0.021455594
  4    -77.2145329389  -0.004036638818 0.00053143  0.00005828  0.0002823   0.000230970
                          ***Energy convergence achieved***
  5    -77.2145335154  -0.000000576451 0.00006373  0.00000686  0.0000380   0.000032942
Warning: badly conditioned DIIS matrix, 1 vectors out of 5 destroyed

            ***Energy convergence in two consecutive cycles with***
                    ***'reasonable' density convergence***
                       *** signaling convergence ***

                    *** KDIIS BlockDiag ( 0.000 sec) ***

               *****************************************************
               *                     SUCCESS                       *
               *           SCF CONVERGED AFTER   6 CYCLES          *
               *****************************************************

Setting up the final grid:

General Integration Accuracy     IntAcc      ...  4.670
Radial Grid Type                 RadialGrid  ... Gauss-Chebyshev
Angular Grid (max. acc.)         AngularGrid ... Lebedev-302
Angular grid pruning method      GridPruning ... 3 (G Style)
Weight generation scheme         WeightScheme... Becke
Basis function cutoff            BFCut       ...    1.0000e-10
Integration weight cutoff        WCut        ...    1.0000e-14
Grids for H and He will be reduced by one unit

# of grid points (after initial pruning)     ...  19212 (   0.0 sec)
# of grid points (after weights+screening)   ...  18882 (   0.0 sec)
nearest neighbour list constructed           ...    0.0 sec
Grid point re-assignment to atoms done       ...    0.0 sec
Grid point division into batches done        ...    0.1 sec
Reduced shell lists constructed in    0.1 sec

Total number of grid points                  ...    18882
Total number of batches                      ...      298
Average number of points per batch           ...       63
Average number of grid points per atom       ...     4720
Average number of shells per batch           ...    12.67 (79.18%)
Average number of basis functions per batch  ...    26.08 (81.50%)
Average number of large shells per batch     ...    11.26 (88.89%)
Average number of large basis fcns per batch ...    23.37 (89.63%)
Maximum spatial batch extension              ...  19.33, 25.72, 25.71 au
Average spatial batch extension              ...   2.95,  4.41,  4.35 au

Final grid set up in    0.2 sec
Final integration                            ... done (   0.2 sec)
Change in XC energy                          ...    -0.000577869
Integrated number of electrons               ...    14.000002787
Previous integrated no of electrons          ...    13.995643507

----------------
TOTAL SCF ENERGY
----------------

Total Energy       :          -77.21511139 Eh           -2101.13000 eV

Components:
Nuclear Repulsion  :           21.99736827 Eh             598.57882 eV
Electronic Energy  :          -99.21247966 Eh           -2699.70882 eV
One Electron Energy:         -146.29880912 Eh           -3980.99299 eV
Two Electron Energy:           47.08632946 Eh            1281.28416 eV

Virial components:
Potential Energy   :         -153.31048875 Eh           -4171.79049 eV
Kinetic Energy     :           76.09537736 Eh            2070.66049 eV
Virial Ratio       :            2.01471488


DFT components:
N(Alpha)           :        7.000001393642 electrons
N(Beta)            :        7.000001393642 electrons
N(Total)           :       14.000002787285 electrons
E(XC)              :       -7.707175617911 Eh       

---------------
SCF CONVERGENCE
---------------

  Last Energy change         ...   -5.5748e-09  Tolerance :   1.0000e-06
  Last MAX-Density change    ...    5.0553e-05  Tolerance :   1.0000e-05
  Last RMS-Density change    ...    5.2633e-06  Tolerance :   1.0000e-06
  Last DIIS Error            ...    2.8090e-05  Tolerance :   1.0000e-06

             **** THE GBW FILE WAS UPDATED (Scan_13.gbw) ****
             **** DENSITY FILE WAS UPDATED (Scan_13.scfp.tmp) ****
             **** ENERGY FILE WAS UPDATED (Scan_13.en.tmp) ****
----------------
ORBITAL ENERGIES
----------------

  NO   OCC          E(Eh)            E(eV) 
   0   2.0000     -10.341999      -281.4201 
   1   2.0000     -10.341637      -281.4102 
   2   2.0000      -0.820090       -22.3158 
   3   2.0000      -0.701308       -19.0836 
   4   2.0000      -0.581871       -15.8335 
   5   2.0000      -0.345009        -9.3882 
   6   2.0000      -0.345009        -9.3882 
   7   0.0000       0.075576         2.0565 
   8   0.0000       0.075577         2.0566 
   9   0.0000       0.163504         4.4492 
  10   0.0000       0.253024         6.8851 
  11   0.0000       0.420739        11.4489 
  12   0.0000       0.603103        16.4113 
  13   0.0000       0.657903        17.9025 
  14   0.0000       0.657903        17.9025 
  15   0.0000       0.724088        19.7034 
  16   0.0000       0.724088        19.7034 
  17   0.0000       0.854226        23.2447 
  18   0.0000       0.962190        26.1825 
  19   0.0000       1.050433        28.5837 
  20   0.0000       1.068956        29.0878 
  21   0.0000       1.506246        40.9870 
  22   0.0000       1.506247        40.9871 
  23   0.0000       1.541722        41.9524 
  24   0.0000       1.702197        46.3191 
  25   0.0000       1.702387        46.3243 
  26   0.0000       1.926142        52.4130 
  27   0.0000       1.926385        52.4196 
  28   0.0000       2.331756        63.4503 
  29   0.0000       2.331758        63.4504 
  30   0.0000       2.340722        63.6943 
  31   0.0000       3.036009        82.6140 

                    ********************************
                    * MULLIKEN POPULATION ANALYSIS *
                    ********************************

-----------------------
MULLIKEN ATOMIC CHARGES
-----------------------
   0 C :   -0.252553
   1 C :   -0.252552
   2 H :    0.252552
   3 H :    0.252552
Sum of atomic charges:   -0.0000000

--------------------------------
MULLIKEN REDUCED ORBITAL CHARGES
--------------------------------
  0 C s       :     3.286222  s :     3.286222
      pz      :     0.997277  p :     2.951276
      px      :     0.956723
      py      :     0.997275
      dz2     :     0.002402  d :     0.015055
      dxz     :     0.002723
      dyz     :     0.000000
      dx2y2   :     0.007207
      dxy     :     0.002723
  1 C s       :     3.286222  s :     3.286222
      pz      :     0.997277  p :     2.951275
      px      :     0.956723
      py      :     0.997275
      dz2     :     0.002402  d :     0.015055
      dxz     :     0.002723
      dyz     :     0.000000
      dx2y2   :     0.007207
      dxy     :     0.002723
  2 H s       :     0.747448  s :     0.747448
  3 H s       :     0.747448  s :     0.747448


                     *******************************
                     * LOEWDIN POPULATION ANALYSIS *
                     *******************************

----------------------
LOEWDIN ATOMIC CHARGES
----------------------
   0 C :   -0.183925
   1 C :   -0.183924
   2 H :    0.183925
   3 H :    0.183925

-------------------------------
LOEWDIN REDUCED ORBITAL CHARGES
-------------------------------
  0 C s       :     3.074442  s :     3.074442
      pz      :     0.994382  p :     3.082549
      px      :     1.093782
      py      :     0.994385
      dz2     :     0.003925  d :     0.026935
      dxz     :     0.005618
      dyz     :     0.000000
      dx2y2   :     0.011773
      dxy     :     0.005619
  1 C s       :     3.074442  s :     3.074442
      pz      :     0.994382  p :     3.082548
      px      :     1.093782
      py      :     0.994384
      dz2     :     0.003925  d :     0.026935
      dxz     :     0.005618
      dyz     :     0.000000
      dx2y2   :     0.011773
      dxy     :     0.005619
  2 H s       :     0.816075  s :     0.816075
  3 H s       :     0.816075  s :     0.816075


                      *****************************
                      * MAYER POPULATION ANALYSIS *
                      *****************************

  NA   - Mulliken gross atomic population
  ZA   - Total nuclear charge
  QA   - Mulliken gross atomic charge
  VA   - Mayer's total valence
  BVA  - Mayer's bonded valence
  FA   - Mayer's free valence

  ATOM       NA         ZA         QA         VA         BVA        FA
  0 C      6.2526     6.0000    -0.2526     3.8962     3.8962     0.0000
  1 C      6.2526     6.0000    -0.2526     3.8962     3.8962    -0.0000
  2 H      0.7474     1.0000     0.2526     0.9154     0.9154    -0.0000
  3 H      0.7474     1.0000     0.2526     0.9154     0.9154     0.0000

  Mayer bond orders larger than 0.1
B(  0-C ,  1-C ) :   2.9841 B(  0-C ,  2-H ) :   0.8957 B(  1-C ,  3-H ) :   0.8957 


-------
TIMINGS
-------

Total SCF time: 0 days 0 hours 0 min 2 sec 

Total time                  ....       2.694 sec
Sum of individual times     ....       2.579 sec  ( 95.8%)

Fock matrix formation       ....       2.258 sec  ( 83.8%)
  XC integration            ....       0.561 sec  ( 24.9% of F)
    Basis function eval.    ....       0.181 sec  ( 32.3% of XC)
    Density eval.           ....       0.026 sec  (  4.6% of XC)
    XC-Functional eval.     ....       0.149 sec  ( 26.6% of XC)
    XC-Potential eval.      ....       0.025 sec  (  4.5% of XC)
Diagonalization             ....       0.004 sec  (  0.2%)
Density matrix formation    ....       0.000 sec  (  0.0%)
Population analysis         ....       0.011 sec  (  0.4%)
Initial guess               ....       0.122 sec  (  4.5%)
Orbital Transformation      ....       0.000 sec  (  0.0%)
Orbital Orthonormalization  ....       0.000 sec  (  0.0%)
DIIS solution               ....       0.000 sec  (  0.0%)
Grid generation             ....       0.184 sec  (  6.8%)


-------------------------------------------------------------------------------
                          DFT DISPERSION CORRECTION                            
                                                                               
                              DFTD3 V3.1  Rev 1                                
                              USING zero damping                               
-------------------------------------------------------------------------------
The omegaB97X-D3 functional is recognized. Fit by Chai et al.
Active option DFTDOPT                   ...         3   

molecular C6(AA) [au] = 206.701673 


            DFT-D V3
 parameters
 s6 scaling factor         :     1.0000 
 rs6 scaling factor        :     1.2810 
 s8 scaling factor         :     1.0000 
 rs8 scaling factor        :     1.0940 
 Damping factor alpha6     :    14.0000 
 Damping factor alpha8     :    16.0000 
 ad hoc parameters k1-k3   :    16.0000     1.3333    -4.0000 

 Edisp/kcal,au: -0.076255226184  -0.000121520425 
 E6   /kcal   :  -0.025025963 
 E8   /kcal   :  -0.051229263 
 % E8         :  67.181314390 

-------------------------   ----------------
Dispersion correction           -0.000121520
-------------------------   ----------------


-------------------------   --------------------
FINAL SINGLE POINT ENERGY       -77.215232910623
-------------------------   --------------------


                            ***************************************
                            *     ORCA property calculations      *
                            ***************************************

                                    ---------------------
                                    Active property flags
                                    ---------------------
   (+) Dipole Moment


------------------------------------------------------------------------------
                       ORCA ELECTRIC PROPERTIES CALCULATION
------------------------------------------------------------------------------

Dipole Moment Calculation                       ... on
Quadrupole Moment Calculation                   ... off
Polarizability Calculation                      ... off
GBWName                                         ... Scan_13.gbw
Electron density file                           ... Scan_13.scfp.tmp

-------------
DIPOLE MOMENT
-------------
                                X             Y             Z
Electronic contribution:      0.00000       0.00000      -0.00000
Nuclear contribution   :      0.00000       0.00000       0.00000
                        -----------------------------------------
Total Dipole Moment    :      0.00000       0.00000      -0.00000
                        -----------------------------------------
Magnitude (a.u.)       :      0.00000
Magnitude (Debye)      :      0.00000


Timings for individual modules:

Sum of individual times         ...        3.021 sec (=   0.050 min)
GTO integral calculation        ...        0.300 sec (=   0.005 min)   9.9 %
SCF iterations                  ...        2.721 sec (=   0.045 min)  90.1 %
                             ****ORCA TERMINATED NORMALLY****
TOTAL RUN TIME: 0 days 0 hours 0 minutes 3 seconds 364 msec
