
                                 *****************
                                 * O   R   C   A *
                                 *****************

           --- An Ab Initio, DFT and Semiempirical electronic structure package ---

                  #######################################################
                  #                        -***-                        #
                  #  Department of molecular theory and spectroscopy    #
                  #              Directorship: Frank Neese              #
                  # Max Planck Institute for Chemical Energy Conversion #
                  #                  D-45470 Muelheim/Ruhr              #
                  #                       Germany                       #
                  #                                                     #
                  #                  All rights reserved                #
                  #                        -***-                        #
                  #######################################################


                         Program Version 4.0.0.2 - RELEASE -


 With contributions from (in alphabetic order):
   Daniel Aravena         : Magnetic Properties
   Michael Atanasov       : Ab Initio Ligand Field Theory
   Ute Becker             : Parallelization
   Martin Brehm           : Molecular dynamics
   Dmytro Bykov           : SCF Hessian
   Vijay G. Chilkuri      : MRCI spin determinant printing
   Dipayan Datta          : RHF DLPNO-CCSD density
   Achintya Kumar Dutta   : EOM-CC, STEOM-CC
   Dmitry Ganyushin       : Spin-Orbit,Spin-Spin,Magnetic field MRCI
   Yang Guo               : DLPNO-NEVPT2, CIM, IAO-localization
   Andreas Hansen         : Spin unrestricted coupled pair/coupled cluster methods
   Lee Huntington         : MR-EOM, pCC
   Robert Izsak           : Overlap fitted RIJCOSX, COSX-SCS-MP3, EOM
   Christian Kollmar      : KDIIS, OOCD, Brueckner-CCSD(T), CCSD density
   Simone Kossmann        : Meta GGA functionals, TD-DFT gradient, OOMP2, MP2 Hessian
   Martin Krupicka        : AUTO-CI
   Dagmar Lenk            : GEPOL surface
   Dimitrios Liakos       : Extrapolation schemes; parallel MDCI
   Dimitrios Manganas     : ROCIS; embedding schemes
   Dimitrios Pantazis     : SARC Basis sets
   Taras Petrenko         : DFT Hessian,TD-DFT gradient, ASA, ECA, R-Raman, ABS, FL, XAS/XES, NRVS
   Peter Pinski           : DLPNO-MP2
   Christoph Reimann      : Effective Core Potentials
   Marius Retegan         : Local ZFS, SOC
   Christoph Riplinger    : Optimizer, TS searches, QM/MM, DLPNO-CCSD(T), (RO)-DLPNO pert. Triples
   Tobias Risthaus        : Range-separated hybrids, TD-DFT gradient, RPA, STAB
   Michael Roemelt        : Restricted open shell CIS
   Masaaki Saitow         : Open-shell DLPNO
   Barbara Sandhoefer     : DKH picture change effects
   Kantharuban Sivalingam : CASSCF convergence, NEVPT2, FIC-MRCI
   Georgi Stoychev        : AutoAux
   Boris Wezisla          : Elementary symmetry handling
   Frank Wennmohs         : Technical directorship


 We gratefully acknowledge several colleagues who have allowed us to
 interface, adapt or use parts of their codes:
   Stefan Grimme, W. Hujo, H. Kruse,             : VdW corrections, initial TS optimization,
                  C. Bannwarth                     DFT functionals, gCP, sTDA/sTD-DF
   Ed Valeev                                     : LibInt (2-el integral package), F12 methods
   Garnet Chan, S. Sharma, J. Yang, R. Olivares  : DMRG
   Ulf Ekstrom                                   : XCFun DFT Library
   Mihaly Kallay                                 : mrcc  (arbitrary order and MRCC methods)
   Jiri Pittner, Ondrej Demel                    : Mk-CCSD
   Frank Weinhold                                : gennbo (NPA and NBO analysis)
   Christopher J. Cramer and Donald G. Truhlar   : smd solvation model


 Your calculation uses the libint2 library for the computation of 2-el integrals
 For citations please refer to: http://libint.valeyev.net

 This ORCA versions uses:
   CBLAS   interface :  Fast vector & matrix operations
   LAPACKE interface :  Fast linear algebra routines
   SCALAPACK package :  Parallel linear algebra routines


Your calculation utilizes the atom-pairwise dispersion correction
with the zero-damping scheme (D30)
Cite in your paper:
S.Grimme, J.Antony, S.Ehrlich and H.Krieg, J.Chem.Phys., 132, (2010), 154104 
   

XCFun DFT library Copyright 2009-2010 Ulf Ekstrom and contributors.
See http://admol.org/xcfun for more information. This is free soft-
ware; see the source code for copying conditions. There is ABSOLUTELY
NO WARRANTY; not even for MERCHANTABILITY or FITNESS FOR A PARTICULAR
PURPOSE. For details see the documentation. Scientific users of this 
library should cite U. Ekstrom, L. Visscher, R. Bast, A. J. Thorvald-
sen and K. Ruud; J.Chem.Theor.Comp. 2010, DOI: 10.1021/ct100117s
XCFun Version 0.99 
Your calculation utilizes the basis: 6-31G(d)
   H-He, Li-Ne : W. J. Hehre, R. Ditchfield and J.A. Pople, J. Chem. Phys. 56, 2257 (1972).
                 Note: He and Ne are unpublished basis sets taken from the Gaussian program.
                 Note: Li and B from J. D. Dill and J. A. Pople, J. Chem. Phys. 62, 2921 (1975).
   Na - Ar     : M. M. Francl, W. J. Pietro, W. J. Hehre, J. S. Binkley, M. S. Gordon, 
                 D. J. DeFrees and J. A. Pople, J. Chem. Phys. 77, 3654 (1982).
   K - Zn      : V. A. Rassolov, J. A. Pople, M. A. Ratner, and T. L. Windus, J. Chem. Phys. 109, 1223 (1998).

================================================================================
                                        WARNINGS
                       Please study these warnings very carefully!
================================================================================

Warning: TCutStore was < 0. Adjusted to Thresh (uncritical)

INFO   : the flag for use of LIBINT has been found!

================================================================================
                                       INPUT FILE
================================================================================
NAME = initial14.inp
|  1> ! WB97X-D3 6-31G(d) VerySlowConv
|  2> ! KDIIS NOSOSCF
|  3> %base "Scan_14"
|  4> 
|  5> %scf
|  6> maxiter 999
|  7> end
|  8> 
|  9> * xyz 0 1
| 10> C         -3.026911265723    2.624573947641   -0.000000000017
| 11> C         -1.497598971948    2.632666051094    0.000000000017
| 12> H         -4.070312518580    2.619055913303   -0.000000000011
| 13> H         -0.454197243749    2.638184087962    0.000000000011
| 14> **                         ****END OF INPUT****
================================================================================

                       ****************************
                       * Single Point Calculation *
                       ****************************

---------------------------------
CARTESIAN COORDINATES (ANGSTROEM)
---------------------------------
  C     -3.026911    2.624574   -0.000000
  C     -1.497599    2.632666    0.000000
  H     -4.070313    2.619056   -0.000000
  H     -0.454197    2.638184    0.000000

----------------------------
CARTESIAN COORDINATES (A.U.)
----------------------------
  NO LB      ZA    FRAG     MASS         X           Y           Z
   0 C     6.0000    0    12.011   -5.720033    4.959726   -0.000000
   1 C     6.0000    0    12.011   -2.830052    4.975018    0.000000
   2 H     1.0000    0     1.008   -7.691776    4.949298   -0.000000
   3 H     1.0000    0     1.008   -0.858308    4.985445    0.000000

--------------------------------
INTERNAL COORDINATES (ANGSTROEM)
--------------------------------
 C      0   0   0     0.000000000000     0.00000000     0.00000000
 C      1   0   0     1.529333702640     0.00000000     0.00000000
 H      1   2   0     1.043415843835   179.99983795     0.00000000
 H      2   1   3     1.043416319184   179.99983796   180.00000000

---------------------------
INTERNAL COORDINATES (A.U.)
---------------------------
 C      0   0   0     0.000000000000     0.00000000     0.00000000
 C      1   0   0     2.890021865365     0.00000000     0.00000000
 H      1   2   0     1.971770188643   179.99983795     0.00000000
 H      2   1   3     1.971771086922   179.99983796   180.00000000

---------------------
BASIS SET INFORMATION
---------------------
There are 2 groups of distinct atoms

 Group   1 Type C   : 10s4p1d contracted to 3s2p1d pattern {631/31/1}
 Group   2 Type H   : 4s contracted to 2s pattern {31}

Atom   0C    basis set group =>   1
Atom   1C    basis set group =>   1
Atom   2H    basis set group =>   2
Atom   3H    basis set group =>   2
------------------------------------------------------------------------------
                           ORCA GTO INTEGRAL CALCULATION
------------------------------------------------------------------------------

                         BASIS SET STATISTICS AND STARTUP INFO

 # of primitive gaussian shells          ...   38
 # of primitive gaussian functions       ...   62
 # of contracted shells                  ...   16
 # of contracted basis functions         ...   32
 Highest angular momentum                ...    2
 Maximum contraction depth               ...    6
 Integral package used                   ... LIBINT
 Integral threshhold            Thresh   ...  1.000e-10
 Primitive cut-off              TCut     ...  1.000e-11


------------------------------ INTEGRAL EVALUATION ----------------------------


 * One electron integrals 
 Pre-screening matrix                    ... done
 Shell pair data                         ... done (   0.000 sec)

-------------------------------------------------------------------------------
                                 ORCA SCF
-------------------------------------------------------------------------------

------------
SCF SETTINGS
------------
Hamiltonian:
 Density Functional     Method          .... DFT(GTOs)
 Exchange Functional    Exchange        .... WB97X-D3
 Correlation Functional Correlation     .... WB97X-D3
 Gradients option       PostSCFGGA      .... off
 Hybrid DFT is turned on
   Fraction HF Exchange ScalHFX         ....  0.195728
   Scaling of DF-GGA-X  ScalDFX         ....  0.000000
   Scaling of DF-GGA-C  ScalDFC         ....  1.000000
   Scaling of DF-LDA-C  ScalLDAC        ....  1.000000
   Perturbative correction              ....  0.000000
 Long-range corrected/Screened/Range-Separated Hybrid DFT is turned on
   Amount of maximum screened exact exchange              ....  0.804272
   Range separation parameter mu (erf(mu*r12)/r12)        ....  0.250000


General Settings:
 Integral files         IntName         .... Scan_14
 Hartree-Fock type      HFTyp           .... RHF
 Total Charge           Charge          ....    0
 Multiplicity           Mult            ....    1
 Number of Electrons    NEL             ....   14
 Basis Dimension        Dim             ....   32
 Nuclear Repulsion      ENuc            ....     21.1571156992 Eh

Convergence Acceleration:
 DIIS                   CNVDIIS         .... on
   Start iteration      DIISMaxIt       ....     0
   Startup error        DIISStart       ....  0.200000
   # of expansion vecs  DIISMaxEq       ....     5
   Bias factor          DIISBfac        ....   1.050
   Max. coefficient     DIISMaxC        ....  10.000
 Newton-Raphson         CNVNR           .... off
 SOSCF                  CNVSOSCF        .... off
 Level Shifting         CNVShift        .... off
 Zerner damping         CNVZerner       .... off
 Static damping         CNVDamp         .... off
 Fernandez-Rico         CNVRico         .... off

SCF Procedure:
 Maximum # iterations   MaxIter         ....   999
 SCF integral mode      SCFMode         .... Direct
   Integral package                     .... LIBINT
 Reset frequeny         DirectResetFreq ....    20
 Integral Threshold     Thresh          ....  1.000e-10 Eh
 Primitive CutOff       TCut            ....  1.000e-11 Eh

Convergence Tolerance:
 Convergence Check Mode ConvCheckMode   .... All-Criteria
 Convergence forced     ConvForced      .... 0
 Energy Change          TolE            ....  1.000e-06 Eh
 Max Density Change     TolMaxP         ....  1.000e-05
 RMS Density Change     TolRMSP         ....  1.000e-06
 DIIS Error             TolErr          ....  1.000e-06


Diagonalization of the overlap matrix:
Smallest eigenvalue                        ... 4.629e-03
Time for diagonalization                   ...    0.001 sec
Threshold for overlap eigenvalues          ... 1.000e-08
Number of eigenvalues below threshold      ... 0
Time for construction of square roots      ...    0.007 sec
Total time needed                          ...    0.008 sec

-------------------
DFT GRID GENERATION
-------------------

General Integration Accuracy     IntAcc      ...  4.340
Radial Grid Type                 RadialGrid  ... Gauss-Chebyshev
Angular Grid (max. acc.)         AngularGrid ... Lebedev-110
Angular grid pruning method      GridPruning ... 3 (G Style)
Weight generation scheme         WeightScheme... Becke
Basis function cutoff            BFCut       ...    1.0000e-10
Integration weight cutoff        WCut        ...    1.0000e-14
Grids for H and He will be reduced by one unit

# of grid points (after initial pruning)     ...   4900 (   0.0 sec)
# of grid points (after weights+screening)   ...   4824 (   0.0 sec)
nearest neighbour list constructed           ...    0.0 sec
Grid point re-assignment to atoms done       ...    0.0 sec
Grid point division into batches done        ...    0.0 sec
Reduced shell lists constructed in    0.0 sec

Total number of grid points                  ...     4824
Total number of batches                      ...       76
Average number of points per batch           ...       63
Average number of grid points per atom       ...     1206
Average number of shells per batch           ...    13.84 (86.53%)
Average number of basis functions per batch  ...    28.49 (89.04%)
Average number of large shells per batch     ...    12.49 (90.24%)
Average number of large basis fcns per batch ...    26.10 (91.61%)
Maximum spatial batch extension              ...  18.87, 30.13, 31.36 au
Average spatial batch extension              ...   4.08,  7.00,  7.51 au

Time for grid setup =    0.033 sec

------------------------------
INITIAL GUESS: MODEL POTENTIAL
------------------------------
Loading Hartree-Fock densities                     ... done
Calculating cut-offs                               ... done
Setting up the integral package                    ... done
Initializing the effective Hamiltonian             ... done
Starting the Coulomb interaction                   ... done (   0.0 sec)
Reading the grid                                   ... done
Mapping shells                                     ... done
Starting the XC term evaluation                    ... done (   0.0 sec)
  promolecular density results
     # of electrons  =     13.998990890
     EX              =    -10.632646571
     EC              =     -0.410110491
     EX+EC           =    -11.042757062
Transforming the Hamiltonian                       ... done (   0.0 sec)
Diagonalizing the Hamiltonian                      ... done (   0.0 sec)
Back transforming the eigenvectors                 ... done (   0.0 sec)
Now organizing SCF variables                       ... done
                      ------------------
                      INITIAL GUESS DONE (   0.2 sec)
                      ------------------
--------------
SCF ITERATIONS
--------------
ITER       Energy         Delta-E        Max-DP      RMS-DP      [F,P]   Gradient Norm
               ***  Starting incremental Fock matrix formation  ***
                             ****Resetting KDIIS****
                             ****Turning on KDIIS(Cayley)****
  0    -77.1487043371   0.000000000000 0.00714463  0.00085139  0.0505078   0.042952271
  1    -77.1529552280  -0.004250890904 0.00919979  0.00109312  0.0436720   0.037053876
  2    -77.1572681520  -0.004312924052 0.01551914  0.00178653  0.0351745   0.029836232
  3    -77.1623235601  -0.005055408035 0.02272976  0.00265971  0.0212222   0.018011487
  4    -77.1652122541  -0.002888694060 0.00045543  0.00003832  0.0002246   0.000175957
                          ***Energy convergence achieved***
  5    -77.1652126148  -0.000000360653 0.00005074  0.00000609  0.0000236   0.000018218

            ***Energy convergence in two consecutive cycles with***
                    ***'reasonable' density convergence***
                       *** signaling convergence ***

                    *** KDIIS BlockDiag ( 0.000 sec) ***

               *****************************************************
               *                     SUCCESS                       *
               *           SCF CONVERGED AFTER   6 CYCLES          *
               *****************************************************

Setting up the final grid:

General Integration Accuracy     IntAcc      ...  4.670
Radial Grid Type                 RadialGrid  ... Gauss-Chebyshev
Angular Grid (max. acc.)         AngularGrid ... Lebedev-302
Angular grid pruning method      GridPruning ... 3 (G Style)
Weight generation scheme         WeightScheme... Becke
Basis function cutoff            BFCut       ...    1.0000e-10
Integration weight cutoff        WCut        ...    1.0000e-14
Grids for H and He will be reduced by one unit

# of grid points (after initial pruning)     ...  19212 (   0.0 sec)
# of grid points (after weights+screening)   ...  18902 (   0.0 sec)
nearest neighbour list constructed           ...    0.0 sec
Grid point re-assignment to atoms done       ...    0.0 sec
Grid point division into batches done        ...    0.1 sec
Reduced shell lists constructed in    0.1 sec

Total number of grid points                  ...    18902
Total number of batches                      ...      296
Average number of points per batch           ...       63
Average number of grid points per atom       ...     4726
Average number of shells per batch           ...    12.60 (78.72%)
Average number of basis functions per batch  ...    25.93 (81.03%)
Average number of large shells per batch     ...    11.08 (88.00%)
Average number of large basis fcns per batch ...    23.03 (88.82%)
Maximum spatial batch extension              ...  18.86, 25.72, 25.71 au
Average spatial batch extension              ...   2.96,  4.29,  4.22 au

Final grid set up in    0.2 sec
Final integration                            ... done (   0.2 sec)
Change in XC energy                          ...    -0.000795806
Integrated number of electrons               ...    14.000000418
Previous integrated no of electrons          ...    13.995280483

----------------
TOTAL SCF ENERGY
----------------

Total Energy       :          -77.16600842 Eh           -2099.79384 eV

Components:
Nuclear Repulsion  :           21.15711570 Eh             575.71439 eV
Electronic Energy  :          -98.32312412 Eh           -2675.50823 eV
One Electron Energy:         -144.53720033 Eh           -3933.05717 eV
Two Electron Energy:           46.21407621 Eh            1257.54895 eV

Virial components:
Potential Energy   :         -153.11177987 Eh           -4166.38334 eV
Kinetic Energy     :           75.94577144 Eh            2066.58950 eV
Virial Ratio       :            2.01606721


DFT components:
N(Alpha)           :        7.000000209005 electrons
N(Beta)            :        7.000000209005 electrons
N(Total)           :       14.000000418009 electrons
E(XC)              :       -7.669292592498 Eh       

---------------
SCF CONVERGENCE
---------------

  Last Energy change         ...   -6.4165e-10  Tolerance :   1.0000e-06
  Last MAX-Density change    ...    1.4615e-05  Tolerance :   1.0000e-05
  Last RMS-Density change    ...    1.5316e-06  Tolerance :   1.0000e-06
  Last DIIS Error            ...    1.7343e-05  Tolerance :   1.0000e-06

             **** THE GBW FILE WAS UPDATED (Scan_14.gbw) ****
             **** DENSITY FILE WAS UPDATED (Scan_14.scfp.tmp) ****
             **** ENERGY FILE WAS UPDATED (Scan_14.en.tmp) ****
----------------
ORBITAL ENERGIES
----------------

  NO   OCC          E(Eh)            E(eV) 
   0   2.0000     -10.358426      -281.8671 
   1   2.0000     -10.358221      -281.8615 
   2   2.0000      -0.809069       -22.0159 
   3   2.0000      -0.709184       -19.2979 
   4   2.0000      -0.573612       -15.6088 
   5   2.0000      -0.335827        -9.1383 
   6   2.0000      -0.335827        -9.1383 
   7   0.0000       0.055902         1.5212 
   8   0.0000       0.055903         1.5212 
   9   0.0000       0.139394         3.7931 
  10   0.0000       0.251833         6.8527 
  11   0.0000       0.386720        10.5232 
  12   0.0000       0.618609        16.8332 
  13   0.0000       0.659729        17.9521 
  14   0.0000       0.659729        17.9521 
  15   0.0000       0.715979        19.4828 
  16   0.0000       0.715979        19.4828 
  17   0.0000       0.851000        23.1569 
  18   0.0000       0.971362        26.4321 
  19   0.0000       0.990889        26.9635 
  20   0.0000       1.041431        28.3388 
  21   0.0000       1.504305        40.9342 
  22   0.0000       1.504306        40.9342 
  23   0.0000       1.510124        41.0926 
  24   0.0000       1.721047        46.8321 
  25   0.0000       1.721497        46.8443 
  26   0.0000       1.894810        51.5604 
  27   0.0000       1.895273        51.5730 
  28   0.0000       2.239984        60.9531 
  29   0.0000       2.244837        61.0851 
  30   0.0000       2.244839        61.0852 
  31   0.0000       2.978050        81.0368 

                    ********************************
                    * MULLIKEN POPULATION ANALYSIS *
                    ********************************

-----------------------
MULLIKEN ATOMIC CHARGES
-----------------------
   0 C :   -0.260313
   1 C :   -0.260170
   2 H :    0.260245
   3 H :    0.260238
Sum of atomic charges:   -0.0000000

--------------------------------
MULLIKEN REDUCED ORBITAL CHARGES
--------------------------------
  0 C s       :     3.306582  s :     3.306582
      pz      :     0.998173  p :     2.940763
      px      :     0.944420
      py      :     0.998170
      dz2     :     0.002315  d :     0.012969
      dxz     :     0.001854
      dyz     :     0.000000
      dx2y2   :     0.006945
      dxy     :     0.001854
  1 C s       :     3.306566  s :     3.306566
      pz      :     0.998120  p :     2.940635
      px      :     0.944399
      py      :     0.998117
      dz2     :     0.002315  d :     0.012969
      dxz     :     0.001854
      dyz     :     0.000000
      dx2y2   :     0.006945
      dxy     :     0.001854
  2 H s       :     0.739755  s :     0.739755
  3 H s       :     0.739762  s :     0.739762


                     *******************************
                     * LOEWDIN POPULATION ANALYSIS *
                     *******************************

----------------------
LOEWDIN ATOMIC CHARGES
----------------------
   0 C :   -0.188328
   1 C :   -0.188204
   2 H :    0.188268
   3 H :    0.188264

-------------------------------
LOEWDIN REDUCED ORBITAL CHARGES
-------------------------------
  0 C s       :     3.100477  s :     3.100477
      pz      :     0.996055  p :     3.066108
      px      :     1.073996
      py      :     0.996057
      dz2     :     0.003451  d :     0.021743
      dxz     :     0.003970
      dyz     :     0.000000
      dx2y2   :     0.010351
      dxy     :     0.003971
  1 C s       :     3.100466  s :     3.100466
      pz      :     0.996004  p :     3.065993
      px      :     1.073984
      py      :     0.996006
      dz2     :     0.003451  d :     0.021744
      dxz     :     0.003971
      dyz     :     0.000000
      dx2y2   :     0.010352
      dxy     :     0.003971
  2 H s       :     0.811732  s :     0.811732
  3 H s       :     0.811736  s :     0.811736


                      *****************************
                      * MAYER POPULATION ANALYSIS *
                      *****************************

  NA   - Mulliken gross atomic population
  ZA   - Total nuclear charge
  QA   - Mulliken gross atomic charge
  VA   - Mayer's total valence
  BVA  - Mayer's bonded valence
  FA   - Mayer's free valence

  ATOM       NA         ZA         QA         VA         BVA        FA
  0 C      6.2603     6.0000    -0.2603     3.8805     3.8805     0.0000
  1 C      6.2602     6.0000    -0.2602     3.8805     3.8805    -0.0000
  2 H      0.7398     1.0000     0.2602     0.9128     0.9128     0.0000
  3 H      0.7398     1.0000     0.2602     0.9128     0.9128     0.0000

  Mayer bond orders larger than 0.1
B(  0-C ,  1-C ) :   2.9714 B(  0-C ,  2-H ) :   0.8886 B(  1-C ,  3-H ) :   0.8886 


-------
TIMINGS
-------

Total SCF time: 0 days 0 hours 0 min 2 sec 

Total time                  ....       2.667 sec
Sum of individual times     ....       2.555 sec  ( 95.8%)

Fock matrix formation       ....       2.228 sec  ( 83.5%)
  XC integration            ....       0.550 sec  ( 24.7% of F)
    Basis function eval.    ....       0.182 sec  ( 33.1% of XC)
    Density eval.           ....       0.026 sec  (  4.7% of XC)
    XC-Functional eval.     ....       0.156 sec  ( 28.4% of XC)
    XC-Potential eval.      ....       0.025 sec  (  4.6% of XC)
Diagonalization             ....       0.004 sec  (  0.2%)
Density matrix formation    ....       0.000 sec  (  0.0%)
Population analysis         ....       0.012 sec  (  0.4%)
Initial guess               ....       0.124 sec  (  4.6%)
Orbital Transformation      ....       0.000 sec  (  0.0%)
Orbital Orthonormalization  ....       0.000 sec  (  0.0%)
DIIS solution               ....       0.000 sec  (  0.0%)
Grid generation             ....       0.188 sec  (  7.0%)


-------------------------------------------------------------------------------
                          DFT DISPERSION CORRECTION                            
                                                                               
                              DFTD3 V3.1  Rev 1                                
                              USING zero damping                               
-------------------------------------------------------------------------------
The omegaB97X-D3 functional is recognized. Fit by Chai et al.
Active option DFTDOPT                   ...         3   

molecular C6(AA) [au] = 206.766207 


            DFT-D V3
 parameters
 s6 scaling factor         :     1.0000 
 rs6 scaling factor        :     1.2810 
 s8 scaling factor         :     1.0000 
 rs8 scaling factor        :     1.0940 
 Damping factor alpha6     :    14.0000 
 Damping factor alpha8     :    16.0000 
 ad hoc parameters k1-k3   :    16.0000     1.3333    -4.0000 

 Edisp/kcal,au: -0.088223258355  -0.000140592696 
 E6   /kcal   :  -0.025703921 
 E8   /kcal   :  -0.062519337 
 % E8         :  70.864915056 

-------------------------   ----------------
Dispersion correction           -0.000140593
-------------------------   ----------------


-------------------------   --------------------
FINAL SINGLE POINT ENERGY       -77.166149014098
-------------------------   --------------------


                            ***************************************
                            *     ORCA property calculations      *
                            ***************************************

                                    ---------------------
                                    Active property flags
                                    ---------------------
   (+) Dipole Moment


------------------------------------------------------------------------------
                       ORCA ELECTRIC PROPERTIES CALCULATION
------------------------------------------------------------------------------

Dipole Moment Calculation                       ... on
Quadrupole Moment Calculation                   ... off
Polarizability Calculation                      ... off
GBWName                                         ... Scan_14.gbw
Electron density file                           ... Scan_14.scfp.tmp

-------------
DIPOLE MOMENT
-------------
                                X             Y             Z
Electronic contribution:      0.00017       0.00000      -0.00000
Nuclear contribution   :      0.00000       0.00000       0.00000
                        -----------------------------------------
Total Dipole Moment    :      0.00017       0.00000      -0.00000
                        -----------------------------------------
Magnitude (a.u.)       :      0.00017
Magnitude (Debye)      :      0.00044


Timings for individual modules:

Sum of individual times         ...        2.994 sec (=   0.050 min)
GTO integral calculation        ...        0.304 sec (=   0.005 min)  10.1 %
SCF iterations                  ...        2.690 sec (=   0.045 min)  89.9 %
                             ****ORCA TERMINATED NORMALLY****
TOTAL RUN TIME: 0 days 0 hours 0 minutes 3 seconds 341 msec
