
                                 *****************
                                 * O   R   C   A *
                                 *****************

           --- An Ab Initio, DFT and Semiempirical electronic structure package ---

                  #######################################################
                  #                        -***-                        #
                  #  Department of molecular theory and spectroscopy    #
                  #              Directorship: Frank Neese              #
                  # Max Planck Institute for Chemical Energy Conversion #
                  #                  D-45470 Muelheim/Ruhr              #
                  #                       Germany                       #
                  #                                                     #
                  #                  All rights reserved                #
                  #                        -***-                        #
                  #######################################################


                         Program Version 4.0.0.2 - RELEASE -


 With contributions from (in alphabetic order):
   Daniel Aravena         : Magnetic Properties
   Michael Atanasov       : Ab Initio Ligand Field Theory
   Ute Becker             : Parallelization
   Martin Brehm           : Molecular dynamics
   Dmytro Bykov           : SCF Hessian
   Vijay G. Chilkuri      : MRCI spin determinant printing
   Dipayan Datta          : RHF DLPNO-CCSD density
   Achintya Kumar Dutta   : EOM-CC, STEOM-CC
   Dmitry Ganyushin       : Spin-Orbit,Spin-Spin,Magnetic field MRCI
   Yang Guo               : DLPNO-NEVPT2, CIM, IAO-localization
   Andreas Hansen         : Spin unrestricted coupled pair/coupled cluster methods
   Lee Huntington         : MR-EOM, pCC
   Robert Izsak           : Overlap fitted RIJCOSX, COSX-SCS-MP3, EOM
   Christian Kollmar      : KDIIS, OOCD, Brueckner-CCSD(T), CCSD density
   Simone Kossmann        : Meta GGA functionals, TD-DFT gradient, OOMP2, MP2 Hessian
   Martin Krupicka        : AUTO-CI
   Dagmar Lenk            : GEPOL surface
   Dimitrios Liakos       : Extrapolation schemes; parallel MDCI
   Dimitrios Manganas     : ROCIS; embedding schemes
   Dimitrios Pantazis     : SARC Basis sets
   Taras Petrenko         : DFT Hessian,TD-DFT gradient, ASA, ECA, R-Raman, ABS, FL, XAS/XES, NRVS
   Peter Pinski           : DLPNO-MP2
   Christoph Reimann      : Effective Core Potentials
   Marius Retegan         : Local ZFS, SOC
   Christoph Riplinger    : Optimizer, TS searches, QM/MM, DLPNO-CCSD(T), (RO)-DLPNO pert. Triples
   Tobias Risthaus        : Range-separated hybrids, TD-DFT gradient, RPA, STAB
   Michael Roemelt        : Restricted open shell CIS
   Masaaki Saitow         : Open-shell DLPNO
   Barbara Sandhoefer     : DKH picture change effects
   Kantharuban Sivalingam : CASSCF convergence, NEVPT2, FIC-MRCI
   Georgi Stoychev        : AutoAux
   Boris Wezisla          : Elementary symmetry handling
   Frank Wennmohs         : Technical directorship


 We gratefully acknowledge several colleagues who have allowed us to
 interface, adapt or use parts of their codes:
   Stefan Grimme, W. Hujo, H. Kruse,             : VdW corrections, initial TS optimization,
                  C. Bannwarth                     DFT functionals, gCP, sTDA/sTD-DF
   Ed Valeev                                     : LibInt (2-el integral package), F12 methods
   Garnet Chan, S. Sharma, J. Yang, R. Olivares  : DMRG
   Ulf Ekstrom                                   : XCFun DFT Library
   Mihaly Kallay                                 : mrcc  (arbitrary order and MRCC methods)
   Jiri Pittner, Ondrej Demel                    : Mk-CCSD
   Frank Weinhold                                : gennbo (NPA and NBO analysis)
   Christopher J. Cramer and Donald G. Truhlar   : smd solvation model


 Your calculation uses the libint2 library for the computation of 2-el integrals
 For citations please refer to: http://libint.valeyev.net

 This ORCA versions uses:
   CBLAS   interface :  Fast vector & matrix operations
   LAPACKE interface :  Fast linear algebra routines
   SCALAPACK package :  Parallel linear algebra routines


Your calculation utilizes the atom-pairwise dispersion correction
with the zero-damping scheme (D30)
Cite in your paper:
S.Grimme, J.Antony, S.Ehrlich and H.Krieg, J.Chem.Phys., 132, (2010), 154104 
   

XCFun DFT library Copyright 2009-2010 Ulf Ekstrom and contributors.
See http://admol.org/xcfun for more information. This is free soft-
ware; see the source code for copying conditions. There is ABSOLUTELY
NO WARRANTY; not even for MERCHANTABILITY or FITNESS FOR A PARTICULAR
PURPOSE. For details see the documentation. Scientific users of this 
library should cite U. Ekstrom, L. Visscher, R. Bast, A. J. Thorvald-
sen and K. Ruud; J.Chem.Theor.Comp. 2010, DOI: 10.1021/ct100117s
XCFun Version 0.99 
Your calculation utilizes the basis: 6-31G(d)
   H-He, Li-Ne : W. J. Hehre, R. Ditchfield and J.A. Pople, J. Chem. Phys. 56, 2257 (1972).
                 Note: He and Ne are unpublished basis sets taken from the Gaussian program.
                 Note: Li and B from J. D. Dill and J. A. Pople, J. Chem. Phys. 62, 2921 (1975).
   Na - Ar     : M. M. Francl, W. J. Pietro, W. J. Hehre, J. S. Binkley, M. S. Gordon, 
                 D. J. DeFrees and J. A. Pople, J. Chem. Phys. 77, 3654 (1982).
   K - Zn      : V. A. Rassolov, J. A. Pople, M. A. Ratner, and T. L. Windus, J. Chem. Phys. 109, 1223 (1998).

================================================================================
                                        WARNINGS
                       Please study these warnings very carefully!
================================================================================

Warning: TCutStore was < 0. Adjusted to Thresh (uncritical)

INFO   : the flag for use of LIBINT has been found!

================================================================================
                                       INPUT FILE
================================================================================
NAME = initial15.inp
|  1> ! WB97X-D3 6-31G(d) VerySlowConv
|  2> ! KDIIS NOSOSCF
|  3> %base "Scan_15"
|  4> 
|  5> %scf
|  6> maxiter 999
|  7> end
|  8> 
|  9> * xyz 0 1
| 10> C         -3.083502347375    2.624272908359   -0.000000000035
| 11> C         -1.441007428062    2.632967092770    0.000000000035
| 12> H         -4.126067964341    2.618763274096   -0.000000000013
| 13> H         -0.398442260223    2.638476724775    0.000000000013
| 14> **                         ****END OF INPUT****
================================================================================

                       ****************************
                       * Single Point Calculation *
                       ****************************

---------------------------------
CARTESIAN COORDINATES (ANGSTROEM)
---------------------------------
  C     -3.083502    2.624273   -0.000000
  C     -1.441007    2.632967    0.000000
  H     -4.126068    2.618763   -0.000000
  H     -0.398442    2.638477    0.000000

----------------------------
CARTESIAN COORDINATES (A.U.)
----------------------------
  NO LB      ZA    FRAG     MASS         X           Y           Z
   0 C     6.0000    0    12.011   -5.826975    4.959157   -0.000000
   1 C     6.0000    0    12.011   -2.723109    4.975587    0.000000
   2 H     1.0000    0     1.008   -7.797138    4.948745   -0.000000
   3 H     1.0000    0     1.008   -0.752947    4.985998    0.000000

--------------------------------
INTERNAL COORDINATES (ANGSTROEM)
--------------------------------
 C      0   0   0     0.000000000000     0.00000000     0.00000000
 C      1   0   0     1.642517929525     0.00000000     0.00000000
 H      1   2   0     1.042580175214   179.99950778     0.00000000
 H      2   1   3     1.042579726081   179.99950779   180.00000000

---------------------------
INTERNAL COORDINATES (A.U.)
---------------------------
 C      0   0   0     0.000000000000     0.00000000     0.00000000
 C      1   0   0     3.103909056858     0.00000000     0.00000000
 H      1   2   0     1.970191003810   179.99950778     0.00000000
 H      2   1   3     1.970190155073   179.99950779   180.00000000

---------------------
BASIS SET INFORMATION
---------------------
There are 2 groups of distinct atoms

 Group   1 Type C   : 10s4p1d contracted to 3s2p1d pattern {631/31/1}
 Group   2 Type H   : 4s contracted to 2s pattern {31}

Atom   0C    basis set group =>   1
Atom   1C    basis set group =>   1
Atom   2H    basis set group =>   2
Atom   3H    basis set group =>   2
------------------------------------------------------------------------------
                           ORCA GTO INTEGRAL CALCULATION
------------------------------------------------------------------------------

                         BASIS SET STATISTICS AND STARTUP INFO

 # of primitive gaussian shells          ...   38
 # of primitive gaussian functions       ...   62
 # of contracted shells                  ...   16
 # of contracted basis functions         ...   32
 Highest angular momentum                ...    2
 Maximum contraction depth               ...    6
 Integral package used                   ... LIBINT
 Integral threshhold            Thresh   ...  1.000e-10
 Primitive cut-off              TCut     ...  1.000e-11


------------------------------ INTEGRAL EVALUATION ----------------------------


 * One electron integrals 
 Pre-screening matrix                    ... done
 Shell pair data                         ... done (   0.000 sec)

-------------------------------------------------------------------------------
                                 ORCA SCF
-------------------------------------------------------------------------------

------------
SCF SETTINGS
------------
Hamiltonian:
 Density Functional     Method          .... DFT(GTOs)
 Exchange Functional    Exchange        .... WB97X-D3
 Correlation Functional Correlation     .... WB97X-D3
 Gradients option       PostSCFGGA      .... off
 Hybrid DFT is turned on
   Fraction HF Exchange ScalHFX         ....  0.195728
   Scaling of DF-GGA-X  ScalDFX         ....  0.000000
   Scaling of DF-GGA-C  ScalDFC         ....  1.000000
   Scaling of DF-LDA-C  ScalLDAC        ....  1.000000
   Perturbative correction              ....  0.000000
 Long-range corrected/Screened/Range-Separated Hybrid DFT is turned on
   Amount of maximum screened exact exchange              ....  0.804272
   Range separation parameter mu (erf(mu*r12)/r12)        ....  0.250000


General Settings:
 Integral files         IntName         .... Scan_15
 Hartree-Fock type      HFTyp           .... RHF
 Total Charge           Charge          ....    0
 Multiplicity           Mult            ....    1
 Number of Electrons    NEL             ....   14
 Basis Dimension        Dim             ....   32
 Nuclear Repulsion      ENuc            ....     20.1959698233 Eh

Convergence Acceleration:
 DIIS                   CNVDIIS         .... on
   Start iteration      DIISMaxIt       ....     0
   Startup error        DIISStart       ....  0.200000
   # of expansion vecs  DIISMaxEq       ....     5
   Bias factor          DIISBfac        ....   1.050
   Max. coefficient     DIISMaxC        ....  10.000
 Newton-Raphson         CNVNR           .... off
 SOSCF                  CNVSOSCF        .... off
 Level Shifting         CNVShift        .... off
 Zerner damping         CNVZerner       .... off
 Static damping         CNVDamp         .... off
 Fernandez-Rico         CNVRico         .... off

SCF Procedure:
 Maximum # iterations   MaxIter         ....   999
 SCF integral mode      SCFMode         .... Direct
   Integral package                     .... LIBINT
 Reset frequeny         DirectResetFreq ....    20
 Integral Threshold     Thresh          ....  1.000e-10 Eh
 Primitive CutOff       TCut            ....  1.000e-11 Eh

Convergence Tolerance:
 Convergence Check Mode ConvCheckMode   .... All-Criteria
 Convergence forced     ConvForced      .... 0
 Energy Change          TolE            ....  1.000e-06 Eh
 Max Density Change     TolMaxP         ....  1.000e-05
 RMS Density Change     TolRMSP         ....  1.000e-06
 DIIS Error             TolErr          ....  1.000e-06


Diagonalization of the overlap matrix:
Smallest eigenvalue                        ... 6.935e-03
Time for diagonalization                   ...    0.001 sec
Threshold for overlap eigenvalues          ... 1.000e-08
Number of eigenvalues below threshold      ... 0
Time for construction of square roots      ...    0.005 sec
Total time needed                          ...    0.006 sec

-------------------
DFT GRID GENERATION
-------------------

General Integration Accuracy     IntAcc      ...  4.340
Radial Grid Type                 RadialGrid  ... Gauss-Chebyshev
Angular Grid (max. acc.)         AngularGrid ... Lebedev-110
Angular grid pruning method      GridPruning ... 3 (G Style)
Weight generation scheme         WeightScheme... Becke
Basis function cutoff            BFCut       ...    1.0000e-10
Integration weight cutoff        WCut        ...    1.0000e-14
Grids for H and He will be reduced by one unit

# of grid points (after initial pruning)     ...   4900 (   0.0 sec)
# of grid points (after weights+screening)   ...   4824 (   0.0 sec)
nearest neighbour list constructed           ...    0.0 sec
Grid point re-assignment to atoms done       ...    0.0 sec
Grid point division into batches done        ...    0.0 sec
Reduced shell lists constructed in    0.0 sec

Total number of grid points                  ...     4824
Total number of batches                      ...       78
Average number of points per batch           ...       61
Average number of grid points per atom       ...     1206
Average number of shells per batch           ...    13.73 (85.84%)
Average number of basis functions per batch  ...    28.37 (88.65%)
Average number of large shells per batch     ...    12.38 (90.14%)
Average number of large basis fcns per batch ...    25.80 (90.94%)
Maximum spatial batch extension              ...  19.09, 25.62, 31.36 au
Average spatial batch extension              ...   4.01,  6.58,  6.76 au

Time for grid setup =    0.033 sec

------------------------------
INITIAL GUESS: MODEL POTENTIAL
------------------------------
Loading Hartree-Fock densities                     ... done
Calculating cut-offs                               ... done
Setting up the integral package                    ... done
Initializing the effective Hamiltonian             ... done
Starting the Coulomb interaction                   ... done (   0.0 sec)
Reading the grid                                   ... done
Mapping shells                                     ... done
Starting the XC term evaluation                    ... done (   0.0 sec)
  promolecular density results
     # of electrons  =     13.998603349
     EX              =    -10.610146591
     EC              =     -0.406263119
     EX+EC           =    -11.016409710
Transforming the Hamiltonian                       ... done (   0.0 sec)
Diagonalizing the Hamiltonian                      ... done (   0.0 sec)
Back transforming the eigenvectors                 ... done (   0.0 sec)
Now organizing SCF variables                       ... done
                      ------------------
                      INITIAL GUESS DONE (   0.2 sec)
                      ------------------
--------------
SCF ITERATIONS
--------------
ITER       Energy         Delta-E        Max-DP      RMS-DP      [F,P]   Gradient Norm
               ***  Starting incremental Fock matrix formation  ***
                             ****Resetting KDIIS****
                             ****Turning on KDIIS(Cayley)****
  0    -77.0862713570   0.000000000000 0.00585722  0.00069467  0.0415862   0.035399762
  1    -77.0890922398  -0.002820882828 0.00753131  0.00091158  0.0360690   0.030728343
  2    -77.0920640754  -0.002971835625 0.01292349  0.00149933  0.0290368   0.024728595
  3    -77.0955543170  -0.003490241584 0.01908430  0.00223803  0.0174941   0.014902884
  4    -77.0975419512  -0.001987634205 0.00025954  0.00002043  0.0001503   0.000116833
                          ***Energy convergence achieved***
  5    -77.0975421053  -0.000000154057 0.00006800  0.00000708  0.0000413   0.000029518

            ***Energy convergence in two consecutive cycles with***
                    ***'reasonable' density convergence***
                       *** signaling convergence ***

                    *** KDIIS BlockDiag ( 0.000 sec) ***

               *****************************************************
               *                     SUCCESS                       *
               *           SCF CONVERGED AFTER   6 CYCLES          *
               *****************************************************

Setting up the final grid:

General Integration Accuracy     IntAcc      ...  4.670
Radial Grid Type                 RadialGrid  ... Gauss-Chebyshev
Angular Grid (max. acc.)         AngularGrid ... Lebedev-302
Angular grid pruning method      GridPruning ... 3 (G Style)
Weight generation scheme         WeightScheme... Becke
Basis function cutoff            BFCut       ...    1.0000e-10
Integration weight cutoff        WCut        ...    1.0000e-14
Grids for H and He will be reduced by one unit

# of grid points (after initial pruning)     ...  19212 (   0.0 sec)
# of grid points (after weights+screening)   ...  18906 (   0.0 sec)
nearest neighbour list constructed           ...    0.0 sec
Grid point re-assignment to atoms done       ...    0.0 sec
Grid point division into batches done        ...    0.1 sec
Reduced shell lists constructed in    0.1 sec

Total number of grid points                  ...    18906
Total number of batches                      ...      298
Average number of points per batch           ...       63
Average number of grid points per atom       ...     4726
Average number of shells per batch           ...    12.49 (78.09%)
Average number of basis functions per batch  ...    25.76 (80.50%)
Average number of large shells per batch     ...    10.97 (87.82%)
Average number of large basis fcns per batch ...    22.70 (88.12%)
Maximum spatial batch extension              ...  19.20, 25.73, 25.71 au
Average spatial batch extension              ...   2.99,  4.28,  4.26 au

Final grid set up in    0.2 sec
Final integration                            ... done (   0.2 sec)
Change in XC energy                          ...    -0.000950464
Integrated number of electrons               ...    14.000000722
Previous integrated no of electrons          ...    13.994922771

----------------
TOTAL SCF ENERGY
----------------

Total Energy       :          -77.09849257 Eh           -2097.95664 eV

Components:
Nuclear Repulsion  :           20.19596982 Eh             549.56028 eV
Electronic Energy  :          -97.29446240 Eh           -2647.51692 eV
One Electron Energy:         -142.50590916 Eh           -3877.78293 eV
Two Electron Energy:           45.21144676 Eh            1230.26601 eV

Virial components:
Potential Energy   :         -152.91534897 Eh           -4161.03819 eV
Kinetic Energy     :           75.81685640 Eh            2063.08155 eV
Virial Ratio       :            2.01690437


DFT components:
N(Alpha)           :        7.000000361092 electrons
N(Beta)            :        7.000000361092 electrons
N(Total)           :       14.000000722184 electrons
E(XC)              :       -7.629196566671 Eh       

---------------
SCF CONVERGENCE
---------------

  Last Energy change         ...   -3.8180e-09  Tolerance :   1.0000e-06
  Last MAX-Density change    ...    3.1203e-05  Tolerance :   1.0000e-05
  Last RMS-Density change    ...    2.6185e-06  Tolerance :   1.0000e-06
  Last DIIS Error            ...    4.0640e-05  Tolerance :   1.0000e-06

             **** THE GBW FILE WAS UPDATED (Scan_15.gbw) ****
             **** DENSITY FILE WAS UPDATED (Scan_15.scfp.tmp) ****
             **** ENERGY FILE WAS UPDATED (Scan_15.en.tmp) ****
----------------
ORBITAL ENERGIES
----------------

  NO   OCC          E(Eh)            E(eV) 
   0   2.0000     -10.376137      -282.3490 
   1   2.0000     -10.375944      -282.3438 
   2   2.0000      -0.798031       -21.7155 
   3   2.0000      -0.718046       -19.5390 
   4   2.0000      -0.560627       -15.2554 
   5   2.0000      -0.325430        -8.8554 
   6   2.0000      -0.325430        -8.8554 
   7   0.0000       0.033626         0.9150 
   8   0.0000       0.033627         0.9150 
   9   0.0000       0.103246         2.8095 
  10   0.0000       0.250273         6.8103 
  11   0.0000       0.351847         9.5742 
  12   0.0000       0.639949        17.4139 
  13   0.0000       0.657598        17.8942 
  14   0.0000       0.657598        17.8942 
  15   0.0000       0.708627        19.2827 
  16   0.0000       0.708627        19.2827 
  17   0.0000       0.839325        22.8392 
  18   0.0000       0.947267        25.7764 
  19   0.0000       0.983486        26.7620 
  20   0.0000       1.007197        27.4072 
  21   0.0000       1.469302        39.9817 
  22   0.0000       1.523289        41.4508 
  23   0.0000       1.523290        41.4508 
  24   0.0000       1.740863        47.3713 
  25   0.0000       1.741571        47.3906 
  26   0.0000       1.862056        50.6691 
  27   0.0000       1.862748        50.6879 
  28   0.0000       2.132795        58.0363 
  29   0.0000       2.139982        58.2319 
  30   0.0000       2.139984        58.2319 
  31   0.0000       2.901344        78.9496 

                    ********************************
                    * MULLIKEN POPULATION ANALYSIS *
                    ********************************

-----------------------
MULLIKEN ATOMIC CHARGES
-----------------------
   0 C :   -0.268664
   1 C :   -0.268993
   2 H :    0.268822
   3 H :    0.268836
Sum of atomic charges:   -0.0000000

--------------------------------
MULLIKEN REDUCED ORBITAL CHARGES
--------------------------------
  0 C s       :     3.332894  s :     3.332894
      pz      :     0.998897  p :     2.924827
      px      :     0.927036
      py      :     0.998894
      dz2     :     0.002215  d :     0.010944
      dxz     :     0.001042
      dyz     :     0.000000
      dx2y2   :     0.006645
      dxy     :     0.001042
  1 C s       :     3.332928  s :     3.332928
      pz      :     0.999020  p :     2.925122
      px      :     0.927084
      py      :     0.999017
      dz2     :     0.002215  d :     0.010943
      dxz     :     0.001041
      dyz     :     0.000000
      dx2y2   :     0.006645
      dxy     :     0.001042
  2 H s       :     0.731178  s :     0.731178
  3 H s       :     0.731164  s :     0.731164


                     *******************************
                     * LOEWDIN POPULATION ANALYSIS *
                     *******************************

----------------------
LOEWDIN ATOMIC CHARGES
----------------------
   0 C :   -0.193007
   1 C :   -0.193302
   2 H :    0.193151
   3 H :    0.193158

-------------------------------
LOEWDIN REDUCED ORBITAL CHARGES
-------------------------------
  0 C s       :     3.133758  s :     3.133758
      pz      :     0.997484  p :     3.042432
      px      :     1.047464
      py      :     0.997485
      dz2     :     0.002976  d :     0.016817
      dxz     :     0.002456
      dyz     :     0.000000
      dx2y2   :     0.008928
      dxy     :     0.002457
  1 C s       :     3.133783  s :     3.133783
      pz      :     0.997604  p :     3.042704
      px      :     1.047494
      py      :     0.997605
      dz2     :     0.002976  d :     0.016815
      dxz     :     0.002456
      dyz     :     0.000000
      dx2y2   :     0.008927
      dxy     :     0.002456
  2 H s       :     0.806849  s :     0.806849
  3 H s       :     0.806842  s :     0.806842


                      *****************************
                      * MAYER POPULATION ANALYSIS *
                      *****************************

  NA   - Mulliken gross atomic population
  ZA   - Total nuclear charge
  QA   - Mulliken gross atomic charge
  VA   - Mayer's total valence
  BVA  - Mayer's bonded valence
  FA   - Mayer's free valence

  ATOM       NA         ZA         QA         VA         BVA        FA
  0 C      6.2687     6.0000    -0.2687     3.8609     3.8609    -0.0000
  1 C      6.2690     6.0000    -0.2690     3.8609     3.8609     0.0000
  2 H      0.7312     1.0000     0.2688     0.9094     0.9094    -0.0000
  3 H      0.7312     1.0000     0.2688     0.9094     0.9094     0.0000

  Mayer bond orders larger than 0.1
B(  0-C ,  1-C ) :   2.9557 B(  0-C ,  2-H ) :   0.8786 B(  1-C ,  3-H ) :   0.8786 


-------
TIMINGS
-------

Total SCF time: 0 days 0 hours 0 min 2 sec 

Total time                  ....       2.785 sec
Sum of individual times     ....       2.677 sec  ( 96.1%)

Fock matrix formation       ....       2.345 sec  ( 84.2%)
  XC integration            ....       0.552 sec  ( 23.6% of F)
    Basis function eval.    ....       0.188 sec  ( 34.1% of XC)
    Density eval.           ....       0.027 sec  (  4.9% of XC)
    XC-Functional eval.     ....       0.157 sec  ( 28.5% of XC)
    XC-Potential eval.      ....       0.024 sec  (  4.3% of XC)
Diagonalization             ....       0.004 sec  (  0.2%)
Density matrix formation    ....       0.000 sec  (  0.0%)
Population analysis         ....       0.012 sec  (  0.4%)
Initial guess               ....       0.125 sec  (  4.5%)
Orbital Transformation      ....       0.000 sec  (  0.0%)
Orbital Orthonormalization  ....       0.000 sec  (  0.0%)
DIIS solution               ....       0.000 sec  (  0.0%)
Grid generation             ....       0.191 sec  (  6.9%)


-------------------------------------------------------------------------------
                          DFT DISPERSION CORRECTION                            
                                                                               
                              DFTD3 V3.1  Rev 1                                
                              USING zero damping                               
-------------------------------------------------------------------------------
The omegaB97X-D3 functional is recognized. Fit by Chai et al.
Active option DFTDOPT                   ...         3   

molecular C6(AA) [au] = 207.049137 


            DFT-D V3
 parameters
 s6 scaling factor         :     1.0000 
 rs6 scaling factor        :     1.2810 
 s8 scaling factor         :     1.0000 
 rs8 scaling factor        :     1.0940 
 Damping factor alpha6     :    14.0000 
 Damping factor alpha8     :    16.0000 
 ad hoc parameters k1-k3   :    16.0000     1.3333    -4.0000 

 Edisp/kcal,au: -0.106567183242  -0.000169825598 
 E6   /kcal   :  -0.027384569 
 E8   /kcal   :  -0.079182614 
 % E8         :  74.302999854 

-------------------------   ----------------
Dispersion correction           -0.000169826
-------------------------   ----------------


-------------------------   --------------------
FINAL SINGLE POINT ENERGY       -77.098662398546
-------------------------   --------------------


                            ***************************************
                            *     ORCA property calculations      *
                            ***************************************

                                    ---------------------
                                    Active property flags
                                    ---------------------
   (+) Dipole Moment


------------------------------------------------------------------------------
                       ORCA ELECTRIC PROPERTIES CALCULATION
------------------------------------------------------------------------------

Dipole Moment Calculation                       ... on
Quadrupole Moment Calculation                   ... off
Polarizability Calculation                      ... off
GBWName                                         ... Scan_15.gbw
Electron density file                           ... Scan_15.scfp.tmp

-------------
DIPOLE MOMENT
-------------
                                X             Y             Z
Electronic contribution:     -0.00044      -0.00000      -0.00000
Nuclear contribution   :     -0.00000      -0.00000       0.00000
                        -----------------------------------------
Total Dipole Moment    :     -0.00044      -0.00000      -0.00000
                        -----------------------------------------
Magnitude (a.u.)       :      0.00044
Magnitude (Debye)      :      0.00112


Timings for individual modules:

Sum of individual times         ...        3.117 sec (=   0.052 min)
GTO integral calculation        ...        0.308 sec (=   0.005 min)   9.9 %
SCF iterations                  ...        2.809 sec (=   0.047 min)  90.1 %
                             ****ORCA TERMINATED NORMALLY****
TOTAL RUN TIME: 0 days 0 hours 0 minutes 3 seconds 459 msec
