
                                 *****************
                                 * O   R   C   A *
                                 *****************

           --- An Ab Initio, DFT and Semiempirical electronic structure package ---

                  #######################################################
                  #                        -***-                        #
                  #  Department of molecular theory and spectroscopy    #
                  #              Directorship: Frank Neese              #
                  # Max Planck Institute for Chemical Energy Conversion #
                  #                  D-45470 Muelheim/Ruhr              #
                  #                       Germany                       #
                  #                                                     #
                  #                  All rights reserved                #
                  #                        -***-                        #
                  #######################################################


                         Program Version 4.0.0.2 - RELEASE -


 With contributions from (in alphabetic order):
   Daniel Aravena         : Magnetic Properties
   Michael Atanasov       : Ab Initio Ligand Field Theory
   Ute Becker             : Parallelization
   Martin Brehm           : Molecular dynamics
   Dmytro Bykov           : SCF Hessian
   Vijay G. Chilkuri      : MRCI spin determinant printing
   Dipayan Datta          : RHF DLPNO-CCSD density
   Achintya Kumar Dutta   : EOM-CC, STEOM-CC
   Dmitry Ganyushin       : Spin-Orbit,Spin-Spin,Magnetic field MRCI
   Yang Guo               : DLPNO-NEVPT2, CIM, IAO-localization
   Andreas Hansen         : Spin unrestricted coupled pair/coupled cluster methods
   Lee Huntington         : MR-EOM, pCC
   Robert Izsak           : Overlap fitted RIJCOSX, COSX-SCS-MP3, EOM
   Christian Kollmar      : KDIIS, OOCD, Brueckner-CCSD(T), CCSD density
   Simone Kossmann        : Meta GGA functionals, TD-DFT gradient, OOMP2, MP2 Hessian
   Martin Krupicka        : AUTO-CI
   Dagmar Lenk            : GEPOL surface
   Dimitrios Liakos       : Extrapolation schemes; parallel MDCI
   Dimitrios Manganas     : ROCIS; embedding schemes
   Dimitrios Pantazis     : SARC Basis sets
   Taras Petrenko         : DFT Hessian,TD-DFT gradient, ASA, ECA, R-Raman, ABS, FL, XAS/XES, NRVS
   Peter Pinski           : DLPNO-MP2
   Christoph Reimann      : Effective Core Potentials
   Marius Retegan         : Local ZFS, SOC
   Christoph Riplinger    : Optimizer, TS searches, QM/MM, DLPNO-CCSD(T), (RO)-DLPNO pert. Triples
   Tobias Risthaus        : Range-separated hybrids, TD-DFT gradient, RPA, STAB
   Michael Roemelt        : Restricted open shell CIS
   Masaaki Saitow         : Open-shell DLPNO
   Barbara Sandhoefer     : DKH picture change effects
   Kantharuban Sivalingam : CASSCF convergence, NEVPT2, FIC-MRCI
   Georgi Stoychev        : AutoAux
   Boris Wezisla          : Elementary symmetry handling
   Frank Wennmohs         : Technical directorship


 We gratefully acknowledge several colleagues who have allowed us to
 interface, adapt or use parts of their codes:
   Stefan Grimme, W. Hujo, H. Kruse,             : VdW corrections, initial TS optimization,
                  C. Bannwarth                     DFT functionals, gCP, sTDA/sTD-DF
   Ed Valeev                                     : LibInt (2-el integral package), F12 methods
   Garnet Chan, S. Sharma, J. Yang, R. Olivares  : DMRG
   Ulf Ekstrom                                   : XCFun DFT Library
   Mihaly Kallay                                 : mrcc  (arbitrary order and MRCC methods)
   Jiri Pittner, Ondrej Demel                    : Mk-CCSD
   Frank Weinhold                                : gennbo (NPA and NBO analysis)
   Christopher J. Cramer and Donald G. Truhlar   : smd solvation model


 Your calculation uses the libint2 library for the computation of 2-el integrals
 For citations please refer to: http://libint.valeyev.net

 This ORCA versions uses:
   CBLAS   interface :  Fast vector & matrix operations
   LAPACKE interface :  Fast linear algebra routines
   SCALAPACK package :  Parallel linear algebra routines


Your calculation utilizes the atom-pairwise dispersion correction
with the zero-damping scheme (D30)
Cite in your paper:
S.Grimme, J.Antony, S.Ehrlich and H.Krieg, J.Chem.Phys., 132, (2010), 154104 
   

XCFun DFT library Copyright 2009-2010 Ulf Ekstrom and contributors.
See http://admol.org/xcfun for more information. This is free soft-
ware; see the source code for copying conditions. There is ABSOLUTELY
NO WARRANTY; not even for MERCHANTABILITY or FITNESS FOR A PARTICULAR
PURPOSE. For details see the documentation. Scientific users of this 
library should cite U. Ekstrom, L. Visscher, R. Bast, A. J. Thorvald-
sen and K. Ruud; J.Chem.Theor.Comp. 2010, DOI: 10.1021/ct100117s
XCFun Version 0.99 
Your calculation utilizes the basis: 6-31G(d)
   H-He, Li-Ne : W. J. Hehre, R. Ditchfield and J.A. Pople, J. Chem. Phys. 56, 2257 (1972).
                 Note: He and Ne are unpublished basis sets taken from the Gaussian program.
                 Note: Li and B from J. D. Dill and J. A. Pople, J. Chem. Phys. 62, 2921 (1975).
   Na - Ar     : M. M. Francl, W. J. Pietro, W. J. Hehre, J. S. Binkley, M. S. Gordon, 
                 D. J. DeFrees and J. A. Pople, J. Chem. Phys. 77, 3654 (1982).
   K - Zn      : V. A. Rassolov, J. A. Pople, M. A. Ratner, and T. L. Windus, J. Chem. Phys. 109, 1223 (1998).

================================================================================
                                        WARNINGS
                       Please study these warnings very carefully!
================================================================================

Warning: TCutStore was < 0. Adjusted to Thresh (uncritical)

INFO   : the flag for use of LIBINT has been found!

================================================================================
                                       INPUT FILE
================================================================================
NAME = initial18.inp
|  1> ! WB97X-D3 6-31G(d) VerySlowConv
|  2> ! KDIIS NOSOSCF
|  3> %base "Scan_18"
|  4> 
|  5> %scf
|  6> maxiter 999
|  7> end
|  8> 
|  9> * xyz 0 1
| 10> C         -3.361997625383    2.622091463318   -0.000000001759
| 11> C         -1.162512375149    2.635148359338    0.000000001851
| 12> H         -4.456533096285    2.621185348566    0.000000000067
| 13> H         -0.067976903183    2.636054828778   -0.000000000159
| 14> **                         ****END OF INPUT****
================================================================================

                       ****************************
                       * Single Point Calculation *
                       ****************************

---------------------------------
CARTESIAN COORDINATES (ANGSTROEM)
---------------------------------
  C     -3.361998    2.622091   -0.000000
  C     -1.162512    2.635148    0.000000
  H     -4.456533    2.621185    0.000000
  H     -0.067977    2.636055   -0.000000

----------------------------
CARTESIAN COORDINATES (A.U.)
----------------------------
  NO LB      ZA    FRAG     MASS         X           Y           Z
   0 C     6.0000    0    12.011   -6.353255    4.955035   -0.000000
   1 C     6.0000    0    12.011   -2.196830    4.979709    0.000000
   2 H     1.0000    0     1.008   -8.421627    4.953322    0.000000
   3 H     1.0000    0     1.008   -0.128458    4.981422   -0.000000

--------------------------------
INTERNAL COORDINATES (ANGSTROEM)
--------------------------------
 C      0   0   0     0.000000000000     0.00000000     0.00000000
 C      1   0   0     2.199524004991     0.00000000     0.00000000
 H      1   2   0     1.094535845967   179.70730916     0.00000000
 H      2   1   3     1.094535847325   179.70732772   180.00000171

---------------------------
INTERNAL COORDINATES (A.U.)
---------------------------
 C      0   0   0     0.000000000000     0.00000000     0.00000000
 C      1   0   0     4.156497994418     0.00000000     0.00000000
 H      1   2   0     2.068372992637   179.70730916     0.00000000
 H      2   1   3     2.068372995203   179.70732772   180.00000171

---------------------
BASIS SET INFORMATION
---------------------
There are 2 groups of distinct atoms

 Group   1 Type C   : 10s4p1d contracted to 3s2p1d pattern {631/31/1}
 Group   2 Type H   : 4s contracted to 2s pattern {31}

Atom   0C    basis set group =>   1
Atom   1C    basis set group =>   1
Atom   2H    basis set group =>   2
Atom   3H    basis set group =>   2
------------------------------------------------------------------------------
                           ORCA GTO INTEGRAL CALCULATION
------------------------------------------------------------------------------

                         BASIS SET STATISTICS AND STARTUP INFO

 # of primitive gaussian shells          ...   38
 # of primitive gaussian functions       ...   62
 # of contracted shells                  ...   16
 # of contracted basis functions         ...   32
 Highest angular momentum                ...    2
 Maximum contraction depth               ...    6
 Integral package used                   ... LIBINT
 Integral threshhold            Thresh   ...  1.000e-10
 Primitive cut-off              TCut     ...  1.000e-11


------------------------------ INTEGRAL EVALUATION ----------------------------


 * One electron integrals 
 Pre-screening matrix                    ... done
 Shell pair data                         ... done (   0.000 sec)

-------------------------------------------------------------------------------
                                 ORCA SCF
-------------------------------------------------------------------------------

------------
SCF SETTINGS
------------
Hamiltonian:
 Density Functional     Method          .... DFT(GTOs)
 Exchange Functional    Exchange        .... WB97X-D3
 Correlation Functional Correlation     .... WB97X-D3
 Gradients option       PostSCFGGA      .... off
 Hybrid DFT is turned on
   Fraction HF Exchange ScalHFX         ....  0.195728
   Scaling of DF-GGA-X  ScalDFX         ....  0.000000
   Scaling of DF-GGA-C  ScalDFC         ....  1.000000
   Scaling of DF-LDA-C  ScalLDAC        ....  1.000000
   Perturbative correction              ....  0.000000
 Long-range corrected/Screened/Range-Separated Hybrid DFT is turned on
   Amount of maximum screened exact exchange              ....  0.804272
   Range separation parameter mu (erf(mu*r12)/r12)        ....  0.250000


General Settings:
 Integral files         IntName         .... Scan_18
 Hartree-Fock type      HFTyp           .... RHF
 Total Charge           Charge          ....    0
 Multiplicity           Mult            ....    1
 Number of Electrons    NEL             ....   14
 Basis Dimension        Dim             ....   32
 Nuclear Repulsion      ENuc            ....     16.5111357068 Eh

Convergence Acceleration:
 DIIS                   CNVDIIS         .... on
   Start iteration      DIISMaxIt       ....     0
   Startup error        DIISStart       ....  0.200000
   # of expansion vecs  DIISMaxEq       ....     5
   Bias factor          DIISBfac        ....   1.050
   Max. coefficient     DIISMaxC        ....  10.000
 Newton-Raphson         CNVNR           .... off
 SOSCF                  CNVSOSCF        .... off
 Level Shifting         CNVShift        .... off
 Zerner damping         CNVZerner       .... off
 Static damping         CNVDamp         .... off
 Fernandez-Rico         CNVRico         .... off

SCF Procedure:
 Maximum # iterations   MaxIter         ....   999
 SCF integral mode      SCFMode         .... Direct
   Integral package                     .... LIBINT
 Reset frequeny         DirectResetFreq ....    20
 Integral Threshold     Thresh          ....  1.000e-10 Eh
 Primitive CutOff       TCut            ....  1.000e-11 Eh

Convergence Tolerance:
 Convergence Check Mode ConvCheckMode   .... All-Criteria
 Convergence forced     ConvForced      .... 0
 Energy Change          TolE            ....  1.000e-06 Eh
 Max Density Change     TolMaxP         ....  1.000e-05
 RMS Density Change     TolRMSP         ....  1.000e-06
 DIIS Error             TolErr          ....  1.000e-06


Diagonalization of the overlap matrix:
Smallest eigenvalue                        ... 2.579e-02
Time for diagonalization                   ...    0.001 sec
Threshold for overlap eigenvalues          ... 1.000e-08
Number of eigenvalues below threshold      ... 0
Time for construction of square roots      ...    0.006 sec
Total time needed                          ...    0.007 sec

-------------------
DFT GRID GENERATION
-------------------

General Integration Accuracy     IntAcc      ...  4.340
Radial Grid Type                 RadialGrid  ... Gauss-Chebyshev
Angular Grid (max. acc.)         AngularGrid ... Lebedev-110
Angular grid pruning method      GridPruning ... 3 (G Style)
Weight generation scheme         WeightScheme... Becke
Basis function cutoff            BFCut       ...    1.0000e-10
Integration weight cutoff        WCut        ...    1.0000e-14
Grids for H and He will be reduced by one unit

# of grid points (after initial pruning)     ...   4900 (   0.0 sec)
# of grid points (after weights+screening)   ...   4830 (   0.0 sec)
nearest neighbour list constructed           ...    0.0 sec
Grid point re-assignment to atoms done       ...    0.0 sec
Grid point division into batches done        ...    0.0 sec
Reduced shell lists constructed in    0.0 sec

Total number of grid points                  ...     4830
Total number of batches                      ...       78
Average number of points per batch           ...       61
Average number of grid points per atom       ...     1208
Average number of shells per batch           ...    13.27 (82.91%)
Average number of basis functions per batch  ...    27.11 (84.73%)
Average number of large shells per batch     ...    11.28 (85.02%)
Average number of large basis fcns per batch ...    23.28 (85.85%)
Maximum spatial batch extension              ...  17.99, 25.63, 31.36 au
Average spatial batch extension              ...   3.85,  7.06,  7.46 au

Time for grid setup =    0.033 sec

------------------------------
INITIAL GUESS: MODEL POTENTIAL
------------------------------
Loading Hartree-Fock densities                     ... done
Calculating cut-offs                               ... done
Setting up the integral package                    ... done
Initializing the effective Hamiltonian             ... done
Starting the Coulomb interaction                   ... done (   0.0 sec)
Reading the grid                                   ... done
Mapping shells                                     ... done
Starting the XC term evaluation                    ... done (   0.0 sec)
  promolecular density results
     # of electrons  =     13.995744041
     EX              =    -10.536606663
     EC              =     -0.390178021
     EX+EC           =    -10.926784685
Transforming the Hamiltonian                       ... done (   0.0 sec)
Diagonalizing the Hamiltonian                      ... done (   0.0 sec)
Back transforming the eigenvectors                 ... done (   0.0 sec)
Now organizing SCF variables                       ... done
                      ------------------
                      INITIAL GUESS DONE (   0.2 sec)
                      ------------------
--------------
SCF ITERATIONS
--------------
ITER       Energy         Delta-E        Max-DP      RMS-DP      [F,P]   Gradient Norm
               ***  Starting incremental Fock matrix formation  ***
                             ****Resetting KDIIS****
                             ****Turning on KDIIS(Cayley)****
  0    -76.8014550095   0.000000000000 0.00352004  0.00043359  0.0257866   0.024592551
  1    -76.8026561304  -0.001201120840 0.00459157  0.00059443  0.0224057   0.021666940
  2    -76.8040344943  -0.001378363919 0.00762949  0.00104611  0.0180738   0.017444349
  3    -76.8057180397  -0.001683545461 0.01131815  0.00165099  0.0108340   0.010475098
  4    -76.8066953742  -0.000977334419 0.00773127  0.00091634  0.0007408   0.000350457
  5    -76.8067355803  -0.000040206196 0.00221308  0.00025512  0.0003547   0.000317792
  6    -76.8067408159  -0.000005235508 0.00281249  0.00032500  0.0005718   0.000458387
  7    -76.8067469318  -0.000006115926 0.00208524  0.00024188  0.0001880   0.000124564
  8    -76.8067485413  -0.000001609536 0.00045213  0.00005119  0.0000697   0.000033649
                          ***Energy convergence achieved***
  9    -76.8067486244  -0.000000083104 0.00004420  0.00000446  0.0000096   0.000010538

            ***Energy convergence in two consecutive cycles with***
                    ***'reasonable' density convergence***
                       *** signaling convergence ***

                    *** KDIIS BlockDiag ( 0.000 sec) ***

               *****************************************************
               *                     SUCCESS                       *
               *           SCF CONVERGED AFTER  10 CYCLES          *
               *****************************************************

Setting up the final grid:

General Integration Accuracy     IntAcc      ...  4.670
Radial Grid Type                 RadialGrid  ... Gauss-Chebyshev
Angular Grid (max. acc.)         AngularGrid ... Lebedev-302
Angular grid pruning method      GridPruning ... 3 (G Style)
Weight generation scheme         WeightScheme... Becke
Basis function cutoff            BFCut       ...    1.0000e-10
Integration weight cutoff        WCut        ...    1.0000e-14
Grids for H and He will be reduced by one unit

# of grid points (after initial pruning)     ...  19212 (   0.0 sec)
# of grid points (after weights+screening)   ...  18966 (   0.0 sec)
nearest neighbour list constructed           ...    0.0 sec
Grid point re-assignment to atoms done       ...    0.0 sec
Grid point division into batches done        ...    0.1 sec
Reduced shell lists constructed in    0.1 sec

Total number of grid points                  ...    18966
Total number of batches                      ...      300
Average number of points per batch           ...       63
Average number of grid points per atom       ...     4742
Average number of shells per batch           ...    11.83 (73.96%)
Average number of basis functions per batch  ...    24.41 (76.27%)
Average number of large shells per batch     ...    10.11 (85.46%)
Average number of large basis fcns per batch ...    20.85 (85.43%)
Maximum spatial batch extension              ...  19.76, 24.37, 25.71 au
Average spatial batch extension              ...   3.07,  4.13,  4.16 au

Final grid set up in    0.2 sec
Final integration                            ... done (   0.1 sec)
Change in XC energy                          ...    -0.000869035
Integrated number of electrons               ...    13.999999343
Previous integrated no of electrons          ...    13.992805623

----------------
TOTAL SCF ENERGY
----------------

Total Energy       :          -76.80761766 Eh           -2090.04153 eV

Components:
Nuclear Repulsion  :           16.51113571 Eh             449.29084 eV
Electronic Energy  :          -93.31875337 Eh           -2539.33238 eV
One Electron Energy:         -134.82639365 Eh           -3668.81269 eV
Two Electron Energy:           41.50764029 Eh            1129.48031 eV

Virial components:
Potential Energy   :         -152.36924002 Eh           -4146.17781 eV
Kinetic Energy     :           75.56162235 Eh            2056.13628 eV
Virial Ratio       :            2.01648979


DFT components:
N(Alpha)           :        6.999999671440 electrons
N(Beta)            :        6.999999671440 electrons
N(Total)           :       13.999999342881 electrons
E(XC)              :       -7.496695823663 Eh       

---------------
SCF CONVERGENCE
---------------

  Last Energy change         ...   -1.7194e-09  Tolerance :   1.0000e-06
  Last MAX-Density change    ...    1.2107e-05  Tolerance :   1.0000e-05
  Last RMS-Density change    ...    1.4067e-06  Tolerance :   1.0000e-06
  Last DIIS Error            ...    3.1095e-06  Tolerance :   1.0000e-06

             **** THE GBW FILE WAS UPDATED (Scan_18.gbw) ****
             **** DENSITY FILE WAS UPDATED (Scan_18.scfp.tmp) ****
             **** ENERGY FILE WAS UPDATED (Scan_18.en.tmp) ****
----------------
ORBITAL ENERGIES
----------------

  NO   OCC          E(Eh)            E(eV) 
   0   2.0000     -10.418982      -283.5149 
   1   2.0000     -10.418907      -283.5129 
   2   2.0000      -0.762308       -20.7434 
   3   2.0000      -0.729013       -19.8374 
   4   2.0000      -0.483622       -13.1600 
   5   2.0000      -0.286453        -7.7948 
   6   2.0000      -0.286442        -7.7945 
   7   0.0000      -0.067661        -1.8411 
   8   0.0000      -0.034250        -0.9320 
   9   0.0000      -0.034223        -0.9313 
  10   0.0000       0.223998         6.0953 
  11   0.0000       0.274109         7.4589 
  12   0.0000       0.624166        16.9844 
  13   0.0000       0.624170        16.9845 
  14   0.0000       0.697309        18.9747 
  15   0.0000       0.697314        18.9749 
  16   0.0000       0.717342        19.5199 
  17   0.0000       0.759080        20.6556 
  18   0.0000       0.811302        22.0766 
  19   0.0000       0.916702        24.9447 
  20   0.0000       1.004827        27.3427 
  21   0.0000       1.269139        34.5350 
  22   0.0000       1.704521        46.3824 
  23   0.0000       1.704595        46.3844 
  24   0.0000       1.778901        48.4063 
  25   0.0000       1.779997        48.4362 
  26   0.0000       1.793352        48.7996 
  27   0.0000       1.794440        48.8292 
  28   0.0000       1.825627        49.6778 
  29   0.0000       1.825656        49.6786 
  30   0.0000       2.091648        56.9166 
  31   0.0000       2.374727        64.6196 

                    ********************************
                    * MULLIKEN POPULATION ANALYSIS *
                    ********************************

-----------------------
MULLIKEN ATOMIC CHARGES
-----------------------
   0 C :   -0.299896
   1 C :   -0.299897
   2 H :    0.299897
   3 H :    0.299897
Sum of atomic charges:    0.0000000

--------------------------------
MULLIKEN REDUCED ORBITAL CHARGES
--------------------------------
  0 C s       :     3.458094  s :     3.458094
      pz      :     1.000083  p :     2.835287
      px      :     0.835881
      py      :     0.999323
      dz2     :     0.001673  d :     0.006516
      dxz     :    -0.000084
      dyz     :     0.000001
      dx2y2   :     0.005010
      dxy     :    -0.000084
  1 C s       :     3.458094  s :     3.458094
      pz      :     1.000084  p :     2.835287
      px      :     0.835881
      py      :     0.999322
      dz2     :     0.001673  d :     0.006516
      dxz     :    -0.000084
      dyz     :     0.000001
      dx2y2   :     0.005010
      dxy     :    -0.000084
  2 H s       :     0.700103  s :     0.700103
  3 H s       :     0.700103  s :     0.700103


                     *******************************
                     * LOEWDIN POPULATION ANALYSIS *
                     *******************************

----------------------
LOEWDIN ATOMIC CHARGES
----------------------
   0 C :   -0.218984
   1 C :   -0.218984
   2 H :    0.218984
   3 H :    0.218984

-------------------------------
LOEWDIN REDUCED ORBITAL CHARGES
-------------------------------
  0 C s       :     3.293249  s :     3.293249
      pz      :     0.999876  p :     2.917121
      px      :     0.918122
      py      :     0.999122
      dz2     :     0.002094  d :     0.008614
      dxz     :     0.000123
      dyz     :     0.000001
      dx2y2   :     0.006273
      dxy     :     0.000123
  1 C s       :     3.293249  s :     3.293249
      pz      :     0.999877  p :     2.917121
      px      :     0.918122
      py      :     0.999122
      dz2     :     0.002094  d :     0.008614
      dxz     :     0.000123
      dyz     :     0.000001
      dx2y2   :     0.006273
      dxy     :     0.000123
  2 H s       :     0.781016  s :     0.781016
  3 H s       :     0.781016  s :     0.781016


                      *****************************
                      * MAYER POPULATION ANALYSIS *
                      *****************************

  NA   - Mulliken gross atomic population
  ZA   - Total nuclear charge
  QA   - Mulliken gross atomic charge
  VA   - Mayer's total valence
  BVA  - Mayer's bonded valence
  FA   - Mayer's free valence

  ATOM       NA         ZA         QA         VA         BVA        FA
  0 C      6.2999     6.0000    -0.2999     3.7503     3.7503     0.0000
  1 C      6.2999     6.0000    -0.2999     3.7503     3.7503    -0.0000
  2 H      0.7001     1.0000     0.2999     0.8921     0.8921     0.0000
  3 H      0.7001     1.0000     0.2999     0.8921     0.8921    -0.0000

  Mayer bond orders larger than 0.1
B(  0-C ,  1-C ) :   2.8692 B(  0-C ,  2-H ) :   0.8168 B(  1-C ,  3-H ) :   0.8168 


-------
TIMINGS
-------

Total SCF time: 0 days 0 hours 0 min 4 sec 

Total time                  ....       4.630 sec
Sum of individual times     ....       4.497 sec  ( 97.1%)

Fock matrix formation       ....       4.149 sec  ( 89.6%)
  XC integration            ....       0.764 sec  ( 18.4% of F)
    Basis function eval.    ....       0.240 sec  ( 31.4% of XC)
    Density eval.           ....       0.039 sec  (  5.1% of XC)
    XC-Functional eval.     ....       0.217 sec  ( 28.4% of XC)
    XC-Potential eval.      ....       0.030 sec  (  3.9% of XC)
Diagonalization             ....       0.016 sec  (  0.4%)
Density matrix formation    ....       0.000 sec  (  0.0%)
Population analysis         ....       0.008 sec  (  0.2%)
Initial guess               ....       0.140 sec  (  3.0%)
Orbital Transformation      ....       0.000 sec  (  0.0%)
Orbital Orthonormalization  ....       0.000 sec  (  0.0%)
DIIS solution               ....       0.000 sec  (  0.0%)
Grid generation             ....       0.184 sec  (  4.0%)


-------------------------------------------------------------------------------
                          DFT DISPERSION CORRECTION                            
                                                                               
                              DFTD3 V3.1  Rev 1                                
                              USING zero damping                               
-------------------------------------------------------------------------------
The omegaB97X-D3 functional is recognized. Fit by Chai et al.
Active option DFTDOPT                   ...         3   

molecular C6(AA) [au] = 271.888422 


            DFT-D V3
 parameters
 s6 scaling factor         :     1.0000 
 rs6 scaling factor        :     1.2810 
 s8 scaling factor         :     1.0000 
 rs8 scaling factor        :     1.0940 
 Damping factor alpha6     :    14.0000 
 Damping factor alpha8     :    16.0000 
 ad hoc parameters k1-k3   :    16.0000     1.3333    -4.0000 

 Edisp/kcal,au: -0.169311378913  -0.000269814828 
 E6   /kcal   :  -0.067290725 
 E8   /kcal   :  -0.102020653 
 % E8         :  60.256229722 

-------------------------   ----------------
Dispersion correction           -0.000269815
-------------------------   ----------------


-------------------------   --------------------
FINAL SINGLE POINT ENERGY       -76.807887476073
-------------------------   --------------------


                            ***************************************
                            *     ORCA property calculations      *
                            ***************************************

                                    ---------------------
                                    Active property flags
                                    ---------------------
   (+) Dipole Moment


------------------------------------------------------------------------------
                       ORCA ELECTRIC PROPERTIES CALCULATION
------------------------------------------------------------------------------

Dipole Moment Calculation                       ... on
Quadrupole Moment Calculation                   ... off
Polarizability Calculation                      ... off
GBWName                                         ... Scan_18.gbw
Electron density file                           ... Scan_18.scfp.tmp

-------------
DIPOLE MOMENT
-------------
                                X             Y             Z
Electronic contribution:     -0.00000      -0.00000       0.00000
Nuclear contribution   :      0.00000       0.00000      -0.00000
                        -----------------------------------------
Total Dipole Moment    :     -0.00000       0.00000      -0.00000
                        -----------------------------------------
Magnitude (a.u.)       :      0.00000
Magnitude (Debye)      :      0.00000


Timings for individual modules:

Sum of individual times         ...        5.072 sec (=   0.085 min)
GTO integral calculation        ...        0.413 sec (=   0.007 min)   8.1 %
SCF iterations                  ...        4.659 sec (=   0.078 min)  91.9 %
                             ****ORCA TERMINATED NORMALLY****
TOTAL RUN TIME: 0 days 0 hours 0 minutes 5 seconds 453 msec
