
                                 *****************
                                 * O   R   C   A *
                                 *****************

           --- An Ab Initio, DFT and Semiempirical electronic structure package ---

                  #######################################################
                  #                        -***-                        #
                  #  Department of molecular theory and spectroscopy    #
                  #              Directorship: Frank Neese              #
                  # Max Planck Institute for Chemical Energy Conversion #
                  #                  D-45470 Muelheim/Ruhr              #
                  #                       Germany                       #
                  #                                                     #
                  #                  All rights reserved                #
                  #                        -***-                        #
                  #######################################################


                         Program Version 4.0.0.2 - RELEASE -


 With contributions from (in alphabetic order):
   Daniel Aravena         : Magnetic Properties
   Michael Atanasov       : Ab Initio Ligand Field Theory
   Ute Becker             : Parallelization
   Martin Brehm           : Molecular dynamics
   Dmytro Bykov           : SCF Hessian
   Vijay G. Chilkuri      : MRCI spin determinant printing
   Dipayan Datta          : RHF DLPNO-CCSD density
   Achintya Kumar Dutta   : EOM-CC, STEOM-CC
   Dmitry Ganyushin       : Spin-Orbit,Spin-Spin,Magnetic field MRCI
   Yang Guo               : DLPNO-NEVPT2, CIM, IAO-localization
   Andreas Hansen         : Spin unrestricted coupled pair/coupled cluster methods
   Lee Huntington         : MR-EOM, pCC
   Robert Izsak           : Overlap fitted RIJCOSX, COSX-SCS-MP3, EOM
   Christian Kollmar      : KDIIS, OOCD, Brueckner-CCSD(T), CCSD density
   Simone Kossmann        : Meta GGA functionals, TD-DFT gradient, OOMP2, MP2 Hessian
   Martin Krupicka        : AUTO-CI
   Dagmar Lenk            : GEPOL surface
   Dimitrios Liakos       : Extrapolation schemes; parallel MDCI
   Dimitrios Manganas     : ROCIS; embedding schemes
   Dimitrios Pantazis     : SARC Basis sets
   Taras Petrenko         : DFT Hessian,TD-DFT gradient, ASA, ECA, R-Raman, ABS, FL, XAS/XES, NRVS
   Peter Pinski           : DLPNO-MP2
   Christoph Reimann      : Effective Core Potentials
   Marius Retegan         : Local ZFS, SOC
   Christoph Riplinger    : Optimizer, TS searches, QM/MM, DLPNO-CCSD(T), (RO)-DLPNO pert. Triples
   Tobias Risthaus        : Range-separated hybrids, TD-DFT gradient, RPA, STAB
   Michael Roemelt        : Restricted open shell CIS
   Masaaki Saitow         : Open-shell DLPNO
   Barbara Sandhoefer     : DKH picture change effects
   Kantharuban Sivalingam : CASSCF convergence, NEVPT2, FIC-MRCI
   Georgi Stoychev        : AutoAux
   Boris Wezisla          : Elementary symmetry handling
   Frank Wennmohs         : Technical directorship


 We gratefully acknowledge several colleagues who have allowed us to
 interface, adapt or use parts of their codes:
   Stefan Grimme, W. Hujo, H. Kruse,             : VdW corrections, initial TS optimization,
                  C. Bannwarth                     DFT functionals, gCP, sTDA/sTD-DF
   Ed Valeev                                     : LibInt (2-el integral package), F12 methods
   Garnet Chan, S. Sharma, J. Yang, R. Olivares  : DMRG
   Ulf Ekstrom                                   : XCFun DFT Library
   Mihaly Kallay                                 : mrcc  (arbitrary order and MRCC methods)
   Jiri Pittner, Ondrej Demel                    : Mk-CCSD
   Frank Weinhold                                : gennbo (NPA and NBO analysis)
   Christopher J. Cramer and Donald G. Truhlar   : smd solvation model


 Your calculation uses the libint2 library for the computation of 2-el integrals
 For citations please refer to: http://libint.valeyev.net

 This ORCA versions uses:
   CBLAS   interface :  Fast vector & matrix operations
   LAPACKE interface :  Fast linear algebra routines
   SCALAPACK package :  Parallel linear algebra routines


Your calculation utilizes the atom-pairwise dispersion correction
with the zero-damping scheme (D30)
Cite in your paper:
S.Grimme, J.Antony, S.Ehrlich and H.Krieg, J.Chem.Phys., 132, (2010), 154104 
   

XCFun DFT library Copyright 2009-2010 Ulf Ekstrom and contributors.
See http://admol.org/xcfun for more information. This is free soft-
ware; see the source code for copying conditions. There is ABSOLUTELY
NO WARRANTY; not even for MERCHANTABILITY or FITNESS FOR A PARTICULAR
PURPOSE. For details see the documentation. Scientific users of this 
library should cite U. Ekstrom, L. Visscher, R. Bast, A. J. Thorvald-
sen and K. Ruud; J.Chem.Theor.Comp. 2010, DOI: 10.1021/ct100117s
XCFun Version 0.99 
Your calculation utilizes the basis: 6-31G(d)
   H-He, Li-Ne : W. J. Hehre, R. Ditchfield and J.A. Pople, J. Chem. Phys. 56, 2257 (1972).
                 Note: He and Ne are unpublished basis sets taken from the Gaussian program.
                 Note: Li and B from J. D. Dill and J. A. Pople, J. Chem. Phys. 62, 2921 (1975).
   Na - Ar     : M. M. Francl, W. J. Pietro, W. J. Hehre, J. S. Binkley, M. S. Gordon, 
                 D. J. DeFrees and J. A. Pople, J. Chem. Phys. 77, 3654 (1982).
   K - Zn      : V. A. Rassolov, J. A. Pople, M. A. Ratner, and T. L. Windus, J. Chem. Phys. 109, 1223 (1998).

================================================================================
                                        WARNINGS
                       Please study these warnings very carefully!
================================================================================

Warning: TCutStore was < 0. Adjusted to Thresh (uncritical)

INFO   : the flag for use of LIBINT has been found!

================================================================================
                                       INPUT FILE
================================================================================
NAME = initial19.inp
|  1> ! WB97X-D3 6-31G(d) VerySlowConv
|  2> ! KDIIS NOSOSCF
|  3> %base "Scan_19"
|  4> 
|  5> %scf
|  6> maxiter 999
|  7> end
|  8> 
|  9> * xyz 0 1
| 10> C         -3.393425340540    2.557537480027   -0.000000056302
| 11> C         -1.131105709882    2.699688764983    0.000000048984
| 12> H         -3.729523557219    3.609128064783   -0.000000050263
| 13> H         -0.794965392359    1.648125690206    0.000000057582
| 14> **                         ****END OF INPUT****
================================================================================

                       ****************************
                       * Single Point Calculation *
                       ****************************

---------------------------------
CARTESIAN COORDINATES (ANGSTROEM)
---------------------------------
  C     -3.393425    2.557537   -0.000000
  C     -1.131106    2.699689    0.000000
  H     -3.729524    3.609128   -0.000000
  H     -0.794965    1.648126    0.000000

----------------------------
CARTESIAN COORDINATES (A.U.)
----------------------------
  NO LB      ZA    FRAG     MASS         X           Y           Z
   0 C     6.0000    0    12.011   -6.412645    4.833045   -0.000000
   1 C     6.0000    0    12.011   -2.137480    5.101672    0.000000
   2 H     1.0000    0     1.008   -7.047778    6.820264   -0.000000
   3 H     1.0000    0     1.008   -1.502267    3.114506    0.000000

--------------------------------
INTERNAL COORDINATES (ANGSTROEM)
--------------------------------
 C      0   0   0     0.000000000000     0.00000000     0.00000000
 C      1   0   0     2.266781219941     0.00000000     0.00000000
 H      1   2   0     1.103994913576   104.12895366     0.00000000
 H      2   1   3     1.103981527608   104.13146961   180.00000000

---------------------------
INTERNAL COORDINATES (A.U.)
---------------------------
 C      0   0   0     0.000000000000     0.00000000     0.00000000
 C      1   0   0     4.283595711204     0.00000000     0.00000000
 H      1   2   0     2.086248039901   104.12895366     0.00000000
 H      2   1   3     2.086222744086   104.13146961   180.00000000

---------------------
BASIS SET INFORMATION
---------------------
There are 2 groups of distinct atoms

 Group   1 Type C   : 10s4p1d contracted to 3s2p1d pattern {631/31/1}
 Group   2 Type H   : 4s contracted to 2s pattern {31}

Atom   0C    basis set group =>   1
Atom   1C    basis set group =>   1
Atom   2H    basis set group =>   2
Atom   3H    basis set group =>   2
------------------------------------------------------------------------------
                           ORCA GTO INTEGRAL CALCULATION
------------------------------------------------------------------------------

                         BASIS SET STATISTICS AND STARTUP INFO

 # of primitive gaussian shells          ...   38
 # of primitive gaussian functions       ...   62
 # of contracted shells                  ...   16
 # of contracted basis functions         ...   32
 Highest angular momentum                ...    2
 Maximum contraction depth               ...    6
 Integral package used                   ... LIBINT
 Integral threshhold            Thresh   ...  1.000e-10
 Primitive cut-off              TCut     ...  1.000e-11


------------------------------ INTEGRAL EVALUATION ----------------------------


 * One electron integrals 
 Pre-screening matrix                    ... done
 Shell pair data                         ... done (   0.000 sec)

-------------------------------------------------------------------------------
                                 ORCA SCF
-------------------------------------------------------------------------------

------------
SCF SETTINGS
------------
Hamiltonian:
 Density Functional     Method          .... DFT(GTOs)
 Exchange Functional    Exchange        .... WB97X-D3
 Correlation Functional Correlation     .... WB97X-D3
 Gradients option       PostSCFGGA      .... off
 Hybrid DFT is turned on
   Fraction HF Exchange ScalHFX         ....  0.195728
   Scaling of DF-GGA-X  ScalDFX         ....  0.000000
   Scaling of DF-GGA-C  ScalDFC         ....  1.000000
   Scaling of DF-LDA-C  ScalLDAC        ....  1.000000
   Perturbative correction              ....  0.000000
 Long-range corrected/Screened/Range-Separated Hybrid DFT is turned on
   Amount of maximum screened exact exchange              ....  0.804272
   Range separation parameter mu (erf(mu*r12)/r12)        ....  0.250000


General Settings:
 Integral files         IntName         .... Scan_19
 Hartree-Fock type      HFTyp           .... RHF
 Total Charge           Charge          ....    0
 Multiplicity           Mult            ....    1
 Number of Electrons    NEL             ....   14
 Basis Dimension        Dim             ....   32
 Nuclear Repulsion      ENuc            ....     16.6127042246 Eh

Convergence Acceleration:
 DIIS                   CNVDIIS         .... on
   Start iteration      DIISMaxIt       ....     0
   Startup error        DIISStart       ....  0.200000
   # of expansion vecs  DIISMaxEq       ....     5
   Bias factor          DIISBfac        ....   1.050
   Max. coefficient     DIISMaxC        ....  10.000
 Newton-Raphson         CNVNR           .... off
 SOSCF                  CNVSOSCF        .... off
 Level Shifting         CNVShift        .... off
 Zerner damping         CNVZerner       .... off
 Static damping         CNVDamp         .... off
 Fernandez-Rico         CNVRico         .... off

SCF Procedure:
 Maximum # iterations   MaxIter         ....   999
 SCF integral mode      SCFMode         .... Direct
   Integral package                     .... LIBINT
 Reset frequeny         DirectResetFreq ....    20
 Integral Threshold     Thresh          ....  1.000e-10 Eh
 Primitive CutOff       TCut            ....  1.000e-11 Eh

Convergence Tolerance:
 Convergence Check Mode ConvCheckMode   .... All-Criteria
 Convergence forced     ConvForced      .... 0
 Energy Change          TolE            ....  1.000e-06 Eh
 Max Density Change     TolMaxP         ....  1.000e-05
 RMS Density Change     TolRMSP         ....  1.000e-06
 DIIS Error             TolErr          ....  1.000e-06


Diagonalization of the overlap matrix:
Smallest eigenvalue                        ... 3.779e-02
Time for diagonalization                   ...    0.000 sec
Threshold for overlap eigenvalues          ... 1.000e-08
Number of eigenvalues below threshold      ... 0
Time for construction of square roots      ...    0.006 sec
Total time needed                          ...    0.006 sec

-------------------
DFT GRID GENERATION
-------------------

General Integration Accuracy     IntAcc      ...  4.340
Radial Grid Type                 RadialGrid  ... Gauss-Chebyshev
Angular Grid (max. acc.)         AngularGrid ... Lebedev-110
Angular grid pruning method      GridPruning ... 3 (G Style)
Weight generation scheme         WeightScheme... Becke
Basis function cutoff            BFCut       ...    1.0000e-10
Integration weight cutoff        WCut        ...    1.0000e-14
Grids for H and He will be reduced by one unit

# of grid points (after initial pruning)     ...   4900 (   0.0 sec)
# of grid points (after weights+screening)   ...   4870 (   0.0 sec)
nearest neighbour list constructed           ...    0.0 sec
Grid point re-assignment to atoms done       ...    0.0 sec
Grid point division into batches done        ...    0.0 sec
Reduced shell lists constructed in    0.0 sec

Total number of grid points                  ...     4870
Total number of batches                      ...       78
Average number of points per batch           ...       62
Average number of grid points per atom       ...     1218
Average number of shells per batch           ...    13.80 (86.23%)
Average number of basis functions per batch  ...    28.33 (88.53%)
Average number of large shells per batch     ...    11.95 (86.61%)
Average number of large basis fcns per batch ...    24.51 (86.51%)
Maximum spatial batch extension              ...  21.87, 17.60, 31.36 au
Average spatial batch extension              ...   6.20,  4.90,  7.15 au

Time for grid setup =    0.034 sec

------------------------------
INITIAL GUESS: MODEL POTENTIAL
------------------------------
Loading Hartree-Fock densities                     ... done
Calculating cut-offs                               ... done
Setting up the integral package                    ... done
Initializing the effective Hamiltonian             ... done
Starting the Coulomb interaction                   ... done (   0.0 sec)
Reading the grid                                   ... done
Mapping shells                                     ... done
Starting the XC term evaluation                    ... done (   0.0 sec)
  promolecular density results
     # of electrons  =     13.997221212
     EX              =    -10.533022403
     EC              =     -0.389734619
     EX+EC           =    -10.922757022
Transforming the Hamiltonian                       ... done (   0.0 sec)
Diagonalizing the Hamiltonian                      ... done (   0.0 sec)
Back transforming the eigenvectors                 ... done (   0.0 sec)
Now organizing SCF variables                       ... done
                      ------------------
                      INITIAL GUESS DONE (   0.2 sec)
                      ------------------
--------------
SCF ITERATIONS
--------------
ITER       Energy         Delta-E        Max-DP      RMS-DP      [F,P]   Gradient Norm
               ***  Starting incremental Fock matrix formation  ***
                             ****Resetting KDIIS****
                             ****Turning on KDIIS(Cayley)****
  0    -76.9487848119   0.000000000000 0.00553743  0.00045820  0.0252047   0.027872954
  1    -76.9498739301  -0.001089118200 0.00697994  0.00071574  0.0224983   0.025025577
  2    -76.9514251204  -0.001551190298 0.01165429  0.00122794  0.0180773   0.020116719
  3    -76.9532737287  -0.001848608353 0.01709706  0.00186374  0.0108986   0.012102157
  4    -76.9543262211  -0.001052492401 0.00016658  0.00001871  0.0001003   0.000056584
                          ***Energy convergence achieved***
  5    -76.9543263205  -0.000000099339 0.00006308  0.00000624  0.0000141   0.000016419

            ***Energy convergence in two consecutive cycles with***
                    ***'reasonable' density convergence***
                       *** signaling convergence ***

                    *** KDIIS BlockDiag ( 0.000 sec) ***

               *****************************************************
               *                     SUCCESS                       *
               *           SCF CONVERGED AFTER   6 CYCLES          *
               *****************************************************

Setting up the final grid:

General Integration Accuracy     IntAcc      ...  4.670
Radial Grid Type                 RadialGrid  ... Gauss-Chebyshev
Angular Grid (max. acc.)         AngularGrid ... Lebedev-302
Angular grid pruning method      GridPruning ... 3 (G Style)
Weight generation scheme         WeightScheme... Becke
Basis function cutoff            BFCut       ...    1.0000e-10
Integration weight cutoff        WCut        ...    1.0000e-14
Grids for H and He will be reduced by one unit

# of grid points (after initial pruning)     ...  19212 (   0.0 sec)
# of grid points (after weights+screening)   ...  18968 (   0.0 sec)
nearest neighbour list constructed           ...    0.0 sec
Grid point re-assignment to atoms done       ...    0.0 sec
Grid point division into batches done        ...    0.1 sec
Reduced shell lists constructed in    0.1 sec

Total number of grid points                  ...    18968
Total number of batches                      ...      298
Average number of points per batch           ...       63
Average number of grid points per atom       ...     4742
Average number of shells per batch           ...    12.25 (76.57%)
Average number of basis functions per batch  ...    25.31 (79.09%)
Average number of large shells per batch     ...    10.63 (86.79%)
Average number of large basis fcns per batch ...    21.82 (86.20%)
Maximum spatial batch extension              ...  18.99, 20.91, 20.64 au
Average spatial batch extension              ...   3.81,  3.46,  3.99 au

Final grid set up in    0.2 sec
Final integration                            ... done (   0.2 sec)
Change in XC energy                          ...     0.000466924
Integrated number of electrons               ...    13.999997162
Previous integrated no of electrons          ...    14.000387921

----------------
TOTAL SCF ENERGY
----------------

Total Energy       :          -76.95385940 Eh           -2094.02097 eV

Components:
Nuclear Repulsion  :           16.61270422 Eh             452.05466 eV
Electronic Energy  :          -93.56656363 Eh           -2546.07564 eV
One Electron Energy:         -135.24369497 Eh           -3680.16804 eV
Two Electron Energy:           41.67713134 Eh            1134.09240 eV

Virial components:
Potential Energy   :         -153.30404227 Eh           -4171.61507 eV
Kinetic Energy     :           76.35018287 Eh            2077.59410 eV
Virial Ratio       :            2.00790668


DFT components:
N(Alpha)           :        6.999998581046 electrons
N(Beta)            :        6.999998581046 electrons
N(Total)           :       13.999997162093 electrons
E(XC)              :       -7.624379950886 Eh       

---------------
SCF CONVERGENCE
---------------

  Last Energy change         ...   -5.1101e-09  Tolerance :   1.0000e-06
  Last MAX-Density change    ...    2.5037e-05  Tolerance :   1.0000e-05
  Last RMS-Density change    ...    1.8095e-06  Tolerance :   1.0000e-06
  Last DIIS Error            ...    7.6002e-06  Tolerance :   1.0000e-06

             **** THE GBW FILE WAS UPDATED (Scan_19.gbw) ****
             **** DENSITY FILE WAS UPDATED (Scan_19.scfp.tmp) ****
             **** ENERGY FILE WAS UPDATED (Scan_19.en.tmp) ****
----------------
ORBITAL ENERGIES
----------------

  NO   OCC          E(Eh)            E(eV) 
   0   2.0000     -10.390124      -282.7297 
   1   2.0000     -10.390082      -282.7285 
   2   2.0000      -0.762427       -20.7467 
   3   2.0000      -0.715803       -19.4780 
   4   2.0000      -0.427934       -11.6447 
   5   2.0000      -0.395311       -10.7569 
   6   2.0000      -0.295765        -8.0482 
   7   0.0000      -0.054986        -1.4962 
   8   0.0000       0.001797         0.0489 
   9   0.0000       0.053424         1.4537 
  10   0.0000       0.220682         6.0051 
  11   0.0000       0.243447         6.6245 
  12   0.0000       0.606649        16.5078 
  13   0.0000       0.628920        17.1138 
  14   0.0000       0.655940        17.8490 
  15   0.0000       0.708825        19.2881 
  16   0.0000       0.710789        19.3415 
  17   0.0000       0.745843        20.2954 
  18   0.0000       0.803591        21.8668 
  19   0.0000       0.985533        26.8177 
  20   0.0000       0.989194        26.9173 
  21   0.0000       1.023111        27.8403 
  22   0.0000       1.697506        46.1915 
  23   0.0000       1.742806        47.4242 
  24   0.0000       1.756070        47.7851 
  25   0.0000       1.760223        47.8981 
  26   0.0000       1.769748        48.1573 
  27   0.0000       1.832620        49.8681 
  28   0.0000       1.838118        50.0177 
  29   0.0000       2.081190        56.6321 
  30   0.0000       2.218839        60.3777 
  31   0.0000       2.244992        61.0894 

                    ********************************
                    * MULLIKEN POPULATION ANALYSIS *
                    ********************************

-----------------------
MULLIKEN ATOMIC CHARGES
-----------------------
   0 C :   -0.167926
   1 C :   -0.167991
   2 H :    0.167952
   3 H :    0.167965
Sum of atomic charges:   -0.0000000

--------------------------------
MULLIKEN REDUCED ORBITAL CHARGES
--------------------------------
  0 C s       :     3.868455  s :     3.868455
      pz      :     0.000000  p :     2.283137
      px      :     0.991747
      py      :     1.291390
      dz2     :     0.003994  d :     0.016334
      dxz     :     0.000000
      dyz     :     0.000000
      dx2y2   :     0.009216
      dxy     :     0.003125
  1 C s       :     3.868452  s :     3.868452
      pz      :     0.000000  p :     2.283205
      px      :     0.991789
      py      :     1.291415
      dz2     :     0.003994  d :     0.016335
      dxz     :     0.000000
      dyz     :     0.000000
      dx2y2   :     0.009215
      dxy     :     0.003126
  2 H s       :     0.832048  s :     0.832048
  3 H s       :     0.832035  s :     0.832035


                     *******************************
                     * LOEWDIN POPULATION ANALYSIS *
                     *******************************

----------------------
LOEWDIN ATOMIC CHARGES
----------------------
   0 C :   -0.115554
   1 C :   -0.115610
   2 H :    0.115578
   3 H :    0.115586

-------------------------------
LOEWDIN REDUCED ORBITAL CHARGES
-------------------------------
  0 C s       :     3.673970  s :     3.673970
      pz      :     0.000000  p :     2.419003
      px      :     1.027276
      py      :     1.391727
      dz2     :     0.005355  d :     0.022582
      dxz     :     0.000000
      dyz     :     0.000000
      dx2y2   :     0.012737
      dxy     :     0.004489
  1 C s       :     3.673963  s :     3.673963
      pz      :     0.000000  p :     2.419066
      px      :     1.027317
      py      :     1.391749
      dz2     :     0.005355  d :     0.022582
      dxz     :     0.000000
      dyz     :     0.000000
      dx2y2   :     0.012736
      dxy     :     0.004491
  2 H s       :     0.884422  s :     0.884422
  3 H s       :     0.884414  s :     0.884414


                      *****************************
                      * MAYER POPULATION ANALYSIS *
                      *****************************

  NA   - Mulliken gross atomic population
  ZA   - Total nuclear charge
  QA   - Mulliken gross atomic charge
  VA   - Mayer's total valence
  BVA  - Mayer's bonded valence
  FA   - Mayer's free valence

  ATOM       NA         ZA         QA         VA         BVA        FA
  0 C      6.1679     6.0000    -0.1679     1.9018     1.9018    -0.0000
  1 C      6.1680     6.0000    -0.1680     1.9018     1.9018     0.0000
  2 H      0.8320     1.0000     0.1680     0.9052     0.9052    -0.0000
  3 H      0.8320     1.0000     0.1680     0.9052     0.9052     0.0000

  Mayer bond orders larger than 0.1
B(  0-C ,  1-C ) :   0.9972 B(  0-C ,  2-H ) :   0.9018 B(  1-C ,  3-H ) :   0.9018 


-------
TIMINGS
-------

Total SCF time: 0 days 0 hours 0 min 2 sec 

Total time                  ....       2.844 sec
Sum of individual times     ....       2.731 sec  ( 96.0%)

Fock matrix formation       ....       2.380 sec  ( 83.7%)
  XC integration            ....       0.555 sec  ( 23.3% of F)
    Basis function eval.    ....       0.183 sec  ( 33.0% of XC)
    Density eval.           ....       0.028 sec  (  5.0% of XC)
    XC-Functional eval.     ....       0.158 sec  ( 28.5% of XC)
    XC-Potential eval.      ....       0.024 sec  (  4.3% of XC)
Diagonalization             ....       0.016 sec  (  0.6%)
Density matrix formation    ....       0.000 sec  (  0.0%)
Population analysis         ....       0.012 sec  (  0.4%)
Initial guess               ....       0.130 sec  (  4.6%)
Orbital Transformation      ....       0.000 sec  (  0.0%)
Orbital Orthonormalization  ....       0.000 sec  (  0.0%)
DIIS solution               ....       0.000 sec  (  0.0%)
Grid generation             ....       0.193 sec  (  6.8%)


-------------------------------------------------------------------------------
                          DFT DISPERSION CORRECTION                            
                                                                               
                              DFTD3 V3.1  Rev 1                                
                              USING zero damping                               
-------------------------------------------------------------------------------
The omegaB97X-D3 functional is recognized. Fit by Chai et al.
Active option DFTDOPT                   ...         3   

molecular C6(AA) [au] = 274.057725 


            DFT-D V3
 parameters
 s6 scaling factor         :     1.0000 
 rs6 scaling factor        :     1.2810 
 s8 scaling factor         :     1.0000 
 rs8 scaling factor        :     1.0940 
 Damping factor alpha6     :    14.0000 
 Damping factor alpha8     :    16.0000 
 ad hoc parameters k1-k3   :    16.0000     1.3333    -4.0000 

 Edisp/kcal,au: -0.150706590794  -0.000240166214 
 E6   /kcal   :  -0.037483467 
 E8   /kcal   :  -0.113223124 
 % E8         :  75.128183385 

-------------------------   ----------------
Dispersion correction           -0.000240166
-------------------------   ----------------


-------------------------   --------------------
FINAL SINGLE POINT ENERGY       -76.954099568123
-------------------------   --------------------


                            ***************************************
                            *     ORCA property calculations      *
                            ***************************************

                                    ---------------------
                                    Active property flags
                                    ---------------------
   (+) Dipole Moment


------------------------------------------------------------------------------
                       ORCA ELECTRIC PROPERTIES CALCULATION
------------------------------------------------------------------------------

Dipole Moment Calculation                       ... on
Quadrupole Moment Calculation                   ... off
Polarizability Calculation                      ... off
GBWName                                         ... Scan_19.gbw
Electron density file                           ... Scan_19.scfp.tmp

-------------
DIPOLE MOMENT
-------------
                                X             Y             Z
Electronic contribution:     -0.00011      -0.00005       0.00000
Nuclear contribution   :      0.00004       0.00002       0.00000
                        -----------------------------------------
Total Dipole Moment    :     -0.00008      -0.00003       0.00000
                        -----------------------------------------
Magnitude (a.u.)       :      0.00008
Magnitude (Debye)      :      0.00020


Timings for individual modules:

Sum of individual times         ...        3.200 sec (=   0.053 min)
GTO integral calculation        ...        0.330 sec (=   0.005 min)  10.3 %
SCF iterations                  ...        2.870 sec (=   0.048 min)  89.7 %
                             ****ORCA TERMINATED NORMALLY****
TOTAL RUN TIME: 0 days 0 hours 0 minutes 3 seconds 553 msec
