
                                 *****************
                                 * O   R   C   A *
                                 *****************

           --- An Ab Initio, DFT and Semiempirical electronic structure package ---

                  #######################################################
                  #                        -***-                        #
                  #  Department of molecular theory and spectroscopy    #
                  #              Directorship: Frank Neese              #
                  # Max Planck Institute for Chemical Energy Conversion #
                  #                  D-45470 Muelheim/Ruhr              #
                  #                       Germany                       #
                  #                                                     #
                  #                  All rights reserved                #
                  #                        -***-                        #
                  #######################################################


                         Program Version 4.0.0.2 - RELEASE -


 With contributions from (in alphabetic order):
   Daniel Aravena         : Magnetic Properties
   Michael Atanasov       : Ab Initio Ligand Field Theory
   Ute Becker             : Parallelization
   Martin Brehm           : Molecular dynamics
   Dmytro Bykov           : SCF Hessian
   Vijay G. Chilkuri      : MRCI spin determinant printing
   Dipayan Datta          : RHF DLPNO-CCSD density
   Achintya Kumar Dutta   : EOM-CC, STEOM-CC
   Dmitry Ganyushin       : Spin-Orbit,Spin-Spin,Magnetic field MRCI
   Yang Guo               : DLPNO-NEVPT2, CIM, IAO-localization
   Andreas Hansen         : Spin unrestricted coupled pair/coupled cluster methods
   Lee Huntington         : MR-EOM, pCC
   Robert Izsak           : Overlap fitted RIJCOSX, COSX-SCS-MP3, EOM
   Christian Kollmar      : KDIIS, OOCD, Brueckner-CCSD(T), CCSD density
   Simone Kossmann        : Meta GGA functionals, TD-DFT gradient, OOMP2, MP2 Hessian
   Martin Krupicka        : AUTO-CI
   Dagmar Lenk            : GEPOL surface
   Dimitrios Liakos       : Extrapolation schemes; parallel MDCI
   Dimitrios Manganas     : ROCIS; embedding schemes
   Dimitrios Pantazis     : SARC Basis sets
   Taras Petrenko         : DFT Hessian,TD-DFT gradient, ASA, ECA, R-Raman, ABS, FL, XAS/XES, NRVS
   Peter Pinski           : DLPNO-MP2
   Christoph Reimann      : Effective Core Potentials
   Marius Retegan         : Local ZFS, SOC
   Christoph Riplinger    : Optimizer, TS searches, QM/MM, DLPNO-CCSD(T), (RO)-DLPNO pert. Triples
   Tobias Risthaus        : Range-separated hybrids, TD-DFT gradient, RPA, STAB
   Michael Roemelt        : Restricted open shell CIS
   Masaaki Saitow         : Open-shell DLPNO
   Barbara Sandhoefer     : DKH picture change effects
   Kantharuban Sivalingam : CASSCF convergence, NEVPT2, FIC-MRCI
   Georgi Stoychev        : AutoAux
   Boris Wezisla          : Elementary symmetry handling
   Frank Wennmohs         : Technical directorship


 We gratefully acknowledge several colleagues who have allowed us to
 interface, adapt or use parts of their codes:
   Stefan Grimme, W. Hujo, H. Kruse,             : VdW corrections, initial TS optimization,
                  C. Bannwarth                     DFT functionals, gCP, sTDA/sTD-DF
   Ed Valeev                                     : LibInt (2-el integral package), F12 methods
   Garnet Chan, S. Sharma, J. Yang, R. Olivares  : DMRG
   Ulf Ekstrom                                   : XCFun DFT Library
   Mihaly Kallay                                 : mrcc  (arbitrary order and MRCC methods)
   Jiri Pittner, Ondrej Demel                    : Mk-CCSD
   Frank Weinhold                                : gennbo (NPA and NBO analysis)
   Christopher J. Cramer and Donald G. Truhlar   : smd solvation model


 Your calculation uses the libint2 library for the computation of 2-el integrals
 For citations please refer to: http://libint.valeyev.net

 This ORCA versions uses:
   CBLAS   interface :  Fast vector & matrix operations
   LAPACKE interface :  Fast linear algebra routines
   SCALAPACK package :  Parallel linear algebra routines


Your calculation utilizes the atom-pairwise dispersion correction
with the zero-damping scheme (D30)
Cite in your paper:
S.Grimme, J.Antony, S.Ehrlich and H.Krieg, J.Chem.Phys., 132, (2010), 154104 
   

XCFun DFT library Copyright 2009-2010 Ulf Ekstrom and contributors.
See http://admol.org/xcfun for more information. This is free soft-
ware; see the source code for copying conditions. There is ABSOLUTELY
NO WARRANTY; not even for MERCHANTABILITY or FITNESS FOR A PARTICULAR
PURPOSE. For details see the documentation. Scientific users of this 
library should cite U. Ekstrom, L. Visscher, R. Bast, A. J. Thorvald-
sen and K. Ruud; J.Chem.Theor.Comp. 2010, DOI: 10.1021/ct100117s
XCFun Version 0.99 
Your calculation utilizes the basis: 6-31G(d)
   H-He, Li-Ne : W. J. Hehre, R. Ditchfield and J.A. Pople, J. Chem. Phys. 56, 2257 (1972).
                 Note: He and Ne are unpublished basis sets taken from the Gaussian program.
                 Note: Li and B from J. D. Dill and J. A. Pople, J. Chem. Phys. 62, 2921 (1975).
   Na - Ar     : M. M. Francl, W. J. Pietro, W. J. Hehre, J. S. Binkley, M. S. Gordon, 
                 D. J. DeFrees and J. A. Pople, J. Chem. Phys. 77, 3654 (1982).
   K - Zn      : V. A. Rassolov, J. A. Pople, M. A. Ratner, and T. L. Windus, J. Chem. Phys. 109, 1223 (1998).

================================================================================
                                        WARNINGS
                       Please study these warnings very carefully!
================================================================================

Warning: TCutStore was < 0. Adjusted to Thresh (uncritical)

INFO   : the flag for use of LIBINT has been found!

================================================================================
                                       INPUT FILE
================================================================================
NAME = initial20.inp
|  1> ! WB97X-D3 6-31G(d) VerySlowConv
|  2> ! KDIIS NOSOSCF
|  3> %base "Scan_20"
|  4> 
|  5> %scf
|  6> maxiter 999
|  7> end
|  8> 
|  9> * xyz 0 1
| 10> C         -3.451928671349    2.555964627968   -0.000000027337
| 11> C         -1.072581004039    2.701275459049    0.000000083341
| 12> H         -3.750449255576    3.621480924232   -0.000000082714
| 13> H         -0.774061069037    1.635758988751    0.000000026711
| 14> **                         ****END OF INPUT****
================================================================================

                       ****************************
                       * Single Point Calculation *
                       ****************************

---------------------------------
CARTESIAN COORDINATES (ANGSTROEM)
---------------------------------
  C     -3.451929    2.555965   -0.000000
  C     -1.072581    2.701275    0.000000
  H     -3.750449    3.621481   -0.000000
  H     -0.774061    1.635759    0.000000

----------------------------
CARTESIAN COORDINATES (A.U.)
----------------------------
  NO LB      ZA    FRAG     MASS         X           Y           Z
   0 C     6.0000    0    12.011   -6.523200    4.830073   -0.000000
   1 C     6.0000    0    12.011   -2.026884    5.104671    0.000000
   2 H     1.0000    0     1.008   -7.087322    6.843607   -0.000000
   3 H     1.0000    0     1.008   -1.462763    3.091137    0.000000

--------------------------------
INTERNAL COORDINATES (ANGSTROEM)
--------------------------------
 C      0   0   0     0.000000000000     0.00000000     0.00000000
 C      1   0   0     2.383780728079     0.00000000     0.00000000
 H      1   2   0     1.106543951595   102.15621249     0.00000000
 H      2   1   3     1.106543944030   102.15617769   180.00000598

---------------------------
INTERNAL COORDINATES (A.U.)
---------------------------
 C      0   0   0     0.000000000000     0.00000000     0.00000000
 C      1   0   0     4.504692739390     0.00000000     0.00000000
 H      1   2   0     2.091065023661   102.15621249     0.00000000
 H      2   1   3     2.091065009366   102.15617769   180.00000598

---------------------
BASIS SET INFORMATION
---------------------
There are 2 groups of distinct atoms

 Group   1 Type C   : 10s4p1d contracted to 3s2p1d pattern {631/31/1}
 Group   2 Type H   : 4s contracted to 2s pattern {31}

Atom   0C    basis set group =>   1
Atom   1C    basis set group =>   1
Atom   2H    basis set group =>   2
Atom   3H    basis set group =>   2
------------------------------------------------------------------------------
                           ORCA GTO INTEGRAL CALCULATION
------------------------------------------------------------------------------

                         BASIS SET STATISTICS AND STARTUP INFO

 # of primitive gaussian shells          ...   38
 # of primitive gaussian functions       ...   62
 # of contracted shells                  ...   16
 # of contracted basis functions         ...   32
 Highest angular momentum                ...    2
 Maximum contraction depth               ...    6
 Integral package used                   ... LIBINT
 Integral threshhold            Thresh   ...  1.000e-10
 Primitive cut-off              TCut     ...  1.000e-11


------------------------------ INTEGRAL EVALUATION ----------------------------


 * One electron integrals 
 Pre-screening matrix                    ... done
 Shell pair data                         ... done (   0.000 sec)

-------------------------------------------------------------------------------
                                 ORCA SCF
-------------------------------------------------------------------------------

------------
SCF SETTINGS
------------
Hamiltonian:
 Density Functional     Method          .... DFT(GTOs)
 Exchange Functional    Exchange        .... WB97X-D3
 Correlation Functional Correlation     .... WB97X-D3
 Gradients option       PostSCFGGA      .... off
 Hybrid DFT is turned on
   Fraction HF Exchange ScalHFX         ....  0.195728
   Scaling of DF-GGA-X  ScalDFX         ....  0.000000
   Scaling of DF-GGA-C  ScalDFC         ....  1.000000
   Scaling of DF-LDA-C  ScalLDAC        ....  1.000000
   Perturbative correction              ....  0.000000
 Long-range corrected/Screened/Range-Separated Hybrid DFT is turned on
   Amount of maximum screened exact exchange              ....  0.804272
   Range separation parameter mu (erf(mu*r12)/r12)        ....  0.250000


General Settings:
 Integral files         IntName         .... Scan_20
 Hartree-Fock type      HFTyp           .... RHF
 Total Charge           Charge          ....    0
 Multiplicity           Mult            ....    1
 Number of Electrons    NEL             ....   14
 Basis Dimension        Dim             ....   32
 Nuclear Repulsion      ENuc            ....     16.1208881627 Eh

Convergence Acceleration:
 DIIS                   CNVDIIS         .... on
   Start iteration      DIISMaxIt       ....     0
   Startup error        DIISStart       ....  0.200000
   # of expansion vecs  DIISMaxEq       ....     5
   Bias factor          DIISBfac        ....   1.050
   Max. coefficient     DIISMaxC        ....  10.000
 Newton-Raphson         CNVNR           .... off
 SOSCF                  CNVSOSCF        .... off
 Level Shifting         CNVShift        .... off
 Zerner damping         CNVZerner       .... off
 Static damping         CNVDamp         .... off
 Fernandez-Rico         CNVRico         .... off

SCF Procedure:
 Maximum # iterations   MaxIter         ....   999
 SCF integral mode      SCFMode         .... Direct
   Integral package                     .... LIBINT
 Reset frequeny         DirectResetFreq ....    20
 Integral Threshold     Thresh          ....  1.000e-10 Eh
 Primitive CutOff       TCut            ....  1.000e-11 Eh

Convergence Tolerance:
 Convergence Check Mode ConvCheckMode   .... All-Criteria
 Convergence forced     ConvForced      .... 0
 Energy Change          TolE            ....  1.000e-06 Eh
 Max Density Change     TolMaxP         ....  1.000e-05
 RMS Density Change     TolRMSP         ....  1.000e-06
 DIIS Error             TolErr          ....  1.000e-06


Diagonalization of the overlap matrix:
Smallest eigenvalue                        ... 3.941e-02
Time for diagonalization                   ...    0.001 sec
Threshold for overlap eigenvalues          ... 1.000e-08
Number of eigenvalues below threshold      ... 0
Time for construction of square roots      ...    0.005 sec
Total time needed                          ...    0.005 sec

-------------------
DFT GRID GENERATION
-------------------

General Integration Accuracy     IntAcc      ...  4.340
Radial Grid Type                 RadialGrid  ... Gauss-Chebyshev
Angular Grid (max. acc.)         AngularGrid ... Lebedev-110
Angular grid pruning method      GridPruning ... 3 (G Style)
Weight generation scheme         WeightScheme... Becke
Basis function cutoff            BFCut       ...    1.0000e-10
Integration weight cutoff        WCut        ...    1.0000e-14
Grids for H and He will be reduced by one unit

# of grid points (after initial pruning)     ...   4900 (   0.0 sec)
# of grid points (after weights+screening)   ...   4872 (   0.0 sec)
nearest neighbour list constructed           ...    0.0 sec
Grid point re-assignment to atoms done       ...    0.0 sec
Grid point division into batches done        ...    0.0 sec
Reduced shell lists constructed in    0.0 sec

Total number of grid points                  ...     4872
Total number of batches                      ...       78
Average number of points per batch           ...       62
Average number of grid points per atom       ...     1218
Average number of shells per batch           ...    13.77 (86.08%)
Average number of basis functions per batch  ...    28.18 (88.05%)
Average number of large shells per batch     ...    11.89 (86.31%)
Average number of large basis fcns per batch ...    24.34 (86.39%)
Maximum spatial batch extension              ...  22.09, 17.60, 31.36 au
Average spatial batch extension              ...   6.32,  4.93,  6.96 au

Time for grid setup =    0.060 sec

------------------------------
INITIAL GUESS: MODEL POTENTIAL
------------------------------
Loading Hartree-Fock densities                     ... done
Calculating cut-offs                               ... done
Setting up the integral package                    ... done
Initializing the effective Hamiltonian             ... done
Starting the Coulomb interaction                   ... done (   0.0 sec)
Reading the grid                                   ... done
Mapping shells                                     ... done
Starting the XC term evaluation                    ... done (   0.1 sec)
  promolecular density results
     # of electrons  =     13.997222876
     EX              =    -10.527809169
     EC              =     -0.387769170
     EX+EC           =    -10.915578340
Transforming the Hamiltonian                       ... done (   0.0 sec)
Diagonalizing the Hamiltonian                      ... done (   0.0 sec)
Back transforming the eigenvectors                 ... done (   0.0 sec)
Now organizing SCF variables                       ... done
                      ------------------
                      INITIAL GUESS DONE (   0.3 sec)
                      ------------------
--------------
SCF ITERATIONS
--------------
ITER       Energy         Delta-E        Max-DP      RMS-DP      [F,P]   Gradient Norm
               ***  Starting incremental Fock matrix formation  ***
                             ****Resetting KDIIS****
                             ****Turning on KDIIS(Cayley)****
  0    -76.9379872893   0.000000000000 0.00532308  0.00044461  0.0249288   0.026753538
  1    -76.9389908745  -0.001003585211 0.00665479  0.00070833  0.0225296   0.024062424
  2    -76.9404513330  -0.001460458540 0.01123011  0.00122873  0.0180167   0.019352493
  3    -76.9422093450  -0.001758011975 0.01645547  0.00186753  0.0108167   0.011633849
  4    -76.9432098853  -0.001000540288 0.00019792  0.00002291  0.0001095   0.000064414
                          ***Energy convergence achieved***
  5    -76.9432100185  -0.000000133243 0.00006972  0.00000686  0.0000172   0.000016594

            ***Energy convergence in two consecutive cycles with***
                    ***'reasonable' density convergence***
                       *** signaling convergence ***

                    *** KDIIS BlockDiag ( 0.000 sec) ***

               *****************************************************
               *                     SUCCESS                       *
               *           SCF CONVERGED AFTER   6 CYCLES          *
               *****************************************************

Setting up the final grid:

General Integration Accuracy     IntAcc      ...  4.670
Radial Grid Type                 RadialGrid  ... Gauss-Chebyshev
Angular Grid (max. acc.)         AngularGrid ... Lebedev-302
Angular grid pruning method      GridPruning ... 3 (G Style)
Weight generation scheme         WeightScheme... Becke
Basis function cutoff            BFCut       ...    1.0000e-10
Integration weight cutoff        WCut        ...    1.0000e-14
Grids for H and He will be reduced by one unit

# of grid points (after initial pruning)     ...  19212 (   0.0 sec)
# of grid points (after weights+screening)   ...  18986 (   0.1 sec)
nearest neighbour list constructed           ...    0.0 sec
Grid point re-assignment to atoms done       ...    0.0 sec
Grid point division into batches done        ...    0.2 sec
Reduced shell lists constructed in    0.3 sec

Total number of grid points                  ...    18986
Total number of batches                      ...      298
Average number of points per batch           ...       63
Average number of grid points per atom       ...     4746
Average number of shells per batch           ...    12.13 (75.82%)
Average number of basis functions per batch  ...    25.07 (78.33%)
Average number of large shells per batch     ...    10.45 (86.19%)
Average number of large basis fcns per batch ...    21.36 (85.20%)
Maximum spatial batch extension              ...  18.86, 21.67, 20.64 au
Average spatial batch extension              ...   3.80,  3.48,  3.97 au

Final grid set up in    0.5 sec
Final integration                            ... done (   0.4 sec)
Change in XC energy                          ...     0.000545670
Integrated number of electrons               ...    13.999989763
Previous integrated no of electrons          ...    14.000511620

----------------
TOTAL SCF ENERGY
----------------

Total Energy       :          -76.94266435 Eh           -2093.71634 eV

Components:
Nuclear Repulsion  :           16.12088816 Eh             438.67167 eV
Electronic Energy  :          -93.06355252 Eh           -2532.38801 eV
One Electron Energy:         -134.24876630 Eh           -3653.09465 eV
Two Electron Energy:           41.18521378 Eh            1120.70664 eV

Virial components:
Potential Energy   :         -153.27469254 Eh           -4170.81642 eV
Kinetic Energy     :           76.33202819 Eh            2077.10008 eV
Virial Ratio       :            2.00799974


DFT components:
N(Alpha)           :        6.999994881482 electrons
N(Beta)            :        6.999994881482 electrons
N(Total)           :       13.999989762964 electrons
E(XC)              :       -7.613489413016 Eh       

---------------
SCF CONVERGENCE
---------------

  Last Energy change         ...   -5.8488e-09  Tolerance :   1.0000e-06
  Last MAX-Density change    ...    1.6182e-05  Tolerance :   1.0000e-05
  Last RMS-Density change    ...    1.6218e-06  Tolerance :   1.0000e-06
  Last DIIS Error            ...    3.3675e-06  Tolerance :   1.0000e-06

             **** THE GBW FILE WAS UPDATED (Scan_20.gbw) ****
             **** DENSITY FILE WAS UPDATED (Scan_20.scfp.tmp) ****
             **** ENERGY FILE WAS UPDATED (Scan_20.en.tmp) ****
----------------
ORBITAL ENERGIES
----------------

  NO   OCC          E(Eh)            E(eV) 
   0   2.0000     -10.393476      -282.8209 
   1   2.0000     -10.393473      -282.8208 
   2   2.0000      -0.757148       -20.6030 
   3   2.0000      -0.719027       -19.5657 
   4   2.0000      -0.419862       -11.4250 
   5   2.0000      -0.396997       -10.8029 
   6   2.0000      -0.295302        -8.0356 
   7   0.0000      -0.050464        -1.3732 
   8   0.0000      -0.003568        -0.0971 
   9   0.0000       0.033485         0.9112 
  10   0.0000       0.219001         5.9593 
  11   0.0000       0.242612         6.6018 
  12   0.0000       0.607118        16.5205 
  13   0.0000       0.625488        17.0204 
  14   0.0000       0.659833        17.9550 
  15   0.0000       0.707789        19.2599 
  16   0.0000       0.711315        19.3559 
  17   0.0000       0.736838        20.0504 
  18   0.0000       0.776378        21.1263 
  19   0.0000       0.982837        26.7444 
  20   0.0000       0.983815        26.7710 
  21   0.0000       1.027684        27.9647 
  22   0.0000       1.731179        47.1078 
  23   0.0000       1.753112        47.7046 
  24   0.0000       1.756422        47.7947 
  25   0.0000       1.766638        48.0727 
  26   0.0000       1.772099        48.2213 
  27   0.0000       1.811838        49.3026 
  28   0.0000       1.817947        49.4689 
  29   0.0000       2.014714        54.8232 
  30   0.0000       2.223363        60.5008 
  31   0.0000       2.225455        60.5577 

                    ********************************
                    * MULLIKEN POPULATION ANALYSIS *
                    ********************************

-----------------------
MULLIKEN ATOMIC CHARGES
-----------------------
   0 C :   -0.165631
   1 C :   -0.165630
   2 H :    0.165631
   3 H :    0.165631
Sum of atomic charges:   -0.0000000

--------------------------------
MULLIKEN REDUCED ORBITAL CHARGES
--------------------------------
  0 C s       :     3.882063  s :     3.882063
      pz      :     0.000000  p :     2.267761
      px      :     0.993045
      py      :     1.274716
      dz2     :     0.003878  d :     0.015807
      dxz     :     0.000000
      dyz     :     0.000000
      dx2y2   :     0.009308
      dxy     :     0.002622
  1 C s       :     3.882063  s :     3.882063
      pz      :     0.000000  p :     2.267761
      px      :     0.993045
      py      :     1.274716
      dz2     :     0.003878  d :     0.015807
      dxz     :     0.000000
      dyz     :     0.000000
      dx2y2   :     0.009308
      dxy     :     0.002622
  2 H s       :     0.834369  s :     0.834369
  3 H s       :     0.834369  s :     0.834369


                     *******************************
                     * LOEWDIN POPULATION ANALYSIS *
                     *******************************

----------------------
LOEWDIN ATOMIC CHARGES
----------------------
   0 C :   -0.114611
   1 C :   -0.114611
   2 H :    0.114611
   3 H :    0.114611

-------------------------------
LOEWDIN REDUCED ORBITAL CHARGES
-------------------------------
  0 C s       :     3.695628  s :     3.695628
      pz      :     0.000000  p :     2.397255
      px      :     1.019167
      py      :     1.378089
      dz2     :     0.005231  d :     0.021728
      dxz     :     0.000000
      dyz     :     0.000000
      dx2y2   :     0.012814
      dxy     :     0.003683
  1 C s       :     3.695628  s :     3.695628
      pz      :     0.000000  p :     2.397255
      px      :     1.019166
      py      :     1.378088
      dz2     :     0.005231  d :     0.021728
      dxz     :     0.000000
      dyz     :     0.000000
      dx2y2   :     0.012814
      dxy     :     0.003683
  2 H s       :     0.885389  s :     0.885389
  3 H s       :     0.885389  s :     0.885389


                      *****************************
                      * MAYER POPULATION ANALYSIS *
                      *****************************

  NA   - Mulliken gross atomic population
  ZA   - Total nuclear charge
  QA   - Mulliken gross atomic charge
  VA   - Mayer's total valence
  BVA  - Mayer's bonded valence
  FA   - Mayer's free valence

  ATOM       NA         ZA         QA         VA         BVA        FA
  0 C      6.1656     6.0000    -0.1656     1.9056     1.9056    -0.0000
  1 C      6.1656     6.0000    -0.1656     1.9056     1.9056     0.0000
  2 H      0.8344     1.0000     0.1656     0.9058     0.9058    -0.0000
  3 H      0.8344     1.0000     0.1656     0.9058     0.9058     0.0000

  Mayer bond orders larger than 0.1
B(  0-C ,  1-C ) :   1.0001 B(  0-C ,  2-H ) :   0.9034 B(  1-C ,  3-H ) :   0.9034 


-------
TIMINGS
-------

Total SCF time: 0 days 0 hours 0 min 7 sec 

Total time                  ....       7.461 sec
Sum of individual times     ....       7.097 sec  ( 95.1%)

Fock matrix formation       ....       5.790 sec  ( 77.6%)
  XC integration            ....       1.283 sec  ( 22.2% of F)
    Basis function eval.    ....       0.347 sec  ( 27.1% of XC)
    Density eval.           ....       0.122 sec  (  9.5% of XC)
    XC-Functional eval.     ....       0.267 sec  ( 20.8% of XC)
    XC-Potential eval.      ....       0.028 sec  (  2.2% of XC)
Diagonalization             ....       0.428 sec  (  5.7%)
Density matrix formation    ....       0.000 sec  (  0.0%)
Population analysis         ....       0.050 sec  (  0.7%)
Initial guess               ....       0.298 sec  (  4.0%)
Orbital Transformation      ....       0.000 sec  (  0.0%)
Orbital Orthonormalization  ....       0.000 sec  (  0.0%)
DIIS solution               ....       0.000 sec  (  0.0%)
Grid generation             ....       0.530 sec  (  7.1%)


-------------------------------------------------------------------------------
                          DFT DISPERSION CORRECTION                            
                                                                               
                              DFTD3 V3.1  Rev 1                                
                              USING zero damping                               
-------------------------------------------------------------------------------
The omegaB97X-D3 functional is recognized. Fit by Chai et al.
Active option DFTDOPT                   ...         3   

molecular C6(AA) [au] = 275.601398 


            DFT-D V3
 parameters
 s6 scaling factor         :     1.0000 
 rs6 scaling factor        :     1.2810 
 s8 scaling factor         :     1.0000 
 rs8 scaling factor        :     1.0940 
 Damping factor alpha6     :    14.0000 
 Damping factor alpha8     :    16.0000 
 ad hoc parameters k1-k3   :    16.0000     1.3333    -4.0000 

 Edisp/kcal,au: -0.169524402847  -0.000270154303 
 E6   /kcal   :  -0.041521352 
 E8   /kcal   :  -0.128003051 
 % E8         :  75.507153475 

-------------------------   ----------------
Dispersion correction           -0.000270154
-------------------------   ----------------


-------------------------   --------------------
FINAL SINGLE POINT ENERGY       -76.942934509001
-------------------------   --------------------


                            ***************************************
                            *     ORCA property calculations      *
                            ***************************************

                                    ---------------------
                                    Active property flags
                                    ---------------------
   (+) Dipole Moment


------------------------------------------------------------------------------
                       ORCA ELECTRIC PROPERTIES CALCULATION
------------------------------------------------------------------------------

Dipole Moment Calculation                       ... on
Quadrupole Moment Calculation                   ... off
Polarizability Calculation                      ... off
GBWName                                         ... Scan_20.gbw
Electron density file                           ... Scan_20.scfp.tmp

-------------
DIPOLE MOMENT
-------------
                                X             Y             Z
Electronic contribution:      0.00000       0.00000       0.00000
Nuclear contribution   :     -0.00000      -0.00000      -0.00000
                        -----------------------------------------
Total Dipole Moment    :      0.00000       0.00000      -0.00000
                        -----------------------------------------
Magnitude (a.u.)       :      0.00000
Magnitude (Debye)      :      0.00000


Timings for individual modules:

Sum of individual times         ...        8.731 sec (=   0.146 min)
GTO integral calculation        ...        0.996 sec (=   0.017 min)  11.4 %
SCF iterations                  ...        7.735 sec (=   0.129 min)  88.6 %
                             ****ORCA TERMINATED NORMALLY****
TOTAL RUN TIME: 0 days 0 hours 0 minutes 10 seconds 491 msec
