
                                 *****************
                                 * O   R   C   A *
                                 *****************

           --- An Ab Initio, DFT and Semiempirical electronic structure package ---

                  #######################################################
                  #                        -***-                        #
                  #  Department of molecular theory and spectroscopy    #
                  #              Directorship: Frank Neese              #
                  # Max Planck Institute for Chemical Energy Conversion #
                  #                  D-45470 Muelheim/Ruhr              #
                  #                       Germany                       #
                  #                                                     #
                  #                  All rights reserved                #
                  #                        -***-                        #
                  #######################################################


                         Program Version 4.0.0.2 - RELEASE -


 With contributions from (in alphabetic order):
   Daniel Aravena         : Magnetic Properties
   Michael Atanasov       : Ab Initio Ligand Field Theory
   Ute Becker             : Parallelization
   Martin Brehm           : Molecular dynamics
   Dmytro Bykov           : SCF Hessian
   Vijay G. Chilkuri      : MRCI spin determinant printing
   Dipayan Datta          : RHF DLPNO-CCSD density
   Achintya Kumar Dutta   : EOM-CC, STEOM-CC
   Dmitry Ganyushin       : Spin-Orbit,Spin-Spin,Magnetic field MRCI
   Yang Guo               : DLPNO-NEVPT2, CIM, IAO-localization
   Andreas Hansen         : Spin unrestricted coupled pair/coupled cluster methods
   Lee Huntington         : MR-EOM, pCC
   Robert Izsak           : Overlap fitted RIJCOSX, COSX-SCS-MP3, EOM
   Christian Kollmar      : KDIIS, OOCD, Brueckner-CCSD(T), CCSD density
   Simone Kossmann        : Meta GGA functionals, TD-DFT gradient, OOMP2, MP2 Hessian
   Martin Krupicka        : AUTO-CI
   Dagmar Lenk            : GEPOL surface
   Dimitrios Liakos       : Extrapolation schemes; parallel MDCI
   Dimitrios Manganas     : ROCIS; embedding schemes
   Dimitrios Pantazis     : SARC Basis sets
   Taras Petrenko         : DFT Hessian,TD-DFT gradient, ASA, ECA, R-Raman, ABS, FL, XAS/XES, NRVS
   Peter Pinski           : DLPNO-MP2
   Christoph Reimann      : Effective Core Potentials
   Marius Retegan         : Local ZFS, SOC
   Christoph Riplinger    : Optimizer, TS searches, QM/MM, DLPNO-CCSD(T), (RO)-DLPNO pert. Triples
   Tobias Risthaus        : Range-separated hybrids, TD-DFT gradient, RPA, STAB
   Michael Roemelt        : Restricted open shell CIS
   Masaaki Saitow         : Open-shell DLPNO
   Barbara Sandhoefer     : DKH picture change effects
   Kantharuban Sivalingam : CASSCF convergence, NEVPT2, FIC-MRCI
   Georgi Stoychev        : AutoAux
   Boris Wezisla          : Elementary symmetry handling
   Frank Wennmohs         : Technical directorship


 We gratefully acknowledge several colleagues who have allowed us to
 interface, adapt or use parts of their codes:
   Stefan Grimme, W. Hujo, H. Kruse,             : VdW corrections, initial TS optimization,
                  C. Bannwarth                     DFT functionals, gCP, sTDA/sTD-DF
   Ed Valeev                                     : LibInt (2-el integral package), F12 methods
   Garnet Chan, S. Sharma, J. Yang, R. Olivares  : DMRG
   Ulf Ekstrom                                   : XCFun DFT Library
   Mihaly Kallay                                 : mrcc  (arbitrary order and MRCC methods)
   Jiri Pittner, Ondrej Demel                    : Mk-CCSD
   Frank Weinhold                                : gennbo (NPA and NBO analysis)
   Christopher J. Cramer and Donald G. Truhlar   : smd solvation model


 Your calculation uses the libint2 library for the computation of 2-el integrals
 For citations please refer to: http://libint.valeyev.net

 This ORCA versions uses:
   CBLAS   interface :  Fast vector & matrix operations
   LAPACKE interface :  Fast linear algebra routines
   SCALAPACK package :  Parallel linear algebra routines


Your calculation utilizes the atom-pairwise dispersion correction
with the zero-damping scheme (D30)
Cite in your paper:
S.Grimme, J.Antony, S.Ehrlich and H.Krieg, J.Chem.Phys., 132, (2010), 154104 
   

XCFun DFT library Copyright 2009-2010 Ulf Ekstrom and contributors.
See http://admol.org/xcfun for more information. This is free soft-
ware; see the source code for copying conditions. There is ABSOLUTELY
NO WARRANTY; not even for MERCHANTABILITY or FITNESS FOR A PARTICULAR
PURPOSE. For details see the documentation. Scientific users of this 
library should cite U. Ekstrom, L. Visscher, R. Bast, A. J. Thorvald-
sen and K. Ruud; J.Chem.Theor.Comp. 2010, DOI: 10.1021/ct100117s
XCFun Version 0.99 
Your calculation utilizes the basis: 6-31G(d)
   H-He, Li-Ne : W. J. Hehre, R. Ditchfield and J.A. Pople, J. Chem. Phys. 56, 2257 (1972).
                 Note: He and Ne are unpublished basis sets taken from the Gaussian program.
                 Note: Li and B from J. D. Dill and J. A. Pople, J. Chem. Phys. 62, 2921 (1975).
   Na - Ar     : M. M. Francl, W. J. Pietro, W. J. Hehre, J. S. Binkley, M. S. Gordon, 
                 D. J. DeFrees and J. A. Pople, J. Chem. Phys. 77, 3654 (1982).
   K - Zn      : V. A. Rassolov, J. A. Pople, M. A. Ratner, and T. L. Windus, J. Chem. Phys. 109, 1223 (1998).

================================================================================
                                        WARNINGS
                       Please study these warnings very carefully!
================================================================================

Warning: TCutStore was < 0. Adjusted to Thresh (uncritical)

INFO   : the flag for use of LIBINT has been found!

================================================================================
                                       INPUT FILE
================================================================================
NAME = initial21.inp
|  1> ! WB97X-D3 6-31G(d) VerySlowConv
|  2> ! KDIIS NOSOSCF
|  3> %base "Scan_21"
|  4> 
|  5> %scf
|  6> maxiter 999
|  7> end
|  8> 
|  9> * xyz 0 1
| 10> C         -3.509408589344    2.556039236111   -0.000000146162
| 11> C         -1.015101526302    2.701200745210   -0.000000030232
| 12> H         -3.771472316463    3.632640920295    0.000000032673
| 13> H         -0.753037567892    1.624599098384    0.000000143721
| 14> **                         ****END OF INPUT****
================================================================================

                       ****************************
                       * Single Point Calculation *
                       ****************************

---------------------------------
CARTESIAN COORDINATES (ANGSTROEM)
---------------------------------
  C     -3.509409    2.556039   -0.000000
  C     -1.015102    2.701201   -0.000000
  H     -3.771472    3.632641    0.000000
  H     -0.753038    1.624599    0.000000

----------------------------
CARTESIAN COORDINATES (A.U.)
----------------------------
  NO LB      ZA    FRAG     MASS         X           Y           Z
   0 C     6.0000    0    12.011   -6.631821    4.830214   -0.000000
   1 C     6.0000    0    12.011   -1.918264    5.104530   -0.000000
   2 H     1.0000    0     1.008   -7.127050    6.864696    0.000000
   3 H     1.0000    0     1.008   -1.423035    3.070047    0.000000

--------------------------------
INTERNAL COORDINATES (ANGSTROEM)
--------------------------------
 C      0   0   0     0.000000000000     0.00000000     0.00000000
 C      1   0   0     2.498527484032     0.00000000     0.00000000
 H      1   2   0     1.108038168774   100.35004204     0.00000000
 H      2   1   3     1.108038187179   100.35005412   179.99998147

---------------------------
INTERNAL COORDINATES (A.U.)
---------------------------
 C      0   0   0     0.000000000000     0.00000000     0.00000000
 C      1   0   0     4.721532682896     0.00000000     0.00000000
 H      1   2   0     2.093888684914   100.35004204     0.00000000
 H      2   1   3     2.093888719694   100.35005412   179.99998147

---------------------
BASIS SET INFORMATION
---------------------
There are 2 groups of distinct atoms

 Group   1 Type C   : 10s4p1d contracted to 3s2p1d pattern {631/31/1}
 Group   2 Type H   : 4s contracted to 2s pattern {31}

Atom   0C    basis set group =>   1
Atom   1C    basis set group =>   1
Atom   2H    basis set group =>   2
Atom   3H    basis set group =>   2
------------------------------------------------------------------------------
                           ORCA GTO INTEGRAL CALCULATION
------------------------------------------------------------------------------

                         BASIS SET STATISTICS AND STARTUP INFO

 # of primitive gaussian shells          ...   38
 # of primitive gaussian functions       ...   62
 # of contracted shells                  ...   16
 # of contracted basis functions         ...   32
 Highest angular momentum                ...    2
 Maximum contraction depth               ...    6
 Integral package used                   ... LIBINT
 Integral threshhold            Thresh   ...  1.000e-10
 Primitive cut-off              TCut     ...  1.000e-11


------------------------------ INTEGRAL EVALUATION ----------------------------


 * One electron integrals 
 Pre-screening matrix                    ... done
 Shell pair data                         ... done (   0.000 sec)

-------------------------------------------------------------------------------
                                 ORCA SCF
-------------------------------------------------------------------------------

------------
SCF SETTINGS
------------
Hamiltonian:
 Density Functional     Method          .... DFT(GTOs)
 Exchange Functional    Exchange        .... WB97X-D3
 Correlation Functional Correlation     .... WB97X-D3
 Gradients option       PostSCFGGA      .... off
 Hybrid DFT is turned on
   Fraction HF Exchange ScalHFX         ....  0.195728
   Scaling of DF-GGA-X  ScalDFX         ....  0.000000
   Scaling of DF-GGA-C  ScalDFC         ....  1.000000
   Scaling of DF-LDA-C  ScalLDAC        ....  1.000000
   Perturbative correction              ....  0.000000
 Long-range corrected/Screened/Range-Separated Hybrid DFT is turned on
   Amount of maximum screened exact exchange              ....  0.804272
   Range separation parameter mu (erf(mu*r12)/r12)        ....  0.250000


General Settings:
 Integral files         IntName         .... Scan_21
 Hartree-Fock type      HFTyp           .... RHF
 Total Charge           Charge          ....    0
 Multiplicity           Mult            ....    1
 Number of Electrons    NEL             ....   14
 Basis Dimension        Dim             ....   32
 Nuclear Repulsion      ENuc            ....     15.6841249126 Eh

Convergence Acceleration:
 DIIS                   CNVDIIS         .... on
   Start iteration      DIISMaxIt       ....     0
   Startup error        DIISStart       ....  0.200000
   # of expansion vecs  DIISMaxEq       ....     5
   Bias factor          DIISBfac        ....   1.050
   Max. coefficient     DIISMaxC        ....  10.000
 Newton-Raphson         CNVNR           .... off
 SOSCF                  CNVSOSCF        .... off
 Level Shifting         CNVShift        .... off
 Zerner damping         CNVZerner       .... off
 Static damping         CNVDamp         .... off
 Fernandez-Rico         CNVRico         .... off

SCF Procedure:
 Maximum # iterations   MaxIter         ....   999
 SCF integral mode      SCFMode         .... Direct
   Integral package                     .... LIBINT
 Reset frequeny         DirectResetFreq ....    20
 Integral Threshold     Thresh          ....  1.000e-10 Eh
 Primitive CutOff       TCut            ....  1.000e-11 Eh

Convergence Tolerance:
 Convergence Check Mode ConvCheckMode   .... All-Criteria
 Convergence forced     ConvForced      .... 0
 Energy Change          TolE            ....  1.000e-06 Eh
 Max Density Change     TolMaxP         ....  1.000e-05
 RMS Density Change     TolRMSP         ....  1.000e-06
 DIIS Error             TolErr          ....  1.000e-06


Diagonalization of the overlap matrix:
Smallest eigenvalue                        ... 4.065e-02
Time for diagonalization                   ...    0.001 sec
Threshold for overlap eigenvalues          ... 1.000e-08
Number of eigenvalues below threshold      ... 0
Time for construction of square roots      ...    0.011 sec
Total time needed                          ...    0.012 sec

-------------------
DFT GRID GENERATION
-------------------

General Integration Accuracy     IntAcc      ...  4.340
Radial Grid Type                 RadialGrid  ... Gauss-Chebyshev
Angular Grid (max. acc.)         AngularGrid ... Lebedev-110
Angular grid pruning method      GridPruning ... 3 (G Style)
Weight generation scheme         WeightScheme... Becke
Basis function cutoff            BFCut       ...    1.0000e-10
Integration weight cutoff        WCut        ...    1.0000e-14
Grids for H and He will be reduced by one unit

# of grid points (after initial pruning)     ...   4900 (   0.0 sec)
# of grid points (after weights+screening)   ...   4870 (   0.0 sec)
nearest neighbour list constructed           ...    0.0 sec
Grid point re-assignment to atoms done       ...    0.0 sec
Grid point division into batches done        ...    0.0 sec
Reduced shell lists constructed in    0.1 sec

Total number of grid points                  ...     4870
Total number of batches                      ...       78
Average number of points per batch           ...       62
Average number of grid points per atom       ...     1218
Average number of shells per batch           ...    13.59 (84.97%)
Average number of basis functions per batch  ...    27.80 (86.87%)
Average number of large shells per batch     ...    11.73 (86.31%)
Average number of large basis fcns per batch ...    23.76 (85.47%)
Maximum spatial batch extension              ...  21.89, 17.94, 31.36 au
Average spatial batch extension              ...   6.17,  5.02,  6.92 au

Time for grid setup =    0.075 sec

------------------------------
INITIAL GUESS: MODEL POTENTIAL
------------------------------
Loading Hartree-Fock densities                     ... done
Calculating cut-offs                               ... done
Setting up the integral package                    ... done
Initializing the effective Hamiltonian             ... done
Starting the Coulomb interaction                   ... done (   0.0 sec)
Reading the grid                                   ... done
Mapping shells                                     ... done
Starting the XC term evaluation                    ... done (   0.1 sec)
  promolecular density results
     # of electrons  =     13.997243750
     EX              =    -10.524111494
     EC              =     -0.386156443
     EX+EC           =    -10.910267936
Transforming the Hamiltonian                       ... done (   0.0 sec)
Diagonalizing the Hamiltonian                      ... done (   0.0 sec)
Back transforming the eigenvectors                 ... done (   0.0 sec)
Now organizing SCF variables                       ... done
                      ------------------
                      INITIAL GUESS DONE (   0.4 sec)
                      ------------------
--------------
SCF ITERATIONS
--------------
ITER       Energy         Delta-E        Max-DP      RMS-DP      [F,P]   Gradient Norm
               ***  Starting incremental Fock matrix formation  ***
                             ****Resetting KDIIS****
                             ****Turning on KDIIS(Cayley)****
  0    -76.9272380121   0.000000000000 0.00517815  0.00043654  0.0252653   0.025976723
  1    -76.9281913976  -0.000953385496 0.00642869  0.00070812  0.0228260   0.023396405
  2    -76.9296075110  -0.001416113346 0.01098496  0.00124048  0.0182547   0.018823439
  3    -76.9313279272  -0.001720416230 0.01608834  0.00188882  0.0109557   0.011307782
  4    -76.9323071329  -0.000979205690 0.00022213  0.00002703  0.0001125   0.000071497
                          ***Energy convergence achieved***
  5    -76.9323072974  -0.000000164492 0.00006532  0.00000641  0.0000180   0.000017079

            ***Energy convergence in two consecutive cycles with***
                    ***'reasonable' density convergence***
                       *** signaling convergence ***

                    *** KDIIS BlockDiag ( 0.000 sec) ***

               *****************************************************
               *                     SUCCESS                       *
               *           SCF CONVERGED AFTER   6 CYCLES          *
               *****************************************************

Setting up the final grid:

General Integration Accuracy     IntAcc      ...  4.670
Radial Grid Type                 RadialGrid  ... Gauss-Chebyshev
Angular Grid (max. acc.)         AngularGrid ... Lebedev-302
Angular grid pruning method      GridPruning ... 3 (G Style)
Weight generation scheme         WeightScheme... Becke
Basis function cutoff            BFCut       ...    1.0000e-10
Integration weight cutoff        WCut        ...    1.0000e-14
Grids for H and He will be reduced by one unit

# of grid points (after initial pruning)     ...  19212 (   0.0 sec)
# of grid points (after weights+screening)   ...  18986 (   0.0 sec)
nearest neighbour list constructed           ...    0.0 sec
Grid point re-assignment to atoms done       ...    0.0 sec
Grid point division into batches done        ...    0.1 sec
Reduced shell lists constructed in    0.5 sec

Total number of grid points                  ...    18986
Total number of batches                      ...      300
Average number of points per batch           ...       63
Average number of grid points per atom       ...     4746
Average number of shells per batch           ...    12.13 (75.79%)
Average number of basis functions per batch  ...    25.10 (78.43%)
Average number of large shells per batch     ...    10.31 (85.04%)
Average number of large basis fcns per batch ...    20.80 (82.90%)
Maximum spatial batch extension              ...  18.86, 20.87, 20.64 au
Average spatial batch extension              ...   3.81,  3.39,  3.94 au

Final grid set up in    0.5 sec
Final integration                            ... done (   0.4 sec)
Change in XC energy                          ...     0.000624266
Integrated number of electrons               ...    13.999988034
Previous integrated no of electrons          ...    14.000590340

----------------
TOTAL SCF ENERGY
----------------

Total Energy       :          -76.93168304 Eh           -2093.41752 eV

Components:
Nuclear Repulsion  :           15.68412491 Eh             426.78674 eV
Electronic Energy  :          -92.61580795 Eh           -2520.20426 eV
One Electron Energy:         -133.36133958 Eh           -3628.94654 eV
Two Electron Energy:           40.74553163 Eh            1108.74228 eV

Virial components:
Potential Energy   :         -153.25405930 Eh           -4170.25497 eV
Kinetic Energy     :           76.32237627 Eh            2076.83744 eV
Virial Ratio       :            2.00798333


DFT components:
N(Alpha)           :        6.999994017036 electrons
N(Beta)            :        6.999994017036 electrons
N(Total)           :       13.999988034073 electrons
E(XC)              :       -7.605147789351 Eh       

---------------
SCF CONVERGENCE
---------------

  Last Energy change         ...   -4.6252e-09  Tolerance :   1.0000e-06
  Last MAX-Density change    ...    1.5153e-05  Tolerance :   1.0000e-05
  Last RMS-Density change    ...    1.4595e-06  Tolerance :   1.0000e-06
  Last DIIS Error            ...    3.6314e-06  Tolerance :   1.0000e-06

             **** THE GBW FILE WAS UPDATED (Scan_21.gbw) ****
             **** DENSITY FILE WAS UPDATED (Scan_21.scfp.tmp) ****
             **** ENERGY FILE WAS UPDATED (Scan_21.en.tmp) ****
----------------
ORBITAL ENERGIES
----------------

  NO   OCC          E(Eh)            E(eV) 
   0   2.0000     -10.396133      -282.8932 
   1   2.0000     -10.396129      -282.8930 
   2   2.0000      -0.753428       -20.5018 
   3   2.0000      -0.722060       -19.6483 
   4   2.0000      -0.414167       -11.2700 
   5   2.0000      -0.398558       -10.8453 
   6   2.0000      -0.293383        -7.9833 
   7   0.0000      -0.046970        -1.2781 
   8   0.0000      -0.008100        -0.2204 
   9   0.0000       0.016668         0.4536 
  10   0.0000       0.218041         5.9332 
  11   0.0000       0.241923         6.5831 
  12   0.0000       0.608575        16.5602 
  13   0.0000       0.623295        16.9607 
  14   0.0000       0.664079        18.0705 
  15   0.0000       0.706069        19.2131 
  16   0.0000       0.710378        19.3304 
  17   0.0000       0.719679        19.5835 
  18   0.0000       0.757263        20.6062 
  19   0.0000       0.979259        26.6470 
  20   0.0000       0.979553        26.6550 
  21   0.0000       1.033179        28.1142 
  22   0.0000       1.755157        47.7603 
  23   0.0000       1.755255        47.7629 
  24   0.0000       1.755958        47.7820 
  25   0.0000       1.769837        48.1597 
  26   0.0000       1.776564        48.3428 
  27   0.0000       1.797522        48.9131 
  28   0.0000       1.804725        49.1091 
  29   0.0000       1.955721        53.2179 
  30   0.0000       2.210140        60.1410 
  31   0.0000       2.230602        60.6978 

                    ********************************
                    * MULLIKEN POPULATION ANALYSIS *
                    ********************************

-----------------------
MULLIKEN ATOMIC CHARGES
-----------------------
   0 C :   -0.164035
   1 C :   -0.164035
   2 H :    0.164035
   3 H :    0.164035
Sum of atomic charges:    0.0000000

--------------------------------
MULLIKEN REDUCED ORBITAL CHARGES
--------------------------------
  0 C s       :     3.891963  s :     3.891963
      pz      :     0.000000  p :     2.256585
      px      :     0.994664
      py      :     1.261921
      dz2     :     0.003804  d :     0.015487
      dxz     :     0.000000
      dyz     :     0.000000
      dx2y2   :     0.009498
      dxy     :     0.002185
  1 C s       :     3.891963  s :     3.891963
      pz      :     0.000000  p :     2.256585
      px      :     0.994664
      py      :     1.261921
      dz2     :     0.003804  d :     0.015487
      dxz     :     0.000000
      dyz     :     0.000000
      dx2y2   :     0.009498
      dxy     :     0.002185
  2 H s       :     0.835965  s :     0.835965
  3 H s       :     0.835965  s :     0.835965


                     *******************************
                     * LOEWDIN POPULATION ANALYSIS *
                     *******************************

----------------------
LOEWDIN ATOMIC CHARGES
----------------------
   0 C :   -0.114012
   1 C :   -0.114012
   2 H :    0.114012
   3 H :    0.114012

-------------------------------
LOEWDIN REDUCED ORBITAL CHARGES
-------------------------------
  0 C s       :     3.711544  s :     3.711544
      pz      :     0.000000  p :     2.381268
      px      :     1.013644
      py      :     1.367624
      dz2     :     0.005152  d :     0.021200
      dxz     :     0.000000
      dyz     :     0.000000
      dx2y2   :     0.013048
      dxy     :     0.003000
  1 C s       :     3.711544  s :     3.711544
      pz      :     0.000000  p :     2.381268
      px      :     1.013644
      py      :     1.367624
      dz2     :     0.005152  d :     0.021200
      dxz     :     0.000000
      dyz     :     0.000000
      dx2y2   :     0.013048
      dxy     :     0.003000
  2 H s       :     0.885988  s :     0.885988
  3 H s       :     0.885988  s :     0.885988


                      *****************************
                      * MAYER POPULATION ANALYSIS *
                      *****************************

  NA   - Mulliken gross atomic population
  ZA   - Total nuclear charge
  QA   - Mulliken gross atomic charge
  VA   - Mayer's total valence
  BVA  - Mayer's bonded valence
  FA   - Mayer's free valence

  ATOM       NA         ZA         QA         VA         BVA        FA
  0 C      6.1640     6.0000    -0.1640     1.9078     1.9078     0.0000
  1 C      6.1640     6.0000    -0.1640     1.9078     1.9078    -0.0000
  2 H      0.8360     1.0000     0.1640     0.9062     0.9062     0.0000
  3 H      0.8360     1.0000     0.1640     0.9062     0.9062    -0.0000

  Mayer bond orders larger than 0.1
B(  0-C ,  1-C ) :   1.0018 B(  0-C ,  2-H ) :   0.9045 B(  1-C ,  3-H ) :   0.9045 


-------
TIMINGS
-------

Total SCF time: 0 days 0 hours 0 min 8 sec 

Total time                  ....       8.779 sec
Sum of individual times     ....       8.401 sec  ( 95.7%)

Fock matrix formation       ....       7.317 sec  ( 83.4%)
  XC integration            ....       1.815 sec  ( 24.8% of F)
    Basis function eval.    ....       0.288 sec  ( 15.9% of XC)
    Density eval.           ....       0.073 sec  (  4.0% of XC)
    XC-Functional eval.     ....       0.603 sec  ( 33.2% of XC)
    XC-Potential eval.      ....       0.200 sec  ( 11.0% of XC)
Diagonalization             ....       0.115 sec  (  1.3%)
Density matrix formation    ....       0.000 sec  (  0.0%)
Population analysis         ....       0.009 sec  (  0.1%)
Initial guess               ....       0.382 sec  (  4.3%)
Orbital Transformation      ....       0.000 sec  (  0.0%)
Orbital Orthonormalization  ....       0.000 sec  (  0.0%)
DIIS solution               ....       0.000 sec  (  0.0%)
Grid generation             ....       0.578 sec  (  6.6%)


-------------------------------------------------------------------------------
                          DFT DISPERSION CORRECTION                            
                                                                               
                              DFTD3 V3.1  Rev 1                                
                              USING zero damping                               
-------------------------------------------------------------------------------
The omegaB97X-D3 functional is recognized. Fit by Chai et al.
Active option DFTDOPT                   ...         3   

molecular C6(AA) [au] = 276.199165 


            DFT-D V3
 parameters
 s6 scaling factor         :     1.0000 
 rs6 scaling factor        :     1.2810 
 s8 scaling factor         :     1.0000 
 rs8 scaling factor        :     1.0940 
 Damping factor alpha6     :    14.0000 
 Damping factor alpha8     :    16.0000 
 ad hoc parameters k1-k3   :    16.0000     1.3333    -4.0000 

 Edisp/kcal,au: -0.185989718191  -0.000296393451 
 E6   /kcal   :  -0.046343114 
 E8   /kcal   :  -0.139646604 
 % E8         :  75.082969739 

-------------------------   ----------------
Dispersion correction           -0.000296393
-------------------------   ----------------


-------------------------   --------------------
FINAL SINGLE POINT ENERGY       -76.931979429406
-------------------------   --------------------


                            ***************************************
                            *     ORCA property calculations      *
                            ***************************************

                                    ---------------------
                                    Active property flags
                                    ---------------------
   (+) Dipole Moment


------------------------------------------------------------------------------
                       ORCA ELECTRIC PROPERTIES CALCULATION
------------------------------------------------------------------------------

Dipole Moment Calculation                       ... on
Quadrupole Moment Calculation                   ... off
Polarizability Calculation                      ... off
GBWName                                         ... Scan_21.gbw
Electron density file                           ... Scan_21.scfp.tmp

-------------
DIPOLE MOMENT
-------------
                                X             Y             Z
Electronic contribution:     -0.00000      -0.00000      -0.00000
Nuclear contribution   :      0.00000       0.00000       0.00000
                        -----------------------------------------
Total Dipole Moment    :      0.00000       0.00000       0.00000
                        -----------------------------------------
Magnitude (a.u.)       :      0.00000
Magnitude (Debye)      :      0.00000


Timings for individual modules:

Sum of individual times         ...        9.898 sec (=   0.165 min)
GTO integral calculation        ...        0.909 sec (=   0.015 min)   9.2 %
SCF iterations                  ...        8.989 sec (=   0.150 min)  90.8 %
                             ****ORCA TERMINATED NORMALLY****
TOTAL RUN TIME: 0 days 0 hours 0 minutes 11 seconds 236 msec
