
                                 *****************
                                 * O   R   C   A *
                                 *****************

           --- An Ab Initio, DFT and Semiempirical electronic structure package ---

                  #######################################################
                  #                        -***-                        #
                  #  Department of molecular theory and spectroscopy    #
                  #              Directorship: Frank Neese              #
                  # Max Planck Institute for Chemical Energy Conversion #
                  #                  D-45470 Muelheim/Ruhr              #
                  #                       Germany                       #
                  #                                                     #
                  #                  All rights reserved                #
                  #                        -***-                        #
                  #######################################################


                         Program Version 4.0.0.2 - RELEASE -


 With contributions from (in alphabetic order):
   Daniel Aravena         : Magnetic Properties
   Michael Atanasov       : Ab Initio Ligand Field Theory
   Ute Becker             : Parallelization
   Martin Brehm           : Molecular dynamics
   Dmytro Bykov           : SCF Hessian
   Vijay G. Chilkuri      : MRCI spin determinant printing
   Dipayan Datta          : RHF DLPNO-CCSD density
   Achintya Kumar Dutta   : EOM-CC, STEOM-CC
   Dmitry Ganyushin       : Spin-Orbit,Spin-Spin,Magnetic field MRCI
   Yang Guo               : DLPNO-NEVPT2, CIM, IAO-localization
   Andreas Hansen         : Spin unrestricted coupled pair/coupled cluster methods
   Lee Huntington         : MR-EOM, pCC
   Robert Izsak           : Overlap fitted RIJCOSX, COSX-SCS-MP3, EOM
   Christian Kollmar      : KDIIS, OOCD, Brueckner-CCSD(T), CCSD density
   Simone Kossmann        : Meta GGA functionals, TD-DFT gradient, OOMP2, MP2 Hessian
   Martin Krupicka        : AUTO-CI
   Dagmar Lenk            : GEPOL surface
   Dimitrios Liakos       : Extrapolation schemes; parallel MDCI
   Dimitrios Manganas     : ROCIS; embedding schemes
   Dimitrios Pantazis     : SARC Basis sets
   Taras Petrenko         : DFT Hessian,TD-DFT gradient, ASA, ECA, R-Raman, ABS, FL, XAS/XES, NRVS
   Peter Pinski           : DLPNO-MP2
   Christoph Reimann      : Effective Core Potentials
   Marius Retegan         : Local ZFS, SOC
   Christoph Riplinger    : Optimizer, TS searches, QM/MM, DLPNO-CCSD(T), (RO)-DLPNO pert. Triples
   Tobias Risthaus        : Range-separated hybrids, TD-DFT gradient, RPA, STAB
   Michael Roemelt        : Restricted open shell CIS
   Masaaki Saitow         : Open-shell DLPNO
   Barbara Sandhoefer     : DKH picture change effects
   Kantharuban Sivalingam : CASSCF convergence, NEVPT2, FIC-MRCI
   Georgi Stoychev        : AutoAux
   Boris Wezisla          : Elementary symmetry handling
   Frank Wennmohs         : Technical directorship


 We gratefully acknowledge several colleagues who have allowed us to
 interface, adapt or use parts of their codes:
   Stefan Grimme, W. Hujo, H. Kruse,             : VdW corrections, initial TS optimization,
                  C. Bannwarth                     DFT functionals, gCP, sTDA/sTD-DF
   Ed Valeev                                     : LibInt (2-el integral package), F12 methods
   Garnet Chan, S. Sharma, J. Yang, R. Olivares  : DMRG
   Ulf Ekstrom                                   : XCFun DFT Library
   Mihaly Kallay                                 : mrcc  (arbitrary order and MRCC methods)
   Jiri Pittner, Ondrej Demel                    : Mk-CCSD
   Frank Weinhold                                : gennbo (NPA and NBO analysis)
   Christopher J. Cramer and Donald G. Truhlar   : smd solvation model


 Your calculation uses the libint2 library for the computation of 2-el integrals
 For citations please refer to: http://libint.valeyev.net

 This ORCA versions uses:
   CBLAS   interface :  Fast vector & matrix operations
   LAPACKE interface :  Fast linear algebra routines
   SCALAPACK package :  Parallel linear algebra routines


Your calculation utilizes the atom-pairwise dispersion correction
with the zero-damping scheme (D30)
Cite in your paper:
S.Grimme, J.Antony, S.Ehrlich and H.Krieg, J.Chem.Phys., 132, (2010), 154104 
   

XCFun DFT library Copyright 2009-2010 Ulf Ekstrom and contributors.
See http://admol.org/xcfun for more information. This is free soft-
ware; see the source code for copying conditions. There is ABSOLUTELY
NO WARRANTY; not even for MERCHANTABILITY or FITNESS FOR A PARTICULAR
PURPOSE. For details see the documentation. Scientific users of this 
library should cite U. Ekstrom, L. Visscher, R. Bast, A. J. Thorvald-
sen and K. Ruud; J.Chem.Theor.Comp. 2010, DOI: 10.1021/ct100117s
XCFun Version 0.99 
Your calculation utilizes the basis: 6-31G(d)
   H-He, Li-Ne : W. J. Hehre, R. Ditchfield and J.A. Pople, J. Chem. Phys. 56, 2257 (1972).
                 Note: He and Ne are unpublished basis sets taken from the Gaussian program.
                 Note: Li and B from J. D. Dill and J. A. Pople, J. Chem. Phys. 62, 2921 (1975).
   Na - Ar     : M. M. Francl, W. J. Pietro, W. J. Hehre, J. S. Binkley, M. S. Gordon, 
                 D. J. DeFrees and J. A. Pople, J. Chem. Phys. 77, 3654 (1982).
   K - Zn      : V. A. Rassolov, J. A. Pople, M. A. Ratner, and T. L. Windus, J. Chem. Phys. 109, 1223 (1998).

================================================================================
                                        WARNINGS
                       Please study these warnings very carefully!
================================================================================

Warning: TCutStore was < 0. Adjusted to Thresh (uncritical)

INFO   : the flag for use of LIBINT has been found!

================================================================================
                                       INPUT FILE
================================================================================
NAME = initial22.inp
|  1> ! WB97X-D3 6-31G(d) VerySlowConv
|  2> ! KDIIS NOSOSCF
|  3> %base "Scan_22"
|  4> 
|  5> %scf
|  6> maxiter 999
|  7> end
|  8> 
|  9> * xyz 0 1
| 10> C         -3.566176530424    2.554455066446   -0.000000120568
| 11> C         -0.958334271894    2.702784821730    0.000000000593
| 12> H         -3.787516468910    3.641893722064    0.000000003855
| 13> H         -0.736992728773    1.615346389760    0.000000116121
| 14> **                         ****END OF INPUT****
================================================================================

                       ****************************
                       * Single Point Calculation *
                       ****************************

---------------------------------
CARTESIAN COORDINATES (ANGSTROEM)
---------------------------------
  C     -3.566177    2.554455   -0.000000
  C     -0.958334    2.702785    0.000000
  H     -3.787516    3.641894    0.000000
  H     -0.736993    1.615346    0.000000

----------------------------
CARTESIAN COORDINATES (A.U.)
----------------------------
  NO LB      ZA    FRAG     MASS         X           Y           Z
   0 C     6.0000    0    12.011   -6.739097    4.827220   -0.000000
   1 C     6.0000    0    12.011   -1.810989    5.107523    0.000000
   2 H     1.0000    0     1.008   -7.157369    6.882182    0.000000
   3 H     1.0000    0     1.008   -1.392714    3.052562    0.000000

--------------------------------
INTERNAL COORDINATES (ANGSTROEM)
--------------------------------
 C      0   0   0     0.000000000000     0.00000000     0.00000000
 C      1   0   0     2.612057227872     0.00000000     0.00000000
 H      1   2   0     1.109736093899    98.24957870     0.00000000
 H      2   1   3     1.109736194794    98.24966219   179.99998748

---------------------------
INTERNAL COORDINATES (A.U.)
---------------------------
 C      0   0   0     0.000000000000     0.00000000     0.00000000
 C      1   0   0     4.936072806807     0.00000000     0.00000000
 H      1   2   0     2.097097298396    98.24957870     0.00000000
 H      2   1   3     2.097097489061    98.24966219   179.99998748

---------------------
BASIS SET INFORMATION
---------------------
There are 2 groups of distinct atoms

 Group   1 Type C   : 10s4p1d contracted to 3s2p1d pattern {631/31/1}
 Group   2 Type H   : 4s contracted to 2s pattern {31}

Atom   0C    basis set group =>   1
Atom   1C    basis set group =>   1
Atom   2H    basis set group =>   2
Atom   3H    basis set group =>   2
------------------------------------------------------------------------------
                           ORCA GTO INTEGRAL CALCULATION
------------------------------------------------------------------------------

                         BASIS SET STATISTICS AND STARTUP INFO

 # of primitive gaussian shells          ...   38
 # of primitive gaussian functions       ...   62
 # of contracted shells                  ...   16
 # of contracted basis functions         ...   32
 Highest angular momentum                ...    2
 Maximum contraction depth               ...    6
 Integral package used                   ... LIBINT
 Integral threshhold            Thresh   ...  1.000e-10
 Primitive cut-off              TCut     ...  1.000e-11


------------------------------ INTEGRAL EVALUATION ----------------------------


 * One electron integrals 
 Pre-screening matrix                    ... done
 Shell pair data                         ... done (   0.000 sec)

-------------------------------------------------------------------------------
                                 ORCA SCF
-------------------------------------------------------------------------------

------------
SCF SETTINGS
------------
Hamiltonian:
 Density Functional     Method          .... DFT(GTOs)
 Exchange Functional    Exchange        .... WB97X-D3
 Correlation Functional Correlation     .... WB97X-D3
 Gradients option       PostSCFGGA      .... off
 Hybrid DFT is turned on
   Fraction HF Exchange ScalHFX         ....  0.195728
   Scaling of DF-GGA-X  ScalDFX         ....  0.000000
   Scaling of DF-GGA-C  ScalDFC         ....  1.000000
   Scaling of DF-LDA-C  ScalLDAC        ....  1.000000
   Perturbative correction              ....  0.000000
 Long-range corrected/Screened/Range-Separated Hybrid DFT is turned on
   Amount of maximum screened exact exchange              ....  0.804272
   Range separation parameter mu (erf(mu*r12)/r12)        ....  0.250000


General Settings:
 Integral files         IntName         .... Scan_22
 Hartree-Fock type      HFTyp           .... RHF
 Total Charge           Charge          ....    0
 Multiplicity           Mult            ....    1
 Number of Electrons    NEL             ....   14
 Basis Dimension        Dim             ....   32
 Nuclear Repulsion      ENuc            ....     15.2901537866 Eh

Convergence Acceleration:
 DIIS                   CNVDIIS         .... on
   Start iteration      DIISMaxIt       ....     0
   Startup error        DIISStart       ....  0.200000
   # of expansion vecs  DIISMaxEq       ....     5
   Bias factor          DIISBfac        ....   1.050
   Max. coefficient     DIISMaxC        ....  10.000
 Newton-Raphson         CNVNR           .... off
 SOSCF                  CNVSOSCF        .... off
 Level Shifting         CNVShift        .... off
 Zerner damping         CNVZerner       .... off
 Static damping         CNVDamp         .... off
 Fernandez-Rico         CNVRico         .... off

SCF Procedure:
 Maximum # iterations   MaxIter         ....   999
 SCF integral mode      SCFMode         .... Direct
   Integral package                     .... LIBINT
 Reset frequeny         DirectResetFreq ....    20
 Integral Threshold     Thresh          ....  1.000e-10 Eh
 Primitive CutOff       TCut            ....  1.000e-11 Eh

Convergence Tolerance:
 Convergence Check Mode ConvCheckMode   .... All-Criteria
 Convergence forced     ConvForced      .... 0
 Energy Change          TolE            ....  1.000e-06 Eh
 Max Density Change     TolMaxP         ....  1.000e-05
 RMS Density Change     TolRMSP         ....  1.000e-06
 DIIS Error             TolErr          ....  1.000e-06


Diagonalization of the overlap matrix:
Smallest eigenvalue                        ... 4.155e-02
Time for diagonalization                   ...    0.001 sec
Threshold for overlap eigenvalues          ... 1.000e-08
Number of eigenvalues below threshold      ... 0
Time for construction of square roots      ...    0.005 sec
Total time needed                          ...    0.006 sec

-------------------
DFT GRID GENERATION
-------------------

General Integration Accuracy     IntAcc      ...  4.340
Radial Grid Type                 RadialGrid  ... Gauss-Chebyshev
Angular Grid (max. acc.)         AngularGrid ... Lebedev-110
Angular grid pruning method      GridPruning ... 3 (G Style)
Weight generation scheme         WeightScheme... Becke
Basis function cutoff            BFCut       ...    1.0000e-10
Integration weight cutoff        WCut        ...    1.0000e-14
Grids for H and He will be reduced by one unit

# of grid points (after initial pruning)     ...   4900 (   0.0 sec)
# of grid points (after weights+screening)   ...   4868 (   0.0 sec)
nearest neighbour list constructed           ...    0.0 sec
Grid point re-assignment to atoms done       ...    0.0 sec
Grid point division into batches done        ...    0.0 sec
Reduced shell lists constructed in    0.0 sec

Total number of grid points                  ...     4868
Total number of batches                      ...       78
Average number of points per batch           ...       62
Average number of grid points per atom       ...     1217
Average number of shells per batch           ...    13.41 (83.78%)
Average number of basis functions per batch  ...    27.33 (85.40%)
Average number of large shells per batch     ...    11.49 (85.74%)
Average number of large basis fcns per batch ...    23.22 (84.95%)
Maximum spatial batch extension              ...  22.11, 17.94, 31.36 au
Average spatial batch extension              ...   6.16,  4.98,  6.89 au

Time for grid setup =    0.032 sec

------------------------------
INITIAL GUESS: MODEL POTENTIAL
------------------------------
Loading Hartree-Fock densities                     ... done
Calculating cut-offs                               ... done
Setting up the integral package                    ... done
Initializing the effective Hamiltonian             ... done
Starting the Coulomb interaction                   ... done (   0.0 sec)
Reading the grid                                   ... done
Mapping shells                                     ... done
Starting the XC term evaluation                    ... done (   0.0 sec)
  promolecular density results
     # of electrons  =     13.997288292
     EX              =    -10.521235672
     EC              =     -0.384811390
     EX+EC           =    -10.906047061
Transforming the Hamiltonian                       ... done (   0.0 sec)
Diagonalizing the Hamiltonian                      ... done (   0.0 sec)
Back transforming the eigenvectors                 ... done (   0.0 sec)
Now organizing SCF variables                       ... done
                      ------------------
                      INITIAL GUESS DONE (   0.2 sec)
                      ------------------
--------------
SCF ITERATIONS
--------------
ITER       Energy         Delta-E        Max-DP      RMS-DP      [F,P]   Gradient Norm
               ***  Starting incremental Fock matrix formation  ***
                             ****Resetting KDIIS****
                             ****Turning on KDIIS(Cayley)****
  0    -76.9170060750   0.000000000000 0.00505027  0.00042995  0.0254500   0.025421813
  1    -76.9179293528  -0.000923277806 0.00621953  0.00070986  0.0229864   0.022921542
  2    -76.9193277322  -0.001398379425 0.01077462  0.00125311  0.0183850   0.018443883
  3    -76.9210385817  -0.001710849433 0.01579581  0.00191058  0.0110311   0.011071769
  4    -76.9220115997  -0.000973018010 0.00025368  0.00003104  0.0001124   0.000078693
                          ***Energy convergence achieved***
  5    -76.9220117982  -0.000000198522 0.00004962  0.00000507  0.0000185   0.000017162

            ***Energy convergence in two consecutive cycles with***
                    ***'reasonable' density convergence***
                       *** signaling convergence ***

                    *** KDIIS BlockDiag ( 0.000 sec) ***

               *****************************************************
               *                     SUCCESS                       *
               *           SCF CONVERGED AFTER   6 CYCLES          *
               *****************************************************

Setting up the final grid:

General Integration Accuracy     IntAcc      ...  4.670
Radial Grid Type                 RadialGrid  ... Gauss-Chebyshev
Angular Grid (max. acc.)         AngularGrid ... Lebedev-302
Angular grid pruning method      GridPruning ... 3 (G Style)
Weight generation scheme         WeightScheme... Becke
Basis function cutoff            BFCut       ...    1.0000e-10
Integration weight cutoff        WCut        ...    1.0000e-14
Grids for H and He will be reduced by one unit

# of grid points (after initial pruning)     ...  19212 (   0.0 sec)
# of grid points (after weights+screening)   ...  19012 (   0.0 sec)
nearest neighbour list constructed           ...    0.0 sec
Grid point re-assignment to atoms done       ...    0.0 sec
Grid point division into batches done        ...    0.1 sec
Reduced shell lists constructed in    0.1 sec

Total number of grid points                  ...    19012
Total number of batches                      ...      300
Average number of points per batch           ...       63
Average number of grid points per atom       ...     4753
Average number of shells per batch           ...    12.07 (75.44%)
Average number of basis functions per batch  ...    24.89 (77.79%)
Average number of large shells per batch     ...    10.09 (83.57%)
Average number of large basis fcns per batch ...    20.27 (81.44%)
Maximum spatial batch extension              ...  18.86, 21.17, 21.49 au
Average spatial batch extension              ...   3.70,  3.44,  3.96 au

Final grid set up in    0.2 sec
Final integration                            ... done (   0.2 sec)
Change in XC energy                          ...     0.000646845
Integrated number of electrons               ...    13.999984759
Previous integrated no of electrons          ...    14.000592345

----------------
TOTAL SCF ENERGY
----------------

Total Energy       :          -76.92136496 Eh           -2093.13675 eV

Components:
Nuclear Repulsion  :           15.29015379 Eh             416.06624 eV
Electronic Energy  :          -92.21151874 Eh           -2509.20299 eV
One Electron Energy:         -132.55778519 Eh           -3607.08072 eV
Two Electron Energy:           40.34626645 Eh            1097.87773 eV

Virial components:
Potential Energy   :         -153.23795715 Eh           -4169.81680 eV
Kinetic Energy     :           76.31659219 Eh            2076.68005 eV
Virial Ratio       :            2.00792453


DFT components:
N(Alpha)           :        6.999992379500 electrons
N(Beta)            :        6.999992379500 electrons
N(Total)           :       13.999984759000 electrons
E(XC)              :       -7.598233520779 Eh       

---------------
SCF CONVERGENCE
---------------

  Last Energy change         ...   -4.0418e-09  Tolerance :   1.0000e-06
  Last MAX-Density change    ...    1.4102e-05  Tolerance :   1.0000e-05
  Last RMS-Density change    ...    1.2891e-06  Tolerance :   1.0000e-06
  Last DIIS Error            ...    3.5832e-06  Tolerance :   1.0000e-06

             **** THE GBW FILE WAS UPDATED (Scan_22.gbw) ****
             **** DENSITY FILE WAS UPDATED (Scan_22.scfp.tmp) ****
             **** ENERGY FILE WAS UPDATED (Scan_22.en.tmp) ****
----------------
ORBITAL ENERGIES
----------------

  NO   OCC          E(Eh)            E(eV) 
   0   2.0000     -10.398473      -282.9568 
   1   2.0000     -10.398462      -282.9565 
   2   2.0000      -0.750780       -20.4298 
   3   2.0000      -0.724599       -19.7173 
   4   2.0000      -0.410001       -11.1567 
   5   2.0000      -0.400400       -10.8954 
   6   2.0000      -0.290798        -7.9130 
   7   0.0000      -0.044408        -1.2084 
   8   0.0000      -0.012088        -0.3289 
   9   0.0000       0.002249         0.0612 
  10   0.0000       0.217113         5.9079 
  11   0.0000       0.241166         6.5625 
  12   0.0000       0.611638        16.6435 
  13   0.0000       0.622070        16.9274 
  14   0.0000       0.668288        18.1850 
  15   0.0000       0.691220        18.8091 
  16   0.0000       0.703577        19.1453 
  17   0.0000       0.712624        19.3915 
  18   0.0000       0.745584        20.2884 
  19   0.0000       0.975032        26.5320 
  20   0.0000       0.976132        26.5619 
  21   0.0000       1.038048        28.2467 
  22   0.0000       1.754999        47.7559 
  23   0.0000       1.755103        47.7588 
  24   0.0000       1.769545        48.1518 
  25   0.0000       1.770444        48.1762 
  26   0.0000       1.779414        48.4203 
  27   0.0000       1.788078        48.6561 
  28   0.0000       1.795976        48.8710 
  29   0.0000       1.906967        51.8912 
  30   0.0000       2.200762        59.8858 
  31   0.0000       2.232505        60.7496 

                    ********************************
                    * MULLIKEN POPULATION ANALYSIS *
                    ********************************

-----------------------
MULLIKEN ATOMIC CHARGES
-----------------------
   0 C :   -0.162962
   1 C :   -0.162963
   2 H :    0.162963
   3 H :    0.162963
Sum of atomic charges:   -0.0000000

--------------------------------
MULLIKEN REDUCED ORBITAL CHARGES
--------------------------------
  0 C s       :     3.899669  s :     3.899669
      pz      :     0.000000  p :     2.248005
      px      :     0.996711
      py      :     1.251294
      dz2     :     0.003748  d :     0.015289
      dxz     :     0.000000
      dyz     :     0.000000
      dx2y2   :     0.009788
      dxy     :     0.001753
  1 C s       :     3.899669  s :     3.899669
      pz      :     0.000000  p :     2.248006
      px      :     0.996711
      py      :     1.251294
      dz2     :     0.003748  d :     0.015289
      dxz     :     0.000000
      dyz     :     0.000000
      dx2y2   :     0.009788
      dxy     :     0.001753
  2 H s       :     0.837037  s :     0.837037
  3 H s       :     0.837037  s :     0.837037


                     *******************************
                     * LOEWDIN POPULATION ANALYSIS *
                     *******************************

----------------------
LOEWDIN ATOMIC CHARGES
----------------------
   0 C :   -0.113712
   1 C :   -0.113713
   2 H :    0.113713
   3 H :    0.113713

-------------------------------
LOEWDIN REDUCED ORBITAL CHARGES
-------------------------------
  0 C s       :     3.723971  s :     3.723971
      pz      :     0.000000  p :     2.368891
      px      :     1.010206
      py      :     1.358686
      dz2     :     0.005090  d :     0.020851
      dxz     :     0.000000
      dyz     :     0.000000
      dx2y2   :     0.013428
      dxy     :     0.002333
  1 C s       :     3.723971  s :     3.723971
      pz      :     0.000000  p :     2.368892
      px      :     1.010206
      py      :     1.358686
      dz2     :     0.005090  d :     0.020851
      dxz     :     0.000000
      dyz     :     0.000000
      dx2y2   :     0.013428
      dxy     :     0.002333
  2 H s       :     0.886287  s :     0.886287
  3 H s       :     0.886287  s :     0.886287


                      *****************************
                      * MAYER POPULATION ANALYSIS *
                      *****************************

  NA   - Mulliken gross atomic population
  ZA   - Total nuclear charge
  QA   - Mulliken gross atomic charge
  VA   - Mayer's total valence
  BVA  - Mayer's bonded valence
  FA   - Mayer's free valence

  ATOM       NA         ZA         QA         VA         BVA        FA
  0 C      6.1630     6.0000    -0.1630     1.9093     1.9093    -0.0000
  1 C      6.1630     6.0000    -0.1630     1.9093     1.9093     0.0000
  2 H      0.8370     1.0000     0.1630     0.9067     0.9067    -0.0000
  3 H      0.8370     1.0000     0.1630     0.9067     0.9067     0.0000

  Mayer bond orders larger than 0.1
B(  0-C ,  1-C ) :   1.0027 B(  0-C ,  2-H ) :   0.9055 B(  1-C ,  3-H ) :   0.9055 


-------
TIMINGS
-------

Total SCF time: 0 days 0 hours 0 min 2 sec 

Total time                  ....       2.653 sec
Sum of individual times     ....       2.546 sec  ( 96.0%)

Fock matrix formation       ....       2.217 sec  ( 83.6%)
  XC integration            ....       0.543 sec  ( 24.5% of F)
    Basis function eval.    ....       0.176 sec  ( 32.5% of XC)
    Density eval.           ....       0.026 sec  (  4.8% of XC)
    XC-Functional eval.     ....       0.156 sec  ( 28.8% of XC)
    XC-Potential eval.      ....       0.021 sec  (  3.9% of XC)
Diagonalization             ....       0.006 sec  (  0.2%)
Density matrix formation    ....       0.000 sec  (  0.0%)
Population analysis         ....       0.011 sec  (  0.4%)
Initial guess               ....       0.124 sec  (  4.7%)
Orbital Transformation      ....       0.000 sec  (  0.0%)
Orbital Orthonormalization  ....       0.000 sec  (  0.0%)
DIIS solution               ....       0.000 sec  (  0.0%)
Grid generation             ....       0.188 sec  (  7.1%)


-------------------------------------------------------------------------------
                          DFT DISPERSION CORRECTION                            
                                                                               
                              DFTD3 V3.1  Rev 1                                
                              USING zero damping                               
-------------------------------------------------------------------------------
The omegaB97X-D3 functional is recognized. Fit by Chai et al.
Active option DFTDOPT                   ...         3   

molecular C6(AA) [au] = 276.482778 


            DFT-D V3
 parameters
 s6 scaling factor         :     1.0000 
 rs6 scaling factor        :     1.2810 
 s8 scaling factor         :     1.0000 
 rs8 scaling factor        :     1.0940 
 Damping factor alpha6     :    14.0000 
 Damping factor alpha8     :    16.0000 
 ad hoc parameters k1-k3   :    16.0000     1.3333    -4.0000 

 Edisp/kcal,au: -0.199040742644  -0.000317191580 
 E6   /kcal   :  -0.051705562 
 E8   /kcal   :  -0.147335181 
 % E8         :  74.022624184 

-------------------------   ----------------
Dispersion correction           -0.000317192
-------------------------   ----------------


-------------------------   --------------------
FINAL SINGLE POINT ENERGY       -76.921682149103
-------------------------   --------------------


                            ***************************************
                            *     ORCA property calculations      *
                            ***************************************

                                    ---------------------
                                    Active property flags
                                    ---------------------
   (+) Dipole Moment


------------------------------------------------------------------------------
                       ORCA ELECTRIC PROPERTIES CALCULATION
------------------------------------------------------------------------------

Dipole Moment Calculation                       ... on
Quadrupole Moment Calculation                   ... off
Polarizability Calculation                      ... off
GBWName                                         ... Scan_22.gbw
Electron density file                           ... Scan_22.scfp.tmp

-------------
DIPOLE MOMENT
-------------
                                X             Y             Z
Electronic contribution:     -0.00000      -0.00000      -0.00000
Nuclear contribution   :      0.00000       0.00000       0.00000
                        -----------------------------------------
Total Dipole Moment    :     -0.00000      -0.00000       0.00000
                        -----------------------------------------
Magnitude (a.u.)       :      0.00000
Magnitude (Debye)      :      0.00000


Timings for individual modules:

Sum of individual times         ...        2.989 sec (=   0.050 min)
GTO integral calculation        ...        0.310 sec (=   0.005 min)  10.4 %
SCF iterations                  ...        2.678 sec (=   0.045 min)  89.6 %
                             ****ORCA TERMINATED NORMALLY****
TOTAL RUN TIME: 0 days 0 hours 0 minutes 3 seconds 326 msec
