
                                 *****************
                                 * O   R   C   A *
                                 *****************

           --- An Ab Initio, DFT and Semiempirical electronic structure package ---

                  #######################################################
                  #                        -***-                        #
                  #  Department of molecular theory and spectroscopy    #
                  #              Directorship: Frank Neese              #
                  # Max Planck Institute for Chemical Energy Conversion #
                  #                  D-45470 Muelheim/Ruhr              #
                  #                       Germany                       #
                  #                                                     #
                  #                  All rights reserved                #
                  #                        -***-                        #
                  #######################################################


                         Program Version 4.0.0.2 - RELEASE -


 With contributions from (in alphabetic order):
   Daniel Aravena         : Magnetic Properties
   Michael Atanasov       : Ab Initio Ligand Field Theory
   Ute Becker             : Parallelization
   Martin Brehm           : Molecular dynamics
   Dmytro Bykov           : SCF Hessian
   Vijay G. Chilkuri      : MRCI spin determinant printing
   Dipayan Datta          : RHF DLPNO-CCSD density
   Achintya Kumar Dutta   : EOM-CC, STEOM-CC
   Dmitry Ganyushin       : Spin-Orbit,Spin-Spin,Magnetic field MRCI
   Yang Guo               : DLPNO-NEVPT2, CIM, IAO-localization
   Andreas Hansen         : Spin unrestricted coupled pair/coupled cluster methods
   Lee Huntington         : MR-EOM, pCC
   Robert Izsak           : Overlap fitted RIJCOSX, COSX-SCS-MP3, EOM
   Christian Kollmar      : KDIIS, OOCD, Brueckner-CCSD(T), CCSD density
   Simone Kossmann        : Meta GGA functionals, TD-DFT gradient, OOMP2, MP2 Hessian
   Martin Krupicka        : AUTO-CI
   Dagmar Lenk            : GEPOL surface
   Dimitrios Liakos       : Extrapolation schemes; parallel MDCI
   Dimitrios Manganas     : ROCIS; embedding schemes
   Dimitrios Pantazis     : SARC Basis sets
   Taras Petrenko         : DFT Hessian,TD-DFT gradient, ASA, ECA, R-Raman, ABS, FL, XAS/XES, NRVS
   Peter Pinski           : DLPNO-MP2
   Christoph Reimann      : Effective Core Potentials
   Marius Retegan         : Local ZFS, SOC
   Christoph Riplinger    : Optimizer, TS searches, QM/MM, DLPNO-CCSD(T), (RO)-DLPNO pert. Triples
   Tobias Risthaus        : Range-separated hybrids, TD-DFT gradient, RPA, STAB
   Michael Roemelt        : Restricted open shell CIS
   Masaaki Saitow         : Open-shell DLPNO
   Barbara Sandhoefer     : DKH picture change effects
   Kantharuban Sivalingam : CASSCF convergence, NEVPT2, FIC-MRCI
   Georgi Stoychev        : AutoAux
   Boris Wezisla          : Elementary symmetry handling
   Frank Wennmohs         : Technical directorship


 We gratefully acknowledge several colleagues who have allowed us to
 interface, adapt or use parts of their codes:
   Stefan Grimme, W. Hujo, H. Kruse,             : VdW corrections, initial TS optimization,
                  C. Bannwarth                     DFT functionals, gCP, sTDA/sTD-DF
   Ed Valeev                                     : LibInt (2-el integral package), F12 methods
   Garnet Chan, S. Sharma, J. Yang, R. Olivares  : DMRG
   Ulf Ekstrom                                   : XCFun DFT Library
   Mihaly Kallay                                 : mrcc  (arbitrary order and MRCC methods)
   Jiri Pittner, Ondrej Demel                    : Mk-CCSD
   Frank Weinhold                                : gennbo (NPA and NBO analysis)
   Christopher J. Cramer and Donald G. Truhlar   : smd solvation model


 Your calculation uses the libint2 library for the computation of 2-el integrals
 For citations please refer to: http://libint.valeyev.net

 This ORCA versions uses:
   CBLAS   interface :  Fast vector & matrix operations
   LAPACKE interface :  Fast linear algebra routines
   SCALAPACK package :  Parallel linear algebra routines


Your calculation utilizes the atom-pairwise dispersion correction
with the zero-damping scheme (D30)
Cite in your paper:
S.Grimme, J.Antony, S.Ehrlich and H.Krieg, J.Chem.Phys., 132, (2010), 154104 
   

XCFun DFT library Copyright 2009-2010 Ulf Ekstrom and contributors.
See http://admol.org/xcfun for more information. This is free soft-
ware; see the source code for copying conditions. There is ABSOLUTELY
NO WARRANTY; not even for MERCHANTABILITY or FITNESS FOR A PARTICULAR
PURPOSE. For details see the documentation. Scientific users of this 
library should cite U. Ekstrom, L. Visscher, R. Bast, A. J. Thorvald-
sen and K. Ruud; J.Chem.Theor.Comp. 2010, DOI: 10.1021/ct100117s
XCFun Version 0.99 
Your calculation utilizes the basis: 6-31G(d)
   H-He, Li-Ne : W. J. Hehre, R. Ditchfield and J.A. Pople, J. Chem. Phys. 56, 2257 (1972).
                 Note: He and Ne are unpublished basis sets taken from the Gaussian program.
                 Note: Li and B from J. D. Dill and J. A. Pople, J. Chem. Phys. 62, 2921 (1975).
   Na - Ar     : M. M. Francl, W. J. Pietro, W. J. Hehre, J. S. Binkley, M. S. Gordon, 
                 D. J. DeFrees and J. A. Pople, J. Chem. Phys. 77, 3654 (1982).
   K - Zn      : V. A. Rassolov, J. A. Pople, M. A. Ratner, and T. L. Windus, J. Chem. Phys. 109, 1223 (1998).

================================================================================
                                        WARNINGS
                       Please study these warnings very carefully!
================================================================================

Warning: TCutStore was < 0. Adjusted to Thresh (uncritical)

INFO   : the flag for use of LIBINT has been found!

================================================================================
                                       INPUT FILE
================================================================================
NAME = initial23.inp
|  1> ! WB97X-D3 6-31G(d) VerySlowConv
|  2> ! KDIIS NOSOSCF
|  3> %base "Scan_23"
|  4> 
|  5> %scf
|  6> maxiter 999
|  7> end
|  8> 
|  9> * xyz 0 1
| 10> C         -3.622098952669    2.556665499435    0.000000196049
| 11> C         -0.902403180509    2.700575387340    0.000000322261
| 12> H         -3.808158284319    3.650994634027   -0.000000316109
| 13> H         -0.716359582503    1.606244479198   -0.000000202201
| 14> **                         ****END OF INPUT****
================================================================================

                       ****************************
                       * Single Point Calculation *
                       ****************************

---------------------------------
CARTESIAN COORDINATES (ANGSTROEM)
---------------------------------
  C     -3.622099    2.556665    0.000000
  C     -0.902403    2.700575    0.000000
  H     -3.808158    3.650995   -0.000000
  H     -0.716360    1.606244   -0.000000

----------------------------
CARTESIAN COORDINATES (A.U.)
----------------------------
  NO LB      ZA    FRAG     MASS         X           Y           Z
   0 C     6.0000    0    12.011   -6.844775    4.831398    0.000000
   1 C     6.0000    0    12.011   -1.705295    5.103348    0.000001
   2 H     1.0000    0     1.008   -7.196376    6.899380   -0.000001
   3 H     1.0000    0     1.008   -1.353723    3.035362   -0.000000

--------------------------------
INTERNAL COORDINATES (ANGSTROEM)
--------------------------------
 C      0   0   0     0.000000000000     0.00000000     0.00000000
 C      1   0   0     2.723500532209     0.00000000     0.00000000
 H      1   2   0     1.110033481347    96.62031285     0.00000000
 H      2   1   3     1.110032592708    96.61949689   180.00005386

---------------------------
INTERNAL COORDINATES (A.U.)
---------------------------
 C      0   0   0     0.000000000000     0.00000000     0.00000000
 C      1   0   0     5.146670131463     0.00000000     0.00000000
 H      1   2   0     2.097659279229    96.62031285     0.00000000
 H      2   1   3     2.097657599945    96.61949689   180.00005386

---------------------
BASIS SET INFORMATION
---------------------
There are 2 groups of distinct atoms

 Group   1 Type C   : 10s4p1d contracted to 3s2p1d pattern {631/31/1}
 Group   2 Type H   : 4s contracted to 2s pattern {31}

Atom   0C    basis set group =>   1
Atom   1C    basis set group =>   1
Atom   2H    basis set group =>   2
Atom   3H    basis set group =>   2
------------------------------------------------------------------------------
                           ORCA GTO INTEGRAL CALCULATION
------------------------------------------------------------------------------

                         BASIS SET STATISTICS AND STARTUP INFO

 # of primitive gaussian shells          ...   38
 # of primitive gaussian functions       ...   62
 # of contracted shells                  ...   16
 # of contracted basis functions         ...   32
 Highest angular momentum                ...    2
 Maximum contraction depth               ...    6
 Integral package used                   ... LIBINT
 Integral threshhold            Thresh   ...  1.000e-10
 Primitive cut-off              TCut     ...  1.000e-11


------------------------------ INTEGRAL EVALUATION ----------------------------


 * One electron integrals 
 Pre-screening matrix                    ... done
 Shell pair data                         ... done (   0.000 sec)

-------------------------------------------------------------------------------
                                 ORCA SCF
-------------------------------------------------------------------------------

------------
SCF SETTINGS
------------
Hamiltonian:
 Density Functional     Method          .... DFT(GTOs)
 Exchange Functional    Exchange        .... WB97X-D3
 Correlation Functional Correlation     .... WB97X-D3
 Gradients option       PostSCFGGA      .... off
 Hybrid DFT is turned on
   Fraction HF Exchange ScalHFX         ....  0.195728
   Scaling of DF-GGA-X  ScalDFX         ....  0.000000
   Scaling of DF-GGA-C  ScalDFC         ....  1.000000
   Scaling of DF-LDA-C  ScalLDAC        ....  1.000000
   Perturbative correction              ....  0.000000
 Long-range corrected/Screened/Range-Separated Hybrid DFT is turned on
   Amount of maximum screened exact exchange              ....  0.804272
   Range separation parameter mu (erf(mu*r12)/r12)        ....  0.250000


General Settings:
 Integral files         IntName         .... Scan_23
 Hartree-Fock type      HFTyp           .... RHF
 Total Charge           Charge          ....    0
 Multiplicity           Mult            ....    1
 Number of Electrons    NEL             ....   14
 Basis Dimension        Dim             ....   32
 Nuclear Repulsion      ENuc            ....     14.9353214572 Eh

Convergence Acceleration:
 DIIS                   CNVDIIS         .... on
   Start iteration      DIISMaxIt       ....     0
   Startup error        DIISStart       ....  0.200000
   # of expansion vecs  DIISMaxEq       ....     5
   Bias factor          DIISBfac        ....   1.050
   Max. coefficient     DIISMaxC        ....  10.000
 Newton-Raphson         CNVNR           .... off
 SOSCF                  CNVSOSCF        .... off
 Level Shifting         CNVShift        .... off
 Zerner damping         CNVZerner       .... off
 Static damping         CNVDamp         .... off
 Fernandez-Rico         CNVRico         .... off

SCF Procedure:
 Maximum # iterations   MaxIter         ....   999
 SCF integral mode      SCFMode         .... Direct
   Integral package                     .... LIBINT
 Reset frequeny         DirectResetFreq ....    20
 Integral Threshold     Thresh          ....  1.000e-10 Eh
 Primitive CutOff       TCut            ....  1.000e-11 Eh

Convergence Tolerance:
 Convergence Check Mode ConvCheckMode   .... All-Criteria
 Convergence forced     ConvForced      .... 0
 Energy Change          TolE            ....  1.000e-06 Eh
 Max Density Change     TolMaxP         ....  1.000e-05
 RMS Density Change     TolRMSP         ....  1.000e-06
 DIIS Error             TolErr          ....  1.000e-06


Diagonalization of the overlap matrix:
Smallest eigenvalue                        ... 4.235e-02
Time for diagonalization                   ...    0.001 sec
Threshold for overlap eigenvalues          ... 1.000e-08
Number of eigenvalues below threshold      ... 0
Time for construction of square roots      ...    0.005 sec
Total time needed                          ...    0.006 sec

-------------------
DFT GRID GENERATION
-------------------

General Integration Accuracy     IntAcc      ...  4.340
Radial Grid Type                 RadialGrid  ... Gauss-Chebyshev
Angular Grid (max. acc.)         AngularGrid ... Lebedev-110
Angular grid pruning method      GridPruning ... 3 (G Style)
Weight generation scheme         WeightScheme... Becke
Basis function cutoff            BFCut       ...    1.0000e-10
Integration weight cutoff        WCut        ...    1.0000e-14
Grids for H and He will be reduced by one unit

# of grid points (after initial pruning)     ...   4900 (   0.0 sec)
# of grid points (after weights+screening)   ...   4864 (   0.0 sec)
nearest neighbour list constructed           ...    0.0 sec
Grid point re-assignment to atoms done       ...    0.0 sec
Grid point division into batches done        ...    0.0 sec
Reduced shell lists constructed in    0.0 sec

Total number of grid points                  ...     4864
Total number of batches                      ...       78
Average number of points per batch           ...       62
Average number of grid points per atom       ...     1216
Average number of shells per batch           ...    13.38 (83.62%)
Average number of basis functions per batch  ...    27.30 (85.32%)
Average number of large shells per batch     ...    11.25 (84.11%)
Average number of large basis fcns per batch ...    22.62 (82.85%)
Maximum spatial batch extension              ...  21.80, 17.94, 31.36 au
Average spatial batch extension              ...   6.17,  4.94,  6.87 au

Time for grid setup =    0.033 sec

------------------------------
INITIAL GUESS: MODEL POTENTIAL
------------------------------
Loading Hartree-Fock densities                     ... done
Calculating cut-offs                               ... done
Setting up the integral package                    ... done
Initializing the effective Hamiltonian             ... done
Starting the Coulomb interaction                   ... done (   0.0 sec)
Reading the grid                                   ... done
Mapping shells                                     ... done
Starting the XC term evaluation                    ... done (   0.0 sec)
  promolecular density results
     # of electrons  =     13.997324666
     EX              =    -10.519370310
     EC              =     -0.383742789
     EX+EC           =    -10.903113099
Transforming the Hamiltonian                       ... done (   0.0 sec)
Diagonalizing the Hamiltonian                      ... done (   0.0 sec)
Back transforming the eigenvectors                 ... done (   0.0 sec)
Now organizing SCF variables                       ... done
                      ------------------
                      INITIAL GUESS DONE (   0.2 sec)
                      ------------------
--------------
SCF ITERATIONS
--------------
ITER       Energy         Delta-E        Max-DP      RMS-DP      [F,P]   Gradient Norm
               ***  Starting incremental Fock matrix formation  ***
                             ****Resetting KDIIS****
                             ****Turning on KDIIS(Cayley)****
  0    -76.9068814625   0.000000000000 0.00501028  0.00043002  0.0255535   0.025122776
  1    -76.9077996625  -0.000918200034 0.00615617  0.00071822  0.0230761   0.022665812
  2    -76.9092072744  -0.001407611848 0.01080219  0.00127484  0.0184574   0.018239164
  3    -76.9109379842  -0.001730709860 0.01585318  0.00194806  0.0110724   0.010944301
  4    -76.9119229887  -0.000985004425 0.00027847  0.00003413  0.0001093   0.000084363
                          ***Energy convergence achieved***
  5    -76.9119232143  -0.000000225650 0.00003837  0.00000418  0.0000213   0.000017126

            ***Energy convergence in two consecutive cycles with***
                    ***'reasonable' density convergence***
                       *** signaling convergence ***

                    *** KDIIS BlockDiag ( 0.000 sec) ***

               *****************************************************
               *                     SUCCESS                       *
               *           SCF CONVERGED AFTER   6 CYCLES          *
               *****************************************************

Setting up the final grid:

General Integration Accuracy     IntAcc      ...  4.670
Radial Grid Type                 RadialGrid  ... Gauss-Chebyshev
Angular Grid (max. acc.)         AngularGrid ... Lebedev-302
Angular grid pruning method      GridPruning ... 3 (G Style)
Weight generation scheme         WeightScheme... Becke
Basis function cutoff            BFCut       ...    1.0000e-10
Integration weight cutoff        WCut        ...    1.0000e-14
Grids for H and He will be reduced by one unit

# of grid points (after initial pruning)     ...  19212 (   0.0 sec)
# of grid points (after weights+screening)   ...  19022 (   0.0 sec)
nearest neighbour list constructed           ...    0.0 sec
Grid point re-assignment to atoms done       ...    0.0 sec
Grid point division into batches done        ...    0.1 sec
Reduced shell lists constructed in    0.1 sec

Total number of grid points                  ...    19022
Total number of batches                      ...      298
Average number of points per batch           ...       63
Average number of grid points per atom       ...     4756
Average number of shells per batch           ...    11.98 (74.85%)
Average number of basis functions per batch  ...    24.69 (77.14%)
Average number of large shells per batch     ...     9.87 (82.41%)
Average number of large basis fcns per batch ...    19.80 (80.19%)
Maximum spatial batch extension              ...  19.05, 20.80, 24.37 au
Average spatial batch extension              ...   3.78,  3.43,  4.00 au

Final grid set up in    0.2 sec
Final integration                            ... done (   0.2 sec)
Change in XC energy                          ...     0.000700559
Integrated number of electrons               ...    13.999982329
Previous integrated no of electrons          ...    14.000569697

----------------
TOTAL SCF ENERGY
----------------

Total Energy       :          -76.91122266 Eh           -2092.86077 eV

Components:
Nuclear Repulsion  :           14.93532146 Eh             406.41076 eV
Electronic Energy  :          -91.84654412 Eh           -2499.27153 eV
One Electron Energy:         -131.83133067 Eh           -3587.31288 eV
Two Electron Energy:           39.98478655 Eh            1088.04136 eV

Virial components:
Potential Energy   :         -153.22862295 Eh           -4169.56281 eV
Kinetic Energy     :           76.31740029 Eh            2076.70204 eV
Virial Ratio       :            2.00778096


DFT components:
N(Alpha)           :        6.999991164610 electrons
N(Beta)            :        6.999991164610 electrons
N(Total)           :       13.999982329220 electrons
E(XC)              :       -7.593350658201 Eh       

---------------
SCF CONVERGENCE
---------------

  Last Energy change         ...   -3.5578e-09  Tolerance :   1.0000e-06
  Last MAX-Density change    ...    1.3349e-05  Tolerance :   1.0000e-05
  Last RMS-Density change    ...    1.1970e-06  Tolerance :   1.0000e-06
  Last DIIS Error            ...    3.3217e-06  Tolerance :   1.0000e-06

             **** THE GBW FILE WAS UPDATED (Scan_23.gbw) ****
             **** DENSITY FILE WAS UPDATED (Scan_23.scfp.tmp) ****
             **** ENERGY FILE WAS UPDATED (Scan_23.en.tmp) ****
----------------
ORBITAL ENERGIES
----------------

  NO   OCC          E(Eh)            E(eV) 
   0   2.0000     -10.400195      -283.0037 
   1   2.0000     -10.400179      -283.0033 
   2   2.0000      -0.749074       -20.3833 
   3   2.0000      -0.727199       -19.7881 
   4   2.0000      -0.407655       -11.0929 
   5   2.0000      -0.401728       -10.9316 
   6   2.0000      -0.287271        -7.8170 
   7   0.0000      -0.042424        -1.1544 
   8   0.0000      -0.015473        -0.4210 
   9   0.0000      -0.010255        -0.2790 
  10   0.0000       0.217014         5.9053 
  11   0.0000       0.240371         6.5408 
  12   0.0000       0.614535        16.7223 
  13   0.0000       0.621894        16.9226 
  14   0.0000       0.665726        18.1153 
  15   0.0000       0.672474        18.2990 
  16   0.0000       0.700567        19.0634 
  17   0.0000       0.711202        19.3528 
  18   0.0000       0.738800        20.1038 
  19   0.0000       0.970194        26.4003 
  20   0.0000       0.973856        26.5000 
  21   0.0000       1.039094        28.2752 
  22   0.0000       1.754193        47.7340 
  23   0.0000       1.754195        47.7341 
  24   0.0000       1.770010        48.1644 
  25   0.0000       1.774474        48.2859 
  26   0.0000       1.780623        48.4532 
  27   0.0000       1.784421        48.5566 
  28   0.0000       1.790303        48.7166 
  29   0.0000       1.869102        50.8609 
  30   0.0000       2.196639        59.7736 
  31   0.0000       2.232408        60.7469 

                    ********************************
                    * MULLIKEN POPULATION ANALYSIS *
                    ********************************

-----------------------
MULLIKEN ATOMIC CHARGES
-----------------------
   0 C :   -0.162448
   1 C :   -0.162444
   2 H :    0.162446
   3 H :    0.162446
Sum of atomic charges:    0.0000000

--------------------------------
MULLIKEN REDUCED ORBITAL CHARGES
--------------------------------
  0 C s       :     3.905114  s :     3.905114
      pz      :     0.000000  p :     2.242155
      px      :     0.998136
      py      :     1.244019
      dz2     :     0.003718  d :     0.015179
      dxz     :     0.000000
      dyz     :     0.000000
      dx2y2   :     0.010044
      dxy     :     0.001417
  1 C s       :     3.905114  s :     3.905114
      pz      :     0.000000  p :     2.242151
      px      :     0.998133
      py      :     1.244018
      dz2     :     0.003718  d :     0.015179
      dxz     :     0.000000
      dyz     :     0.000000
      dx2y2   :     0.010044
      dxy     :     0.001417
  2 H s       :     0.837554  s :     0.837554
  3 H s       :     0.837554  s :     0.837554


                     *******************************
                     * LOEWDIN POPULATION ANALYSIS *
                     *******************************

----------------------
LOEWDIN ATOMIC CHARGES
----------------------
   0 C :   -0.113594
   1 C :   -0.113590
   2 H :    0.113592
   3 H :    0.113592

-------------------------------
LOEWDIN REDUCED ORBITAL CHARGES
-------------------------------
  0 C s       :     3.732503  s :     3.732503
      pz      :     0.000000  p :     2.360442
      px      :     1.007701
      py      :     1.352741
      dz2     :     0.005059  d :     0.020649
      dxz     :     0.000000
      dyz     :     0.000000
      dx2y2   :     0.013763
      dxy     :     0.001827
  1 C s       :     3.732502  s :     3.732502
      pz      :     0.000000  p :     2.360438
      px      :     1.007698
      py      :     1.352740
      dz2     :     0.005059  d :     0.020649
      dxz     :     0.000000
      dyz     :     0.000000
      dx2y2   :     0.013764
      dxy     :     0.001827
  2 H s       :     0.886408  s :     0.886408
  3 H s       :     0.886408  s :     0.886408


                      *****************************
                      * MAYER POPULATION ANALYSIS *
                      *****************************

  NA   - Mulliken gross atomic population
  ZA   - Total nuclear charge
  QA   - Mulliken gross atomic charge
  VA   - Mayer's total valence
  BVA  - Mayer's bonded valence
  FA   - Mayer's free valence

  ATOM       NA         ZA         QA         VA         BVA        FA
  0 C      6.1624     6.0000    -0.1624     1.9097     1.9097     0.0000
  1 C      6.1624     6.0000    -0.1624     1.9097     1.9097    -0.0000
  2 H      0.8376     1.0000     0.1624     0.9069     0.9069     0.0000
  3 H      0.8376     1.0000     0.1624     0.9069     0.9069    -0.0000

  Mayer bond orders larger than 0.1
B(  0-C ,  1-C ) :   1.0029 B(  0-C ,  2-H ) :   0.9059 B(  1-C ,  3-H ) :   0.9059 


-------
TIMINGS
-------

Total SCF time: 0 days 0 hours 0 min 2 sec 

Total time                  ....       2.768 sec
Sum of individual times     ....       2.651 sec  ( 95.8%)

Fock matrix formation       ....       2.295 sec  ( 82.9%)
  XC integration            ....       0.594 sec  ( 25.9% of F)
    Basis function eval.    ....       0.200 sec  ( 33.7% of XC)
    Density eval.           ....       0.029 sec  (  4.8% of XC)
    XC-Functional eval.     ....       0.178 sec  ( 29.9% of XC)
    XC-Potential eval.      ....       0.023 sec  (  3.9% of XC)
Diagonalization             ....       0.019 sec  (  0.7%)
Density matrix formation    ....       0.000 sec  (  0.0%)
Population analysis         ....       0.013 sec  (  0.5%)
Initial guess               ....       0.129 sec  (  4.7%)
Orbital Transformation      ....       0.000 sec  (  0.0%)
Orbital Orthonormalization  ....       0.000 sec  (  0.0%)
DIIS solution               ....       0.000 sec  (  0.0%)
Grid generation             ....       0.195 sec  (  7.0%)


-------------------------------------------------------------------------------
                          DFT DISPERSION CORRECTION                            
                                                                               
                              DFTD3 V3.1  Rev 1                                
                              USING zero damping                               
-------------------------------------------------------------------------------
The omegaB97X-D3 functional is recognized. Fit by Chai et al.
Active option DFTDOPT                   ...         3   

molecular C6(AA) [au] = 276.625956 


            DFT-D V3
 parameters
 s6 scaling factor         :     1.0000 
 rs6 scaling factor        :     1.2810 
 s8 scaling factor         :     1.0000 
 rs8 scaling factor        :     1.0940 
 Damping factor alpha6     :    14.0000 
 Damping factor alpha8     :    16.0000 
 ad hoc parameters k1-k3   :    16.0000     1.3333    -4.0000 

 Edisp/kcal,au: -0.209571723136  -0.000333973764 
 E6   /kcal   :  -0.058082516 
 E8   /kcal   :  -0.151489207 
 % E8         :  72.285136861 

-------------------------   ----------------
Dispersion correction           -0.000333974
-------------------------   ----------------


-------------------------   --------------------
FINAL SINGLE POINT ENERGY       -76.911556632589
-------------------------   --------------------


                            ***************************************
                            *     ORCA property calculations      *
                            ***************************************

                                    ---------------------
                                    Active property flags
                                    ---------------------
   (+) Dipole Moment


------------------------------------------------------------------------------
                       ORCA ELECTRIC PROPERTIES CALCULATION
------------------------------------------------------------------------------

Dipole Moment Calculation                       ... on
Quadrupole Moment Calculation                   ... off
Polarizability Calculation                      ... off
GBWName                                         ... Scan_23.gbw
Electron density file                           ... Scan_23.scfp.tmp

-------------
DIPOLE MOMENT
-------------
                                X             Y             Z
Electronic contribution:      0.00002       0.00000       0.00000
Nuclear contribution   :     -0.00001      -0.00000      -0.00000
                        -----------------------------------------
Total Dipole Moment    :      0.00000       0.00000      -0.00000
                        -----------------------------------------
Magnitude (a.u.)       :      0.00000
Magnitude (Debye)      :      0.00000


Timings for individual modules:

Sum of individual times         ...        3.110 sec (=   0.052 min)
GTO integral calculation        ...        0.316 sec (=   0.005 min)  10.2 %
SCF iterations                  ...        2.794 sec (=   0.047 min)  89.8 %
                             ****ORCA TERMINATED NORMALLY****
TOTAL RUN TIME: 0 days 0 hours 0 minutes 3 seconds 435 msec
