
                                 *****************
                                 * O   R   C   A *
                                 *****************

           --- An Ab Initio, DFT and Semiempirical electronic structure package ---

                  #######################################################
                  #                        -***-                        #
                  #  Department of molecular theory and spectroscopy    #
                  #              Directorship: Frank Neese              #
                  # Max Planck Institute for Chemical Energy Conversion #
                  #                  D-45470 Muelheim/Ruhr              #
                  #                       Germany                       #
                  #                                                     #
                  #                  All rights reserved                #
                  #                        -***-                        #
                  #######################################################


                         Program Version 4.0.0.2 - RELEASE -


 With contributions from (in alphabetic order):
   Daniel Aravena         : Magnetic Properties
   Michael Atanasov       : Ab Initio Ligand Field Theory
   Ute Becker             : Parallelization
   Martin Brehm           : Molecular dynamics
   Dmytro Bykov           : SCF Hessian
   Vijay G. Chilkuri      : MRCI spin determinant printing
   Dipayan Datta          : RHF DLPNO-CCSD density
   Achintya Kumar Dutta   : EOM-CC, STEOM-CC
   Dmitry Ganyushin       : Spin-Orbit,Spin-Spin,Magnetic field MRCI
   Yang Guo               : DLPNO-NEVPT2, CIM, IAO-localization
   Andreas Hansen         : Spin unrestricted coupled pair/coupled cluster methods
   Lee Huntington         : MR-EOM, pCC
   Robert Izsak           : Overlap fitted RIJCOSX, COSX-SCS-MP3, EOM
   Christian Kollmar      : KDIIS, OOCD, Brueckner-CCSD(T), CCSD density
   Simone Kossmann        : Meta GGA functionals, TD-DFT gradient, OOMP2, MP2 Hessian
   Martin Krupicka        : AUTO-CI
   Dagmar Lenk            : GEPOL surface
   Dimitrios Liakos       : Extrapolation schemes; parallel MDCI
   Dimitrios Manganas     : ROCIS; embedding schemes
   Dimitrios Pantazis     : SARC Basis sets
   Taras Petrenko         : DFT Hessian,TD-DFT gradient, ASA, ECA, R-Raman, ABS, FL, XAS/XES, NRVS
   Peter Pinski           : DLPNO-MP2
   Christoph Reimann      : Effective Core Potentials
   Marius Retegan         : Local ZFS, SOC
   Christoph Riplinger    : Optimizer, TS searches, QM/MM, DLPNO-CCSD(T), (RO)-DLPNO pert. Triples
   Tobias Risthaus        : Range-separated hybrids, TD-DFT gradient, RPA, STAB
   Michael Roemelt        : Restricted open shell CIS
   Masaaki Saitow         : Open-shell DLPNO
   Barbara Sandhoefer     : DKH picture change effects
   Kantharuban Sivalingam : CASSCF convergence, NEVPT2, FIC-MRCI
   Georgi Stoychev        : AutoAux
   Boris Wezisla          : Elementary symmetry handling
   Frank Wennmohs         : Technical directorship


 We gratefully acknowledge several colleagues who have allowed us to
 interface, adapt or use parts of their codes:
   Stefan Grimme, W. Hujo, H. Kruse,             : VdW corrections, initial TS optimization,
                  C. Bannwarth                     DFT functionals, gCP, sTDA/sTD-DF
   Ed Valeev                                     : LibInt (2-el integral package), F12 methods
   Garnet Chan, S. Sharma, J. Yang, R. Olivares  : DMRG
   Ulf Ekstrom                                   : XCFun DFT Library
   Mihaly Kallay                                 : mrcc  (arbitrary order and MRCC methods)
   Jiri Pittner, Ondrej Demel                    : Mk-CCSD
   Frank Weinhold                                : gennbo (NPA and NBO analysis)
   Christopher J. Cramer and Donald G. Truhlar   : smd solvation model


 Your calculation uses the libint2 library for the computation of 2-el integrals
 For citations please refer to: http://libint.valeyev.net

 This ORCA versions uses:
   CBLAS   interface :  Fast vector & matrix operations
   LAPACKE interface :  Fast linear algebra routines
   SCALAPACK package :  Parallel linear algebra routines


Your calculation utilizes the atom-pairwise dispersion correction
with the zero-damping scheme (D30)
Cite in your paper:
S.Grimme, J.Antony, S.Ehrlich and H.Krieg, J.Chem.Phys., 132, (2010), 154104 
   

XCFun DFT library Copyright 2009-2010 Ulf Ekstrom and contributors.
See http://admol.org/xcfun for more information. This is free soft-
ware; see the source code for copying conditions. There is ABSOLUTELY
NO WARRANTY; not even for MERCHANTABILITY or FITNESS FOR A PARTICULAR
PURPOSE. For details see the documentation. Scientific users of this 
library should cite U. Ekstrom, L. Visscher, R. Bast, A. J. Thorvald-
sen and K. Ruud; J.Chem.Theor.Comp. 2010, DOI: 10.1021/ct100117s
XCFun Version 0.99 
Your calculation utilizes the basis: 6-31G(d)
   H-He, Li-Ne : W. J. Hehre, R. Ditchfield and J.A. Pople, J. Chem. Phys. 56, 2257 (1972).
                 Note: He and Ne are unpublished basis sets taken from the Gaussian program.
                 Note: Li and B from J. D. Dill and J. A. Pople, J. Chem. Phys. 62, 2921 (1975).
   Na - Ar     : M. M. Francl, W. J. Pietro, W. J. Hehre, J. S. Binkley, M. S. Gordon, 
                 D. J. DeFrees and J. A. Pople, J. Chem. Phys. 77, 3654 (1982).
   K - Zn      : V. A. Rassolov, J. A. Pople, M. A. Ratner, and T. L. Windus, J. Chem. Phys. 109, 1223 (1998).

================================================================================
                                        WARNINGS
                       Please study these warnings very carefully!
================================================================================

Warning: TCutStore was < 0. Adjusted to Thresh (uncritical)

INFO   : the flag for use of LIBINT has been found!

================================================================================
                                       INPUT FILE
================================================================================
NAME = initial25.inp
|  1> ! WB97X-D3 6-31G(d) VerySlowConv
|  2> ! KDIIS NOSOSCF
|  3> %base "Scan_25"
|  4> 
|  5> %scf
|  6> maxiter 999
|  7> end
|  8> 
|  9> * xyz 0 1
| 10> C         -3.731132662589    2.558639879630    0.000000049895
| 11> C         -0.793376734066    2.698601275691    0.000000186019
| 12> H         -3.838502520177    3.664266993809   -0.000000176121
| 13> H         -0.686008083168    1.592971850869   -0.000000059794
| 14> **                         ****END OF INPUT****
================================================================================

                       ****************************
                       * Single Point Calculation *
                       ****************************

---------------------------------
CARTESIAN COORDINATES (ANGSTROEM)
---------------------------------
  C     -3.731133    2.558640    0.000000
  C     -0.793377    2.698601    0.000000
  H     -3.838503    3.664267   -0.000000
  H     -0.686008    1.592972   -0.000000

----------------------------
CARTESIAN COORDINATES (A.U.)
----------------------------
  NO LB      ZA    FRAG     MASS         X           Y           Z
   0 C     6.0000    0    12.011   -7.050819    4.835129    0.000000
   1 C     6.0000    0    12.011   -1.499265    5.099617    0.000000
   2 H     1.0000    0     1.008   -7.253719    6.924461   -0.000000
   3 H     1.0000    0     1.008   -1.296367    3.010281   -0.000000

--------------------------------
INTERNAL COORDINATES (ANGSTROEM)
--------------------------------
 C      0   0   0     0.000000000000     0.00000000     0.00000000
 C      1   0   0     2.941088078919     0.00000000     0.00000000
 H      1   2   0     1.110828340441    92.81908575     0.00000000
 H      2   1   3     1.110830523630    92.81901229   180.00002436

---------------------------
INTERNAL COORDINATES (A.U.)
---------------------------
 C      0   0   0     0.000000000000     0.00000000     0.00000000
 C      1   0   0     5.557851004897     0.00000000     0.00000000
 H      1   2   0     2.099161345231    92.81908575     0.00000000
 H      2   1   3     2.099165470861    92.81901229   180.00002436

---------------------
BASIS SET INFORMATION
---------------------
There are 2 groups of distinct atoms

 Group   1 Type C   : 10s4p1d contracted to 3s2p1d pattern {631/31/1}
 Group   2 Type H   : 4s contracted to 2s pattern {31}

Atom   0C    basis set group =>   1
Atom   1C    basis set group =>   1
Atom   2H    basis set group =>   2
Atom   3H    basis set group =>   2
------------------------------------------------------------------------------
                           ORCA GTO INTEGRAL CALCULATION
------------------------------------------------------------------------------

                         BASIS SET STATISTICS AND STARTUP INFO

 # of primitive gaussian shells          ...   38
 # of primitive gaussian functions       ...   62
 # of contracted shells                  ...   16
 # of contracted basis functions         ...   32
 Highest angular momentum                ...    2
 Maximum contraction depth               ...    6
 Integral package used                   ... LIBINT
 Integral threshhold            Thresh   ...  1.000e-10
 Primitive cut-off              TCut     ...  1.000e-11


------------------------------ INTEGRAL EVALUATION ----------------------------


 * One electron integrals 
 Pre-screening matrix                    ... done
 Shell pair data                         ... done (   0.000 sec)

-------------------------------------------------------------------------------
                                 ORCA SCF
-------------------------------------------------------------------------------

------------
SCF SETTINGS
------------
Hamiltonian:
 Density Functional     Method          .... DFT(GTOs)
 Exchange Functional    Exchange        .... WB97X-D3
 Correlation Functional Correlation     .... WB97X-D3
 Gradients option       PostSCFGGA      .... off
 Hybrid DFT is turned on
   Fraction HF Exchange ScalHFX         ....  0.195728
   Scaling of DF-GGA-X  ScalDFX         ....  0.000000
   Scaling of DF-GGA-C  ScalDFC         ....  1.000000
   Scaling of DF-LDA-C  ScalLDAC        ....  1.000000
   Perturbative correction              ....  0.000000
 Long-range corrected/Screened/Range-Separated Hybrid DFT is turned on
   Amount of maximum screened exact exchange              ....  0.804272
   Range separation parameter mu (erf(mu*r12)/r12)        ....  0.250000


General Settings:
 Integral files         IntName         .... Scan_25
 Hartree-Fock type      HFTyp           .... RHF
 Total Charge           Charge          ....    0
 Multiplicity           Mult            ....    1
 Number of Electrons    NEL             ....   14
 Basis Dimension        Dim             ....   32
 Nuclear Repulsion      ENuc            ....     14.3219605458 Eh

Convergence Acceleration:
 DIIS                   CNVDIIS         .... on
   Start iteration      DIISMaxIt       ....     0
   Startup error        DIISStart       ....  0.200000
   # of expansion vecs  DIISMaxEq       ....     5
   Bias factor          DIISBfac        ....   1.050
   Max. coefficient     DIISMaxC        ....  10.000
 Newton-Raphson         CNVNR           .... off
 SOSCF                  CNVSOSCF        .... off
 Level Shifting         CNVShift        .... off
 Zerner damping         CNVZerner       .... off
 Static damping         CNVDamp         .... off
 Fernandez-Rico         CNVRico         .... off

SCF Procedure:
 Maximum # iterations   MaxIter         ....   999
 SCF integral mode      SCFMode         .... Direct
   Integral package                     .... LIBINT
 Reset frequeny         DirectResetFreq ....    20
 Integral Threshold     Thresh          ....  1.000e-10 Eh
 Primitive CutOff       TCut            ....  1.000e-11 Eh

Convergence Tolerance:
 Convergence Check Mode ConvCheckMode   .... All-Criteria
 Convergence forced     ConvForced      .... 0
 Energy Change          TolE            ....  1.000e-06 Eh
 Max Density Change     TolMaxP         ....  1.000e-05
 RMS Density Change     TolRMSP         ....  1.000e-06
 DIIS Error             TolErr          ....  1.000e-06


Diagonalization of the overlap matrix:
Smallest eigenvalue                        ... 4.354e-02
Time for diagonalization                   ...    0.000 sec
Threshold for overlap eigenvalues          ... 1.000e-08
Number of eigenvalues below threshold      ... 0
Time for construction of square roots      ...    0.006 sec
Total time needed                          ...    0.007 sec

-------------------
DFT GRID GENERATION
-------------------

General Integration Accuracy     IntAcc      ...  4.340
Radial Grid Type                 RadialGrid  ... Gauss-Chebyshev
Angular Grid (max. acc.)         AngularGrid ... Lebedev-110
Angular grid pruning method      GridPruning ... 3 (G Style)
Weight generation scheme         WeightScheme... Becke
Basis function cutoff            BFCut       ...    1.0000e-10
Integration weight cutoff        WCut        ...    1.0000e-14
Grids for H and He will be reduced by one unit

# of grid points (after initial pruning)     ...   4900 (   0.0 sec)
# of grid points (after weights+screening)   ...   4840 (   0.0 sec)
nearest neighbour list constructed           ...    0.0 sec
Grid point re-assignment to atoms done       ...    0.0 sec
Grid point division into batches done        ...    0.0 sec
Reduced shell lists constructed in    0.0 sec

Total number of grid points                  ...     4840
Total number of batches                      ...       78
Average number of points per batch           ...       62
Average number of grid points per atom       ...     1210
Average number of shells per batch           ...    13.23 (82.67%)
Average number of basis functions per batch  ...    27.05 (84.53%)
Average number of large shells per batch     ...    10.96 (82.87%)
Average number of large basis fcns per batch ...    21.85 (80.77%)
Maximum spatial batch extension              ...  21.62, 19.79, 31.36 au
Average spatial batch extension              ...   6.12,  5.35,  6.79 au

Time for grid setup =    0.030 sec

------------------------------
INITIAL GUESS: MODEL POTENTIAL
------------------------------
Loading Hartree-Fock densities                     ... done
Calculating cut-offs                               ... done
Setting up the integral package                    ... done
Initializing the effective Hamiltonian             ... done
Starting the Coulomb interaction                   ... done (   0.0 sec)
Reading the grid                                   ... done
Mapping shells                                     ... done
Starting the XC term evaluation                    ... done (   0.0 sec)
  promolecular density results
     # of electrons  =     13.997323382
     EX              =    -10.516771393
     EC              =     -0.382204532
     EX+EC           =    -10.898975925
Transforming the Hamiltonian                       ... done (   0.0 sec)
Diagonalizing the Hamiltonian                      ... done (   0.0 sec)
Back transforming the eigenvectors                 ... done (   0.0 sec)
Now organizing SCF variables                       ... done
                      ------------------
                      INITIAL GUESS DONE (   0.1 sec)
                      ------------------
--------------
SCF ITERATIONS
--------------
ITER       Energy         Delta-E        Max-DP      RMS-DP      [F,P]   Gradient Norm
               ***  Starting incremental Fock matrix formation  ***
                             ****Resetting KDIIS****
                             ****Turning on KDIIS(Cayley)****
  0    -76.8883950962   0.000000000000 0.00501103  0.00043447  0.0257540   0.024839544
  1    -76.8893229081  -0.000927811869 0.00635631  0.00073664  0.0232495   0.022422735
  2    -76.8907653342  -0.001442426046 0.01134091  0.00131531  0.0185981   0.018043735
  3    -76.8925478670  -0.001782532798 0.01705713  0.00201707  0.0111558   0.010823794
  4    -76.8935638967  -0.001016029705 0.00028807  0.00003645  0.0001232   0.000091462
                          ***Energy convergence achieved***
  5    -76.8935641562  -0.000000259569 0.00011209  0.00000768  0.0000390   0.000029001

            ***Energy convergence in two consecutive cycles with***
                    ***'reasonable' density convergence***
                       *** signaling convergence ***

                    *** KDIIS BlockDiag ( 0.000 sec) ***

               *****************************************************
               *                     SUCCESS                       *
               *           SCF CONVERGED AFTER   6 CYCLES          *
               *****************************************************

Setting up the final grid:

General Integration Accuracy     IntAcc      ...  4.670
Radial Grid Type                 RadialGrid  ... Gauss-Chebyshev
Angular Grid (max. acc.)         AngularGrid ... Lebedev-302
Angular grid pruning method      GridPruning ... 3 (G Style)
Weight generation scheme         WeightScheme... Becke
Basis function cutoff            BFCut       ...    1.0000e-10
Integration weight cutoff        WCut        ...    1.0000e-14
Grids for H and He will be reduced by one unit

# of grid points (after initial pruning)     ...  19212 (   0.0 sec)
# of grid points (after weights+screening)   ...  19002 (   0.0 sec)
nearest neighbour list constructed           ...    0.0 sec
Grid point re-assignment to atoms done       ...    0.0 sec
Grid point division into batches done        ...    0.1 sec
Reduced shell lists constructed in    0.1 sec

Total number of grid points                  ...    19002
Total number of batches                      ...      298
Average number of points per batch           ...       63
Average number of grid points per atom       ...     4750
Average number of shells per batch           ...    11.81 (73.79%)
Average number of basis functions per batch  ...    24.25 (75.77%)
Average number of large shells per batch     ...     9.65 (81.73%)
Average number of large basis fcns per batch ...    19.17 (79.05%)
Maximum spatial batch extension              ...  19.43, 21.17, 24.37 au
Average spatial batch extension              ...   3.77,  3.43,  3.95 au

Final grid set up in    0.2 sec
Final integration                            ... done (   0.1 sec)
Change in XC energy                          ...     0.000694502
Integrated number of electrons               ...    13.999988070
Previous integrated no of electrons          ...    14.000242090

----------------
TOTAL SCF ENERGY
----------------

Total Energy       :          -76.89286966 Eh           -2092.36136 eV

Components:
Nuclear Repulsion  :           14.32196055 Eh             389.72036 eV
Electronic Energy  :          -91.21483020 Eh           -2482.08172 eV
One Electron Energy:         -130.57051062 Eh           -3553.00423 eV
Two Electron Energy:           39.35568042 Eh            1070.92251 eV

Virial components:
Potential Energy   :         -153.21793726 Eh           -4169.27203 eV
Kinetic Energy     :           76.32506760 Eh            2076.91068 eV
Virial Ratio       :            2.00743926


DFT components:
N(Alpha)           :        6.999994034935 electrons
N(Beta)            :        6.999994034935 electrons
N(Total)           :       13.999988069870 electrons
E(XC)              :       -7.586405026832 Eh       

---------------
SCF CONVERGENCE
---------------

  Last Energy change         ...   -3.3506e-09  Tolerance :   1.0000e-06
  Last MAX-Density change    ...    6.9038e-05  Tolerance :   1.0000e-05
  Last RMS-Density change    ...    4.9114e-06  Tolerance :   1.0000e-06
  Last DIIS Error            ...    4.0195e-05  Tolerance :   1.0000e-06

             **** THE GBW FILE WAS UPDATED (Scan_25.gbw) ****
             **** DENSITY FILE WAS UPDATED (Scan_25.scfp.tmp) ****
             **** ENERGY FILE WAS UPDATED (Scan_25.en.tmp) ****
----------------
ORBITAL ENERGIES
----------------

  NO   OCC          E(Eh)            E(eV) 
   0   2.0000     -10.403003      -283.0801 
   1   2.0000     -10.402828      -283.0754 
   2   2.0000      -0.747262       -20.3340 
   3   2.0000      -0.731360       -19.9013 
   4   2.0000      -0.405300       -11.0288 
   5   2.0000      -0.404485       -11.0066 
   6   2.0000      -0.279908        -7.6167 
   7   0.0000      -0.040028        -1.0892 
   8   0.0000      -0.030878        -0.8402 
   9   0.0000      -0.021102        -0.5742 
  10   0.0000       0.216945         5.9034 
  11   0.0000       0.238525         6.4906 
  12   0.0000       0.622374        16.9357 
  13   0.0000       0.622386        16.9360 
  14   0.0000       0.623461        16.9652 
  15   0.0000       0.679736        18.4965 
  16   0.0000       0.693198        18.8629 
  17   0.0000       0.704595        19.1730 
  18   0.0000       0.730084        19.8666 
  19   0.0000       0.957521        26.0555 
  20   0.0000       0.971110        26.4252 
  21   0.0000       1.030720        28.0473 
  22   0.0000       1.752279        47.6819 
  23   0.0000       1.752376        47.6846 
  24   0.0000       1.767264        48.0897 
  25   0.0000       1.770271        48.1715 
  26   0.0000       1.780064        48.4380 
  27   0.0000       1.783754        48.5384 
  28   0.0000       1.784923        48.5702 
  29   0.0000       1.820637        49.5421 
  30   0.0000       2.194728        59.7216 
  31   0.0000       2.226355        60.5822 

                    ********************************
                    * MULLIKEN POPULATION ANALYSIS *
                    ********************************

-----------------------
MULLIKEN ATOMIC CHARGES
-----------------------
   0 C :   -0.162458
   1 C :   -0.162197
   2 H :    0.162346
   3 H :    0.162310
Sum of atomic charges:   -0.0000000

--------------------------------
MULLIKEN REDUCED ORBITAL CHARGES
--------------------------------
  0 C s       :     3.912786  s :     3.912786
      pz      :     0.000000  p :     2.234609
      px      :     1.001074
      py      :     1.233535
      dz2     :     0.003678  d :     0.015064
      dxz     :     0.000000
      dyz     :     0.000000
      dx2y2   :     0.010538
      dxy     :     0.000849
  1 C s       :     3.912783  s :     3.912783
      pz      :     0.000000  p :     2.234351
      px      :     1.000849
      py      :     1.233502
      dz2     :     0.003678  d :     0.015064
      dxz     :     0.000000
      dyz     :     0.000000
      dx2y2   :     0.010537
      dxy     :     0.000849
  2 H s       :     0.837654  s :     0.837654
  3 H s       :     0.837690  s :     0.837690


                     *******************************
                     * LOEWDIN POPULATION ANALYSIS *
                     *******************************

----------------------
LOEWDIN ATOMIC CHARGES
----------------------
   0 C :   -0.113846
   1 C :   -0.113597
   2 H :    0.113734
   3 H :    0.113709

-------------------------------
LOEWDIN REDUCED ORBITAL CHARGES
-------------------------------
  0 C s       :     3.744008  s :     3.744008
      pz      :     0.000000  p :     2.349424
      px      :     1.005634
      py      :     1.343791
      dz2     :     0.005014  d :     0.020413
      dxz     :     0.000000
      dyz     :     0.000000
      dx2y2   :     0.014418
      dxy     :     0.000982
  1 C s       :     3.744005  s :     3.744005
      pz      :     0.000000  p :     2.349178
      px      :     1.005411
      py      :     1.343768
      dz2     :     0.005014  d :     0.020413
      dxz     :     0.000000
      dyz     :     0.000000
      dx2y2   :     0.014418
      dxy     :     0.000982
  2 H s       :     0.886266  s :     0.886266
  3 H s       :     0.886291  s :     0.886291


                      *****************************
                      * MAYER POPULATION ANALYSIS *
                      *****************************

  NA   - Mulliken gross atomic population
  ZA   - Total nuclear charge
  QA   - Mulliken gross atomic charge
  VA   - Mayer's total valence
  BVA  - Mayer's bonded valence
  FA   - Mayer's free valence

  ATOM       NA         ZA         QA         VA         BVA        FA
  0 C      6.1625     6.0000    -0.1625     1.9094     1.9094    -0.0000
  1 C      6.1622     6.0000    -0.1622     1.9094     1.9094     0.0000
  2 H      0.8377     1.0000     0.1623     0.9070     0.9070    -0.0000
  3 H      0.8377     1.0000     0.1623     0.9070     0.9070     0.0000

  Mayer bond orders larger than 0.1
B(  0-C ,  1-C ) :   1.0024 B(  0-C ,  2-H ) :   0.9063 B(  1-C ,  3-H ) :   0.9063 


-------
TIMINGS
-------

Total SCF time: 0 days 0 hours 0 min 2 sec 

Total time                  ....       2.495 sec
Sum of individual times     ....       2.391 sec  ( 95.9%)

Fock matrix formation       ....       2.080 sec  ( 83.4%)
  XC integration            ....       0.507 sec  ( 24.4% of F)
    Basis function eval.    ....       0.165 sec  ( 32.6% of XC)
    Density eval.           ....       0.025 sec  (  4.9% of XC)
    XC-Functional eval.     ....       0.150 sec  ( 29.7% of XC)
    XC-Potential eval.      ....       0.019 sec  (  3.7% of XC)
Diagonalization             ....       0.004 sec  (  0.2%)
Density matrix formation    ....       0.000 sec  (  0.0%)
Population analysis         ....       0.010 sec  (  0.4%)
Initial guess               ....       0.114 sec  (  4.6%)
Orbital Transformation      ....       0.000 sec  (  0.0%)
Orbital Orthonormalization  ....       0.000 sec  (  0.0%)
DIIS solution               ....       0.000 sec  (  0.0%)
Grid generation             ....       0.182 sec  (  7.3%)


-------------------------------------------------------------------------------
                          DFT DISPERSION CORRECTION                            
                                                                               
                              DFTD3 V3.1  Rev 1                                
                              USING zero damping                               
-------------------------------------------------------------------------------
The omegaB97X-D3 functional is recognized. Fit by Chai et al.
Active option DFTDOPT                   ...         3   

molecular C6(AA) [au] = 276.754533 


            DFT-D V3
 parameters
 s6 scaling factor         :     1.0000 
 rs6 scaling factor        :     1.2810 
 s8 scaling factor         :     1.0000 
 rs8 scaling factor        :     1.0940 
 Damping factor alpha6     :    14.0000 
 Damping factor alpha8     :    16.0000 
 ad hoc parameters k1-k3   :    16.0000     1.3333    -4.0000 

 Edisp/kcal,au: -0.226376574326  -0.000360753996 
 E6   /kcal   :  -0.071794304 
 E8   /kcal   :  -0.154582270 
 % E8         :  68.285453364 

-------------------------   ----------------
Dispersion correction           -0.000360754
-------------------------   ----------------


-------------------------   --------------------
FINAL SINGLE POINT ENERGY       -76.893230411979
-------------------------   --------------------


                            ***************************************
                            *     ORCA property calculations      *
                            ***************************************

                                    ---------------------
                                    Active property flags
                                    ---------------------
   (+) Dipole Moment


------------------------------------------------------------------------------
                       ORCA ELECTRIC PROPERTIES CALCULATION
------------------------------------------------------------------------------

Dipole Moment Calculation                       ... on
Quadrupole Moment Calculation                   ... off
Polarizability Calculation                      ... off
GBWName                                         ... Scan_25.gbw
Electron density file                           ... Scan_25.scfp.tmp

-------------
DIPOLE MOMENT
-------------
                                X             Y             Z
Electronic contribution:      0.00061       0.00008       0.00000
Nuclear contribution   :     -0.00000      -0.00000      -0.00000
                        -----------------------------------------
Total Dipole Moment    :      0.00061       0.00008      -0.00000
                        -----------------------------------------
Magnitude (a.u.)       :      0.00061
Magnitude (Debye)      :      0.00155


Timings for individual modules:

Sum of individual times         ...        2.815 sec (=   0.047 min)
GTO integral calculation        ...        0.298 sec (=   0.005 min)  10.6 %
SCF iterations                  ...        2.516 sec (=   0.042 min)  89.4 %
                             ****ORCA TERMINATED NORMALLY****
TOTAL RUN TIME: 0 days 0 hours 0 minutes 3 seconds 151 msec
