
                                 *****************
                                 * O   R   C   A *
                                 *****************

           --- An Ab Initio, DFT and Semiempirical electronic structure package ---

                  #######################################################
                  #                        -***-                        #
                  #  Department of molecular theory and spectroscopy    #
                  #              Directorship: Frank Neese              #
                  # Max Planck Institute for Chemical Energy Conversion #
                  #                  D-45470 Muelheim/Ruhr              #
                  #                       Germany                       #
                  #                                                     #
                  #                  All rights reserved                #
                  #                        -***-                        #
                  #######################################################


                         Program Version 4.0.0.2 - RELEASE -


 With contributions from (in alphabetic order):
   Daniel Aravena         : Magnetic Properties
   Michael Atanasov       : Ab Initio Ligand Field Theory
   Ute Becker             : Parallelization
   Martin Brehm           : Molecular dynamics
   Dmytro Bykov           : SCF Hessian
   Vijay G. Chilkuri      : MRCI spin determinant printing
   Dipayan Datta          : RHF DLPNO-CCSD density
   Achintya Kumar Dutta   : EOM-CC, STEOM-CC
   Dmitry Ganyushin       : Spin-Orbit,Spin-Spin,Magnetic field MRCI
   Yang Guo               : DLPNO-NEVPT2, CIM, IAO-localization
   Andreas Hansen         : Spin unrestricted coupled pair/coupled cluster methods
   Lee Huntington         : MR-EOM, pCC
   Robert Izsak           : Overlap fitted RIJCOSX, COSX-SCS-MP3, EOM
   Christian Kollmar      : KDIIS, OOCD, Brueckner-CCSD(T), CCSD density
   Simone Kossmann        : Meta GGA functionals, TD-DFT gradient, OOMP2, MP2 Hessian
   Martin Krupicka        : AUTO-CI
   Dagmar Lenk            : GEPOL surface
   Dimitrios Liakos       : Extrapolation schemes; parallel MDCI
   Dimitrios Manganas     : ROCIS; embedding schemes
   Dimitrios Pantazis     : SARC Basis sets
   Taras Petrenko         : DFT Hessian,TD-DFT gradient, ASA, ECA, R-Raman, ABS, FL, XAS/XES, NRVS
   Peter Pinski           : DLPNO-MP2
   Christoph Reimann      : Effective Core Potentials
   Marius Retegan         : Local ZFS, SOC
   Christoph Riplinger    : Optimizer, TS searches, QM/MM, DLPNO-CCSD(T), (RO)-DLPNO pert. Triples
   Tobias Risthaus        : Range-separated hybrids, TD-DFT gradient, RPA, STAB
   Michael Roemelt        : Restricted open shell CIS
   Masaaki Saitow         : Open-shell DLPNO
   Barbara Sandhoefer     : DKH picture change effects
   Kantharuban Sivalingam : CASSCF convergence, NEVPT2, FIC-MRCI
   Georgi Stoychev        : AutoAux
   Boris Wezisla          : Elementary symmetry handling
   Frank Wennmohs         : Technical directorship


 We gratefully acknowledge several colleagues who have allowed us to
 interface, adapt or use parts of their codes:
   Stefan Grimme, W. Hujo, H. Kruse,             : VdW corrections, initial TS optimization,
                  C. Bannwarth                     DFT functionals, gCP, sTDA/sTD-DF
   Ed Valeev                                     : LibInt (2-el integral package), F12 methods
   Garnet Chan, S. Sharma, J. Yang, R. Olivares  : DMRG
   Ulf Ekstrom                                   : XCFun DFT Library
   Mihaly Kallay                                 : mrcc  (arbitrary order and MRCC methods)
   Jiri Pittner, Ondrej Demel                    : Mk-CCSD
   Frank Weinhold                                : gennbo (NPA and NBO analysis)
   Christopher J. Cramer and Donald G. Truhlar   : smd solvation model


 Your calculation uses the libint2 library for the computation of 2-el integrals
 For citations please refer to: http://libint.valeyev.net

 This ORCA versions uses:
   CBLAS   interface :  Fast vector & matrix operations
   LAPACKE interface :  Fast linear algebra routines
   SCALAPACK package :  Parallel linear algebra routines


Your calculation utilizes the atom-pairwise dispersion correction
with the zero-damping scheme (D30)
Cite in your paper:
S.Grimme, J.Antony, S.Ehrlich and H.Krieg, J.Chem.Phys., 132, (2010), 154104 
   

XCFun DFT library Copyright 2009-2010 Ulf Ekstrom and contributors.
See http://admol.org/xcfun for more information. This is free soft-
ware; see the source code for copying conditions. There is ABSOLUTELY
NO WARRANTY; not even for MERCHANTABILITY or FITNESS FOR A PARTICULAR
PURPOSE. For details see the documentation. Scientific users of this 
library should cite U. Ekstrom, L. Visscher, R. Bast, A. J. Thorvald-
sen and K. Ruud; J.Chem.Theor.Comp. 2010, DOI: 10.1021/ct100117s
XCFun Version 0.99 
Your calculation utilizes the basis: 6-31G(d)
   H-He, Li-Ne : W. J. Hehre, R. Ditchfield and J.A. Pople, J. Chem. Phys. 56, 2257 (1972).
                 Note: He and Ne are unpublished basis sets taken from the Gaussian program.
                 Note: Li and B from J. D. Dill and J. A. Pople, J. Chem. Phys. 62, 2921 (1975).
   Na - Ar     : M. M. Francl, W. J. Pietro, W. J. Hehre, J. S. Binkley, M. S. Gordon, 
                 D. J. DeFrees and J. A. Pople, J. Chem. Phys. 77, 3654 (1982).
   K - Zn      : V. A. Rassolov, J. A. Pople, M. A. Ratner, and T. L. Windus, J. Chem. Phys. 109, 1223 (1998).

================================================================================
                                        WARNINGS
                       Please study these warnings very carefully!
================================================================================

Warning: TCutStore was < 0. Adjusted to Thresh (uncritical)

INFO   : the flag for use of LIBINT has been found!

================================================================================
                                       INPUT FILE
================================================================================
NAME = initial26.inp
|  1> ! WB97X-D3 6-31G(d) VerySlowConv
|  2> ! KDIIS NOSOSCF
|  3> %base "Scan_26"
|  4> 
|  5> %scf
|  6> maxiter 999
|  7> end
|  8> 
|  9> * xyz 0 1
| 10> C         -3.784451602567    2.559286765889    0.000000009502
| 11> C         -0.740058705649    2.697953182281    0.000000150481
| 12> H         -3.849506844670    3.668527541887   -0.000000138601
| 13> H         -0.675002847114    1.588712509943   -0.000000021382
| 14> **                         ****END OF INPUT****
================================================================================

                       ****************************
                       * Single Point Calculation *
                       ****************************

---------------------------------
CARTESIAN COORDINATES (ANGSTROEM)
---------------------------------
  C     -3.784452    2.559287    0.000000
  C     -0.740059    2.697953    0.000000
  H     -3.849507    3.668528   -0.000000
  H     -0.675003    1.588713   -0.000000

----------------------------
CARTESIAN COORDINATES (A.U.)
----------------------------
  NO LB      ZA    FRAG     MASS         X           Y           Z
   0 C     6.0000    0    12.011   -7.151577    4.836351    0.000000
   1 C     6.0000    0    12.011   -1.398508    5.098393    0.000000
   2 H     1.0000    0     1.008   -7.274514    6.932512   -0.000000
   3 H     1.0000    0     1.008   -1.275571    3.002232   -0.000000

--------------------------------
INTERNAL COORDINATES (ANGSTROEM)
--------------------------------
 C      0   0   0     0.000000000000     0.00000000     0.00000000
 C      1   0   0     3.047549258969     0.00000000     0.00000000
 H      1   2   0     1.111146832629    90.74854995     0.00000000
 H      2   1   3     1.111146765238    90.74858200   180.00001649

---------------------------
INTERNAL COORDINATES (A.U.)
---------------------------
 C      0   0   0     0.000000000000     0.00000000     0.00000000
 C      1   0   0     5.759033479085     0.00000000     0.00000000
 H      1   2   0     2.099763208243    90.74854995     0.00000000
 H      2   1   3     2.099763080892    90.74858200   180.00001649

---------------------
BASIS SET INFORMATION
---------------------
There are 2 groups of distinct atoms

 Group   1 Type C   : 10s4p1d contracted to 3s2p1d pattern {631/31/1}
 Group   2 Type H   : 4s contracted to 2s pattern {31}

Atom   0C    basis set group =>   1
Atom   1C    basis set group =>   1
Atom   2H    basis set group =>   2
Atom   3H    basis set group =>   2
------------------------------------------------------------------------------
                           ORCA GTO INTEGRAL CALCULATION
------------------------------------------------------------------------------

                         BASIS SET STATISTICS AND STARTUP INFO

 # of primitive gaussian shells          ...   38
 # of primitive gaussian functions       ...   62
 # of contracted shells                  ...   16
 # of contracted basis functions         ...   32
 Highest angular momentum                ...    2
 Maximum contraction depth               ...    6
 Integral package used                   ... LIBINT
 Integral threshhold            Thresh   ...  1.000e-10
 Primitive cut-off              TCut     ...  1.000e-11


------------------------------ INTEGRAL EVALUATION ----------------------------


 * One electron integrals 
 Pre-screening matrix                    ... done
 Shell pair data                         ... done (   0.000 sec)

-------------------------------------------------------------------------------
                                 ORCA SCF
-------------------------------------------------------------------------------

------------
SCF SETTINGS
------------
Hamiltonian:
 Density Functional     Method          .... DFT(GTOs)
 Exchange Functional    Exchange        .... WB97X-D3
 Correlation Functional Correlation     .... WB97X-D3
 Gradients option       PostSCFGGA      .... off
 Hybrid DFT is turned on
   Fraction HF Exchange ScalHFX         ....  0.195728
   Scaling of DF-GGA-X  ScalDFX         ....  0.000000
   Scaling of DF-GGA-C  ScalDFC         ....  1.000000
   Scaling of DF-LDA-C  ScalLDAC        ....  1.000000
   Perturbative correction              ....  0.000000
 Long-range corrected/Screened/Range-Separated Hybrid DFT is turned on
   Amount of maximum screened exact exchange              ....  0.804272
   Range separation parameter mu (erf(mu*r12)/r12)        ....  0.250000


General Settings:
 Integral files         IntName         .... Scan_26
 Hartree-Fock type      HFTyp           .... RHF
 Total Charge           Charge          ....    0
 Multiplicity           Mult            ....    1
 Number of Electrons    NEL             ....   14
 Basis Dimension        Dim             ....   32
 Nuclear Repulsion      ENuc            ....     14.0548582499 Eh

Convergence Acceleration:
 DIIS                   CNVDIIS         .... on
   Start iteration      DIISMaxIt       ....     0
   Startup error        DIISStart       ....  0.200000
   # of expansion vecs  DIISMaxEq       ....     5
   Bias factor          DIISBfac        ....   1.050
   Max. coefficient     DIISMaxC        ....  10.000
 Newton-Raphson         CNVNR           .... off
 SOSCF                  CNVSOSCF        .... off
 Level Shifting         CNVShift        .... off
 Zerner damping         CNVZerner       .... off
 Static damping         CNVDamp         .... off
 Fernandez-Rico         CNVRico         .... off

SCF Procedure:
 Maximum # iterations   MaxIter         ....   999
 SCF integral mode      SCFMode         .... Direct
   Integral package                     .... LIBINT
 Reset frequeny         DirectResetFreq ....    20
 Integral Threshold     Thresh          ....  1.000e-10 Eh
 Primitive CutOff       TCut            ....  1.000e-11 Eh

Convergence Tolerance:
 Convergence Check Mode ConvCheckMode   .... All-Criteria
 Convergence forced     ConvForced      .... 0
 Energy Change          TolE            ....  1.000e-06 Eh
 Max Density Change     TolMaxP         ....  1.000e-05
 RMS Density Change     TolRMSP         ....  1.000e-06
 DIIS Error             TolErr          ....  1.000e-06


Diagonalization of the overlap matrix:
Smallest eigenvalue                        ... 4.405e-02
Time for diagonalization                   ...    0.001 sec
Threshold for overlap eigenvalues          ... 1.000e-08
Number of eigenvalues below threshold      ... 0
Time for construction of square roots      ...    0.016 sec
Total time needed                          ...    0.016 sec

-------------------
DFT GRID GENERATION
-------------------

General Integration Accuracy     IntAcc      ...  4.340
Radial Grid Type                 RadialGrid  ... Gauss-Chebyshev
Angular Grid (max. acc.)         AngularGrid ... Lebedev-110
Angular grid pruning method      GridPruning ... 3 (G Style)
Weight generation scheme         WeightScheme... Becke
Basis function cutoff            BFCut       ...    1.0000e-10
Integration weight cutoff        WCut        ...    1.0000e-14
Grids for H and He will be reduced by one unit

# of grid points (after initial pruning)     ...   4900 (   0.0 sec)
# of grid points (after weights+screening)   ...   4832 (   0.0 sec)
nearest neighbour list constructed           ...    0.0 sec
Grid point re-assignment to atoms done       ...    0.0 sec
Grid point division into batches done        ...    0.0 sec
Reduced shell lists constructed in    0.0 sec

Total number of grid points                  ...     4832
Total number of batches                      ...       78
Average number of points per batch           ...       61
Average number of grid points per atom       ...     1208
Average number of shells per batch           ...    13.20 (82.52%)
Average number of basis functions per batch  ...    27.00 (84.38%)
Average number of large shells per batch     ...    10.95 (82.93%)
Average number of large basis fcns per batch ...    21.86 (80.97%)
Maximum spatial batch extension              ...  21.14, 20.05, 25.60 au
Average spatial batch extension              ...   5.76,  5.34,  6.33 au

Time for grid setup =    0.043 sec

------------------------------
INITIAL GUESS: MODEL POTENTIAL
------------------------------
Loading Hartree-Fock densities                     ... done
Calculating cut-offs                               ... done
Setting up the integral package                    ... done
Initializing the effective Hamiltonian             ... done
Starting the Coulomb interaction                   ... done (   0.0 sec)
Reading the grid                                   ... done
Mapping shells                                     ... done
Starting the XC term evaluation                    ... done (   0.1 sec)
  promolecular density results
     # of electrons  =     13.997340135
     EX              =    -10.515928661
     EC              =     -0.381623075
     EX+EC           =    -10.897551736
Transforming the Hamiltonian                       ... done (   0.0 sec)
Diagonalizing the Hamiltonian                      ... done (   0.0 sec)
Back transforming the eigenvectors                 ... done (   0.0 sec)
Now organizing SCF variables                       ... done
                      ------------------
                      INITIAL GUESS DONE (   0.4 sec)
                      ------------------
--------------
SCF ITERATIONS
--------------
ITER       Energy         Delta-E        Max-DP      RMS-DP      [F,P]   Gradient Norm
               ***  Starting incremental Fock matrix formation  ***
                             ****Resetting KDIIS****
                             ****Turning on KDIIS(Cayley)****
  0    -76.8798337878   0.000000000000 0.00505507  0.00043960  0.0258517   0.024808143
  1    -76.8807728912  -0.000939103397 0.00660736  0.00074794  0.0233349   0.022395289
  2    -76.8822359603  -0.001463069135 0.01181452  0.00133652  0.0188792   0.018021862
  3    -76.8840452793  -0.001809318938 0.01779695  0.00205081  0.0113355   0.010810950
  4    -76.8850767828  -0.001031503504 0.00028341  0.00003648  0.0001311   0.000092416
                          ***Energy convergence achieved***
  5    -76.8850770598  -0.000000277041 0.00004044  0.00000520  0.0000198   0.000017030

            ***Energy convergence in two consecutive cycles with***
                    ***'reasonable' density convergence***
                       *** signaling convergence ***

                    *** KDIIS BlockDiag ( 0.000 sec) ***

               *****************************************************
               *                     SUCCESS                       *
               *           SCF CONVERGED AFTER   6 CYCLES          *
               *****************************************************

Setting up the final grid:

General Integration Accuracy     IntAcc      ...  4.670
Radial Grid Type                 RadialGrid  ... Gauss-Chebyshev
Angular Grid (max. acc.)         AngularGrid ... Lebedev-302
Angular grid pruning method      GridPruning ... 3 (G Style)
Weight generation scheme         WeightScheme... Becke
Basis function cutoff            BFCut       ...    1.0000e-10
Integration weight cutoff        WCut        ...    1.0000e-14
Grids for H and He will be reduced by one unit

# of grid points (after initial pruning)     ...  19212 (   0.0 sec)
# of grid points (after weights+screening)   ...  19008 (   0.0 sec)
nearest neighbour list constructed           ...    0.0 sec
Grid point re-assignment to atoms done       ...    0.0 sec
Grid point division into batches done        ...    0.2 sec
Reduced shell lists constructed in    0.5 sec

Total number of grid points                  ...    19008
Total number of batches                      ...      298
Average number of points per batch           ...       63
Average number of grid points per atom       ...     4752
Average number of shells per batch           ...    11.66 (72.87%)
Average number of basis functions per batch  ...    23.77 (74.27%)
Average number of large shells per batch     ...     9.53 (81.76%)
Average number of large basis fcns per batch ...    18.91 (79.57%)
Maximum spatial batch extension              ...  19.03, 19.22, 24.37 au
Average spatial batch extension              ...   3.84,  3.50,  4.01 au

Final grid set up in    0.5 sec
Final integration                            ... done (   0.3 sec)
Change in XC energy                          ...     0.000593663
Integrated number of electrons               ...    13.999993870
Previous integrated no of electrons          ...    14.000026782

----------------
TOTAL SCF ENERGY
----------------

Total Energy       :          -76.88448340 Eh           -2092.13316 eV

Components:
Nuclear Repulsion  :           14.05485825 Eh             382.45214 eV
Electronic Energy  :          -90.93934165 Eh           -2474.58529 eV
One Electron Energy:         -130.01988544 Eh           -3538.02095 eV
Two Electron Energy:           39.08054378 Eh            1063.43566 eV

Virial components:
Potential Energy   :         -153.21576678 Eh           -4169.21297 eV
Kinetic Energy     :           76.33128337 Eh            2077.07982 eV
Virial Ratio       :            2.00724736


DFT components:
N(Alpha)           :        6.999996934996 electrons
N(Beta)            :        6.999996934996 electrons
N(Total)           :       13.999993869992 electrons
E(XC)              :       -7.584170724266 Eh       

---------------
SCF CONVERGENCE
---------------

  Last Energy change         ...   -6.4852e-09  Tolerance :   1.0000e-06
  Last MAX-Density change    ...    1.2079e-05  Tolerance :   1.0000e-05
  Last RMS-Density change    ...    1.0259e-06  Tolerance :   1.0000e-06
  Last DIIS Error            ...    3.3301e-06  Tolerance :   1.0000e-06

             **** THE GBW FILE WAS UPDATED (Scan_26.gbw) ****
             **** DENSITY FILE WAS UPDATED (Scan_26.scfp.tmp) ****
             **** ENERGY FILE WAS UPDATED (Scan_26.en.tmp) ****
----------------
ORBITAL ENERGIES
----------------

  NO   OCC          E(Eh)            E(eV) 
   0   2.0000     -10.403939      -283.1056 
   1   2.0000     -10.403917      -283.1050 
   2   2.0000      -0.746867       -20.3233 
   3   2.0000      -0.733065       -19.9477 
   4   2.0000      -0.405717       -11.0401 
   5   2.0000      -0.404911       -11.0182 
   6   2.0000      -0.276202        -7.5158 
   7   0.0000      -0.039510        -1.0751 
   8   0.0000      -0.039344        -1.0706 
   9   0.0000      -0.023422        -0.6374 
  10   0.0000       0.217059         5.9065 
  11   0.0000       0.237469         6.4619 
  12   0.0000       0.605641        16.4803 
  13   0.0000       0.624916        17.0048 
  14   0.0000       0.626638        17.0517 
  15   0.0000       0.682724        18.5779 
  16   0.0000       0.689174        18.7534 
  17   0.0000       0.699308        19.0292 
  18   0.0000       0.728096        19.8125 
  19   0.0000       0.948763        25.8171 
  20   0.0000       0.970438        26.4070 
  21   0.0000       1.022283        27.8177 
  22   0.0000       1.751412        47.6583 
  23   0.0000       1.751420        47.6586 
  24   0.0000       1.765885        48.0522 
  25   0.0000       1.768242        48.1163 
  26   0.0000       1.779151        48.4132 
  27   0.0000       1.781684        48.4821 
  28   0.0000       1.783930        48.5432 
  29   0.0000       1.806480        49.1568 
  30   0.0000       2.196052        59.7576 
  31   0.0000       2.221890        60.4607 

                    ********************************
                    * MULLIKEN POPULATION ANALYSIS *
                    ********************************

-----------------------
MULLIKEN ATOMIC CHARGES
-----------------------
   0 C :   -0.162566
   1 C :   -0.162586
   2 H :    0.162575
   3 H :    0.162578
Sum of atomic charges:    0.0000000

--------------------------------
MULLIKEN REDUCED ORBITAL CHARGES
--------------------------------
  0 C s       :     3.915426  s :     3.915426
      pz      :     0.000000  p :     2.232114
      px      :     1.002243
      py      :     1.229871
      dz2     :     0.003664  d :     0.015027
      dxz     :     0.000000
      dyz     :     0.000000
      dx2y2   :     0.010700
      dxy     :     0.000663
  1 C s       :     3.915426  s :     3.915426
      pz      :     0.000000  p :     2.232133
      px      :     1.002260
      py      :     1.229873
      dz2     :     0.003664  d :     0.015027
      dxz     :     0.000000
      dyz     :     0.000000
      dx2y2   :     0.010700
      dxy     :     0.000663
  2 H s       :     0.837425  s :     0.837425
  3 H s       :     0.837422  s :     0.837422


                     *******************************
                     * LOEWDIN POPULATION ANALYSIS *
                     *******************************

----------------------
LOEWDIN ATOMIC CHARGES
----------------------
   0 C :   -0.113886
   1 C :   -0.113905
   2 H :    0.113894
   3 H :    0.113896

-------------------------------
LOEWDIN REDUCED ORBITAL CHARGES
-------------------------------
  0 C s       :     3.747741  s :     3.747741
      pz      :     0.000000  p :     2.345807
      px      :     1.005352
      py      :     1.340455
      dz2     :     0.004998  d :     0.020337
      dxz     :     0.000000
      dyz     :     0.000000
      dx2y2   :     0.014631
      dxy     :     0.000708
  1 C s       :     3.747741  s :     3.747741
      pz      :     0.000000  p :     2.345826
      px      :     1.005369
      py      :     1.340457
      dz2     :     0.004998  d :     0.020337
      dxz     :     0.000000
      dyz     :     0.000000
      dx2y2   :     0.014631
      dxy     :     0.000708
  2 H s       :     0.886106  s :     0.886106
  3 H s       :     0.886104  s :     0.886104


                      *****************************
                      * MAYER POPULATION ANALYSIS *
                      *****************************

  NA   - Mulliken gross atomic population
  ZA   - Total nuclear charge
  QA   - Mulliken gross atomic charge
  VA   - Mayer's total valence
  BVA  - Mayer's bonded valence
  FA   - Mayer's free valence

  ATOM       NA         ZA         QA         VA         BVA        FA
  0 C      6.1626     6.0000    -0.1626     1.9089     1.9089     0.0000
  1 C      6.1626     6.0000    -0.1626     1.9089     1.9089    -0.0000
  2 H      0.8374     1.0000     0.1626     0.9070     0.9070     0.0000
  3 H      0.8374     1.0000     0.1626     0.9070     0.9070    -0.0000

  Mayer bond orders larger than 0.1
B(  0-C ,  1-C ) :   1.0019 B(  0-C ,  2-H ) :   0.9063 B(  1-C ,  3-H ) :   0.9063 


-------
TIMINGS
-------

Total SCF time: 0 days 0 hours 0 min 9 sec 

Total time                  ....       9.429 sec
Sum of individual times     ....       8.813 sec  ( 93.5%)

Fock matrix formation       ....       7.592 sec  ( 80.5%)
  XC integration            ....       1.640 sec  ( 21.6% of F)
    Basis function eval.    ....       0.261 sec  ( 15.9% of XC)
    Density eval.           ....       0.063 sec  (  3.8% of XC)
    XC-Functional eval.     ....       0.600 sec  ( 36.6% of XC)
    XC-Potential eval.      ....       0.065 sec  (  4.0% of XC)
Diagonalization             ....       0.169 sec  (  1.8%)
Density matrix formation    ....       0.000 sec  (  0.0%)
Population analysis         ....       0.083 sec  (  0.9%)
Initial guess               ....       0.384 sec  (  4.1%)
Orbital Transformation      ....       0.000 sec  (  0.0%)
Orbital Orthonormalization  ....       0.000 sec  (  0.0%)
DIIS solution               ....       0.000 sec  (  0.0%)
Grid generation             ....       0.585 sec  (  6.2%)


-------------------------------------------------------------------------------
                          DFT DISPERSION CORRECTION                            
                                                                               
                              DFTD3 V3.1  Rev 1                                
                              USING zero damping                               
-------------------------------------------------------------------------------
The omegaB97X-D3 functional is recognized. Fit by Chai et al.
Active option DFTDOPT                   ...         3   

molecular C6(AA) [au] = 276.784424 


            DFT-D V3
 parameters
 s6 scaling factor         :     1.0000 
 rs6 scaling factor        :     1.2810 
 s8 scaling factor         :     1.0000 
 rs8 scaling factor        :     1.0940 
 Damping factor alpha6     :    14.0000 
 Damping factor alpha8     :    16.0000 
 ad hoc parameters k1-k3   :    16.0000     1.3333    -4.0000 

 Edisp/kcal,au: -0.235325691443  -0.000375015320 
 E6   /kcal   :  -0.078836128 
 E8   /kcal   :  -0.156489563 
 % E8         :  66.499140832 

-------------------------   ----------------
Dispersion correction           -0.000375015
-------------------------   ----------------


-------------------------   --------------------
FINAL SINGLE POINT ENERGY       -76.884858418939
-------------------------   --------------------


                            ***************************************
                            *     ORCA property calculations      *
                            ***************************************

                                    ---------------------
                                    Active property flags
                                    ---------------------
   (+) Dipole Moment


------------------------------------------------------------------------------
                       ORCA ELECTRIC PROPERTIES CALCULATION
------------------------------------------------------------------------------

Dipole Moment Calculation                       ... on
Quadrupole Moment Calculation                   ... off
Polarizability Calculation                      ... off
GBWName                                         ... Scan_26.gbw
Electron density file                           ... Scan_26.scfp.tmp

-------------
DIPOLE MOMENT
-------------
                                X             Y             Z
Electronic contribution:     -0.00005      -0.00001       0.00000
Nuclear contribution   :      0.00000       0.00000      -0.00000
                        -----------------------------------------
Total Dipole Moment    :     -0.00005      -0.00001      -0.00000
                        -----------------------------------------
Magnitude (a.u.)       :      0.00005
Magnitude (Debye)      :      0.00012


Timings for individual modules:

Sum of individual times         ...       10.965 sec (=   0.183 min)
GTO integral calculation        ...        1.492 sec (=   0.025 min)  13.6 %
SCF iterations                  ...        9.473 sec (=   0.158 min)  86.4 %
                             ****ORCA TERMINATED NORMALLY****
TOTAL RUN TIME: 0 days 0 hours 0 minutes 12 seconds 349 msec
