
                                 *****************
                                 * O   R   C   A *
                                 *****************

           --- An Ab Initio, DFT and Semiempirical electronic structure package ---

                  #######################################################
                  #                        -***-                        #
                  #  Department of molecular theory and spectroscopy    #
                  #              Directorship: Frank Neese              #
                  # Max Planck Institute for Chemical Energy Conversion #
                  #                  D-45470 Muelheim/Ruhr              #
                  #                       Germany                       #
                  #                                                     #
                  #                  All rights reserved                #
                  #                        -***-                        #
                  #######################################################


                         Program Version 4.0.0.2 - RELEASE -


 With contributions from (in alphabetic order):
   Daniel Aravena         : Magnetic Properties
   Michael Atanasov       : Ab Initio Ligand Field Theory
   Ute Becker             : Parallelization
   Martin Brehm           : Molecular dynamics
   Dmytro Bykov           : SCF Hessian
   Vijay G. Chilkuri      : MRCI spin determinant printing
   Dipayan Datta          : RHF DLPNO-CCSD density
   Achintya Kumar Dutta   : EOM-CC, STEOM-CC
   Dmitry Ganyushin       : Spin-Orbit,Spin-Spin,Magnetic field MRCI
   Yang Guo               : DLPNO-NEVPT2, CIM, IAO-localization
   Andreas Hansen         : Spin unrestricted coupled pair/coupled cluster methods
   Lee Huntington         : MR-EOM, pCC
   Robert Izsak           : Overlap fitted RIJCOSX, COSX-SCS-MP3, EOM
   Christian Kollmar      : KDIIS, OOCD, Brueckner-CCSD(T), CCSD density
   Simone Kossmann        : Meta GGA functionals, TD-DFT gradient, OOMP2, MP2 Hessian
   Martin Krupicka        : AUTO-CI
   Dagmar Lenk            : GEPOL surface
   Dimitrios Liakos       : Extrapolation schemes; parallel MDCI
   Dimitrios Manganas     : ROCIS; embedding schemes
   Dimitrios Pantazis     : SARC Basis sets
   Taras Petrenko         : DFT Hessian,TD-DFT gradient, ASA, ECA, R-Raman, ABS, FL, XAS/XES, NRVS
   Peter Pinski           : DLPNO-MP2
   Christoph Reimann      : Effective Core Potentials
   Marius Retegan         : Local ZFS, SOC
   Christoph Riplinger    : Optimizer, TS searches, QM/MM, DLPNO-CCSD(T), (RO)-DLPNO pert. Triples
   Tobias Risthaus        : Range-separated hybrids, TD-DFT gradient, RPA, STAB
   Michael Roemelt        : Restricted open shell CIS
   Masaaki Saitow         : Open-shell DLPNO
   Barbara Sandhoefer     : DKH picture change effects
   Kantharuban Sivalingam : CASSCF convergence, NEVPT2, FIC-MRCI
   Georgi Stoychev        : AutoAux
   Boris Wezisla          : Elementary symmetry handling
   Frank Wennmohs         : Technical directorship


 We gratefully acknowledge several colleagues who have allowed us to
 interface, adapt or use parts of their codes:
   Stefan Grimme, W. Hujo, H. Kruse,             : VdW corrections, initial TS optimization,
                  C. Bannwarth                     DFT functionals, gCP, sTDA/sTD-DF
   Ed Valeev                                     : LibInt (2-el integral package), F12 methods
   Garnet Chan, S. Sharma, J. Yang, R. Olivares  : DMRG
   Ulf Ekstrom                                   : XCFun DFT Library
   Mihaly Kallay                                 : mrcc  (arbitrary order and MRCC methods)
   Jiri Pittner, Ondrej Demel                    : Mk-CCSD
   Frank Weinhold                                : gennbo (NPA and NBO analysis)
   Christopher J. Cramer and Donald G. Truhlar   : smd solvation model


 Your calculation uses the libint2 library for the computation of 2-el integrals
 For citations please refer to: http://libint.valeyev.net

 This ORCA versions uses:
   CBLAS   interface :  Fast vector & matrix operations
   LAPACKE interface :  Fast linear algebra routines
   SCALAPACK package :  Parallel linear algebra routines


Your calculation utilizes the atom-pairwise dispersion correction
with the zero-damping scheme (D30)
Cite in your paper:
S.Grimme, J.Antony, S.Ehrlich and H.Krieg, J.Chem.Phys., 132, (2010), 154104 
   

XCFun DFT library Copyright 2009-2010 Ulf Ekstrom and contributors.
See http://admol.org/xcfun for more information. This is free soft-
ware; see the source code for copying conditions. There is ABSOLUTELY
NO WARRANTY; not even for MERCHANTABILITY or FITNESS FOR A PARTICULAR
PURPOSE. For details see the documentation. Scientific users of this 
library should cite U. Ekstrom, L. Visscher, R. Bast, A. J. Thorvald-
sen and K. Ruud; J.Chem.Theor.Comp. 2010, DOI: 10.1021/ct100117s
XCFun Version 0.99 
Your calculation utilizes the basis: 6-31G(d)
   H-He, Li-Ne : W. J. Hehre, R. Ditchfield and J.A. Pople, J. Chem. Phys. 56, 2257 (1972).
                 Note: He and Ne are unpublished basis sets taken from the Gaussian program.
                 Note: Li and B from J. D. Dill and J. A. Pople, J. Chem. Phys. 62, 2921 (1975).
   Na - Ar     : M. M. Francl, W. J. Pietro, W. J. Hehre, J. S. Binkley, M. S. Gordon, 
                 D. J. DeFrees and J. A. Pople, J. Chem. Phys. 77, 3654 (1982).
   K - Zn      : V. A. Rassolov, J. A. Pople, M. A. Ratner, and T. L. Windus, J. Chem. Phys. 109, 1223 (1998).

================================================================================
                                        WARNINGS
                       Please study these warnings very carefully!
================================================================================

Warning: TCutStore was < 0. Adjusted to Thresh (uncritical)

INFO   : the flag for use of LIBINT has been found!

================================================================================
                                       INPUT FILE
================================================================================
NAME = initial27.inp
|  1> ! WB97X-D3 6-31G(d) VerySlowConv
|  2> ! KDIIS NOSOSCF
|  3> %base "Scan_27"
|  4> 
|  5> %scf
|  6> maxiter 999
|  7> end
|  8> 
|  9> * xyz 0 1
| 10> C         -3.837164183497    2.559931084181   -0.000000232009
| 11> C         -0.687345715750    2.697308947249   -0.000000086229
| 12> H         -3.857950895921    3.671139157100    0.000000100159
| 13> H         -0.666559204832    1.586100811470    0.000000218079
| 14> **                         ****END OF INPUT****
================================================================================

                       ****************************
                       * Single Point Calculation *
                       ****************************

---------------------------------
CARTESIAN COORDINATES (ANGSTROEM)
---------------------------------
  C     -3.837164    2.559931   -0.000000
  C     -0.687346    2.697309   -0.000000
  H     -3.857951    3.671139    0.000000
  H     -0.666559    1.586101    0.000000

----------------------------
CARTESIAN COORDINATES (A.U.)
----------------------------
  NO LB      ZA    FRAG     MASS         X           Y           Z
   0 C     6.0000    0    12.011   -7.251189    4.837569   -0.000000
   1 C     6.0000    0    12.011   -1.298895    5.097175   -0.000000
   2 H     1.0000    0     1.008   -7.290471    6.937448    0.000000
   3 H     1.0000    0     1.008   -1.259614    2.997296    0.000000

--------------------------------
INTERNAL COORDINATES (ANGSTROEM)
--------------------------------
 C      0   0   0     0.000000000000     0.00000000     0.00000000
 C      1   0   0     3.152812880115     0.00000000     0.00000000
 H      1   2   0     1.111402478283    88.57432729     0.00000000
 H      2   1   3     1.111402537363    88.57431684   179.99996717

---------------------------
INTERNAL COORDINATES (A.U.)
---------------------------
 C      0   0   0     0.000000000000     0.00000000     0.00000000
 C      1   0   0     5.957952894917     0.00000000     0.00000000
 H      1   2   0     2.100246308516    88.57432729     0.00000000
 H      2   1   3     2.100246420162    88.57431684   179.99996717

---------------------
BASIS SET INFORMATION
---------------------
There are 2 groups of distinct atoms

 Group   1 Type C   : 10s4p1d contracted to 3s2p1d pattern {631/31/1}
 Group   2 Type H   : 4s contracted to 2s pattern {31}

Atom   0C    basis set group =>   1
Atom   1C    basis set group =>   1
Atom   2H    basis set group =>   2
Atom   3H    basis set group =>   2
------------------------------------------------------------------------------
                           ORCA GTO INTEGRAL CALCULATION
------------------------------------------------------------------------------

                         BASIS SET STATISTICS AND STARTUP INFO

 # of primitive gaussian shells          ...   38
 # of primitive gaussian functions       ...   62
 # of contracted shells                  ...   16
 # of contracted basis functions         ...   32
 Highest angular momentum                ...    2
 Maximum contraction depth               ...    6
 Integral package used                   ... LIBINT
 Integral threshhold            Thresh   ...  1.000e-10
 Primitive cut-off              TCut     ...  1.000e-11


------------------------------ INTEGRAL EVALUATION ----------------------------


 * One electron integrals 
 Pre-screening matrix                    ... done
 Shell pair data                         ... done (   0.000 sec)

-------------------------------------------------------------------------------
                                 ORCA SCF
-------------------------------------------------------------------------------

------------
SCF SETTINGS
------------
Hamiltonian:
 Density Functional     Method          .... DFT(GTOs)
 Exchange Functional    Exchange        .... WB97X-D3
 Correlation Functional Correlation     .... WB97X-D3
 Gradients option       PostSCFGGA      .... off
 Hybrid DFT is turned on
   Fraction HF Exchange ScalHFX         ....  0.195728
   Scaling of DF-GGA-X  ScalDFX         ....  0.000000
   Scaling of DF-GGA-C  ScalDFC         ....  1.000000
   Scaling of DF-LDA-C  ScalLDAC        ....  1.000000
   Perturbative correction              ....  0.000000
 Long-range corrected/Screened/Range-Separated Hybrid DFT is turned on
   Amount of maximum screened exact exchange              ....  0.804272
   Range separation parameter mu (erf(mu*r12)/r12)        ....  0.250000


General Settings:
 Integral files         IntName         .... Scan_27
 Hartree-Fock type      HFTyp           .... RHF
 Total Charge           Charge          ....    0
 Multiplicity           Mult            ....    1
 Number of Electrons    NEL             ....   14
 Basis Dimension        Dim             ....   32
 Nuclear Repulsion      ENuc            ....     13.8093141914 Eh

Convergence Acceleration:
 DIIS                   CNVDIIS         .... on
   Start iteration      DIISMaxIt       ....     0
   Startup error        DIISStart       ....  0.200000
   # of expansion vecs  DIISMaxEq       ....     5
   Bias factor          DIISBfac        ....   1.050
   Max. coefficient     DIISMaxC        ....  10.000
 Newton-Raphson         CNVNR           .... off
 SOSCF                  CNVSOSCF        .... off
 Level Shifting         CNVShift        .... off
 Zerner damping         CNVZerner       .... off
 Static damping         CNVDamp         .... off
 Fernandez-Rico         CNVRico         .... off

SCF Procedure:
 Maximum # iterations   MaxIter         ....   999
 SCF integral mode      SCFMode         .... Direct
   Integral package                     .... LIBINT
 Reset frequeny         DirectResetFreq ....    20
 Integral Threshold     Thresh          ....  1.000e-10 Eh
 Primitive CutOff       TCut            ....  1.000e-11 Eh

Convergence Tolerance:
 Convergence Check Mode ConvCheckMode   .... All-Criteria
 Convergence forced     ConvForced      .... 0
 Energy Change          TolE            ....  1.000e-06 Eh
 Max Density Change     TolMaxP         ....  1.000e-05
 RMS Density Change     TolRMSP         ....  1.000e-06
 DIIS Error             TolErr          ....  1.000e-06


Diagonalization of the overlap matrix:
Smallest eigenvalue                        ... 4.456e-02
Time for diagonalization                   ...    0.001 sec
Threshold for overlap eigenvalues          ... 1.000e-08
Number of eigenvalues below threshold      ... 0
Time for construction of square roots      ...    0.036 sec
Total time needed                          ...    0.037 sec

-------------------
DFT GRID GENERATION
-------------------

General Integration Accuracy     IntAcc      ...  4.340
Radial Grid Type                 RadialGrid  ... Gauss-Chebyshev
Angular Grid (max. acc.)         AngularGrid ... Lebedev-110
Angular grid pruning method      GridPruning ... 3 (G Style)
Weight generation scheme         WeightScheme... Becke
Basis function cutoff            BFCut       ...    1.0000e-10
Integration weight cutoff        WCut        ...    1.0000e-14
Grids for H and He will be reduced by one unit

# of grid points (after initial pruning)     ...   4900 (   0.0 sec)
# of grid points (after weights+screening)   ...   4830 (   0.0 sec)
nearest neighbour list constructed           ...    0.0 sec
Grid point re-assignment to atoms done       ...    0.0 sec
Grid point division into batches done        ...    0.0 sec
Reduced shell lists constructed in    0.0 sec

Total number of grid points                  ...     4830
Total number of batches                      ...       78
Average number of points per batch           ...       61
Average number of grid points per atom       ...     1208
Average number of shells per batch           ...    13.08 (81.72%)
Average number of basis functions per batch  ...    26.67 (83.35%)
Average number of large shells per batch     ...    10.94 (83.64%)
Average number of large basis fcns per batch ...    21.77 (81.63%)
Maximum spatial batch extension              ...  20.02, 20.05, 31.36 au
Average spatial batch extension              ...   5.91,  5.31,  6.54 au

Time for grid setup =    0.074 sec

------------------------------
INITIAL GUESS: MODEL POTENTIAL
------------------------------
Loading Hartree-Fock densities                     ... done
Calculating cut-offs                               ... done
Setting up the integral package                    ... done
Initializing the effective Hamiltonian             ... done
Starting the Coulomb interaction                   ... done (   0.0 sec)
Reading the grid                                   ... done
Mapping shells                                     ... done
Starting the XC term evaluation                    ... done (   0.1 sec)
  promolecular density results
     # of electrons  =     13.997387035
     EX              =    -10.515286948
     EC              =     -0.381163393
     EX+EC           =    -10.896450341
Transforming the Hamiltonian                       ... done (   0.0 sec)
Diagonalizing the Hamiltonian                      ... done (   0.0 sec)
Back transforming the eigenvectors                 ... done (   0.0 sec)
Now organizing SCF variables                       ... done
                      ------------------
                      INITIAL GUESS DONE (   0.3 sec)
                      ------------------
--------------
SCF ITERATIONS
--------------
ITER       Energy         Delta-E        Max-DP      RMS-DP      [F,P]   Gradient Norm
               ***  Starting incremental Fock matrix formation  ***
                             ****Resetting KDIIS****
                             ****Turning on KDIIS(Cayley)****
  0    -76.8716749153   0.000000000000 0.00512953  0.00044697  0.0262959   0.024836009
  1    -76.8726291330  -0.000954217782 0.00686074  0.00076095  0.0237853   0.022418330
  2    -76.8741140795  -0.001484946498 0.01227771  0.00135912  0.0195095   0.018041016
  3    -76.8759499392  -0.001835859640 0.01851569  0.00208514  0.0117158   0.010823557
  4    -76.8769963615  -0.001046422329 0.00027541  0.00003575  0.0001346   0.000091967
                          ***Energy convergence achieved***
  5    -76.8769966429  -0.000000281392 0.00004831  0.00000595  0.0000235   0.000016937

            ***Energy convergence in two consecutive cycles with***
                    ***'reasonable' density convergence***
                       *** signaling convergence ***

                    *** KDIIS BlockDiag ( 0.000 sec) ***

               *****************************************************
               *                     SUCCESS                       *
               *           SCF CONVERGED AFTER   6 CYCLES          *
               *****************************************************

Setting up the final grid:

General Integration Accuracy     IntAcc      ...  4.670
Radial Grid Type                 RadialGrid  ... Gauss-Chebyshev
Angular Grid (max. acc.)         AngularGrid ... Lebedev-302
Angular grid pruning method      GridPruning ... 3 (G Style)
Weight generation scheme         WeightScheme... Becke
Basis function cutoff            BFCut       ...    1.0000e-10
Integration weight cutoff        WCut        ...    1.0000e-14
Grids for H and He will be reduced by one unit

# of grid points (after initial pruning)     ...  19212 (   0.0 sec)
# of grid points (after weights+screening)   ...  19010 (   0.0 sec)
nearest neighbour list constructed           ...    0.0 sec
Grid point re-assignment to atoms done       ...    0.0 sec
Grid point division into batches done        ...    0.1 sec
Reduced shell lists constructed in    0.3 sec

Total number of grid points                  ...    19010
Total number of batches                      ...      300
Average number of points per batch           ...       63
Average number of grid points per atom       ...     4752
Average number of shells per batch           ...    11.59 (72.43%)
Average number of basis functions per batch  ...    23.44 (73.26%)
Average number of large shells per batch     ...     9.54 (82.31%)
Average number of large basis fcns per batch ...    18.91 (80.68%)
Maximum spatial batch extension              ...  20.23, 19.07, 24.37 au
Average spatial batch extension              ...   3.83,  3.42,  4.01 au

Final grid set up in    0.4 sec
Final integration                            ... done (   0.6 sec)
Change in XC energy                          ...     0.000516309
Integrated number of electrons               ...    13.999998100
Previous integrated no of electrons          ...    13.999856164

----------------
TOTAL SCF ENERGY
----------------

Total Energy       :          -76.87648034 Eh           -2091.91538 eV

Components:
Nuclear Repulsion  :           13.80931419 Eh             375.77054 eV
Electronic Energy  :          -90.68579453 Eh           -2467.68592 eV
One Electron Energy:         -129.51335228 Eh           -3524.23748 eV
Two Electron Energy:           38.82755775 Eh            1056.55156 eV

Virial components:
Potential Energy   :         -153.21519505 Eh           -4169.19742 eV
Kinetic Energy     :           76.33871470 Eh            2077.28203 eV
Virial Ratio       :            2.00704447


DFT components:
N(Alpha)           :        6.999999050080 electrons
N(Beta)            :        6.999999050080 electrons
N(Total)           :       13.999998100159 electrons
E(XC)              :       -7.582576399988 Eh       

---------------
SCF CONVERGENCE
---------------

  Last Energy change         ...   -8.0625e-09  Tolerance :   1.0000e-06
  Last MAX-Density change    ...    1.1824e-05  Tolerance :   1.0000e-05
  Last RMS-Density change    ...    1.0254e-06  Tolerance :   1.0000e-06
  Last DIIS Error            ...    3.3503e-06  Tolerance :   1.0000e-06

             **** THE GBW FILE WAS UPDATED (Scan_27.gbw) ****
             **** DENSITY FILE WAS UPDATED (Scan_27.scfp.tmp) ****
             **** ENERGY FILE WAS UPDATED (Scan_27.en.tmp) ****
----------------
ORBITAL ENERGIES
----------------

  NO   OCC          E(Eh)            E(eV) 
   0   2.0000     -10.404711      -283.1266 
   1   2.0000     -10.404692      -283.1261 
   2   2.0000      -0.746674       -20.3180 
   3   2.0000      -0.734570       -19.9887 
   4   2.0000      -0.406797       -11.0695 
   5   2.0000      -0.404823       -11.0158 
   6   2.0000      -0.272541        -7.4162 
   7   0.0000      -0.047339        -1.2882 
   8   0.0000      -0.038867        -1.0576 
   9   0.0000      -0.025456        -0.6927 
  10   0.0000       0.217259         5.9119 
  11   0.0000       0.236302         6.4301 
  12   0.0000       0.592399        16.1200 
  13   0.0000       0.626669        17.0525 
  14   0.0000       0.630831        17.1658 
  15   0.0000       0.685119        18.6430 
  16   0.0000       0.685255        18.6467 
  17   0.0000       0.693445        18.8696 
  18   0.0000       0.727096        19.7853 
  19   0.0000       0.937650        25.5148 
  20   0.0000       0.970213        26.4008 
  21   0.0000       1.012722        27.5576 
  22   0.0000       1.750581        47.6357 
  23   0.0000       1.750588        47.6359 
  24   0.0000       1.764730        48.0207 
  25   0.0000       1.766668        48.0735 
  26   0.0000       1.778102        48.3846 
  27   0.0000       1.780000        48.4363 
  28   0.0000       1.782461        48.5032 
  29   0.0000       1.796695        48.8906 
  30   0.0000       2.198201        59.8161 
  31   0.0000       2.217173        60.3324 

                    ********************************
                    * MULLIKEN POPULATION ANALYSIS *
                    ********************************

-----------------------
MULLIKEN ATOMIC CHARGES
-----------------------
   0 C :   -0.162921
   1 C :   -0.162904
   2 H :    0.162914
   3 H :    0.162911
Sum of atomic charges:    0.0000000

--------------------------------
MULLIKEN REDUCED ORBITAL CHARGES
--------------------------------
  0 C s       :     3.917575  s :     3.917575
      pz      :     0.000000  p :     2.230354
      px      :     1.003491
      py      :     1.226863
      dz2     :     0.003654  d :     0.014993
      dxz     :     0.000000
      dyz     :     0.000000
      dx2y2   :     0.010768
      dxy     :     0.000571
  1 C s       :     3.917574  s :     3.917574
      pz      :     0.000000  p :     2.230337
      px      :     1.003476
      py      :     1.226861
      dz2     :     0.003654  d :     0.014993
      dxz     :     0.000000
      dyz     :     0.000000
      dx2y2   :     0.010768
      dxy     :     0.000571
  2 H s       :     0.837086  s :     0.837086
  3 H s       :     0.837089  s :     0.837089


                     *******************************
                     * LOEWDIN POPULATION ANALYSIS *
                     *******************************

----------------------
LOEWDIN ATOMIC CHARGES
----------------------
   0 C :   -0.114083
   1 C :   -0.114066
   2 H :    0.114075
   3 H :    0.114073

-------------------------------
LOEWDIN REDUCED ORBITAL CHARGES
-------------------------------
  0 C s       :     3.750589  s :     3.750589
      pz      :     0.000000  p :     2.343218
      px      :     1.005684
      py      :     1.337534
      dz2     :     0.004986  d :     0.020275
      dxz     :     0.000000
      dyz     :     0.000000
      dx2y2   :     0.014717
      dxy     :     0.000572
  1 C s       :     3.750589  s :     3.750589
      pz      :     0.000000  p :     2.343202
      px      :     1.005669
      py      :     1.337533
      dz2     :     0.004986  d :     0.020275
      dxz     :     0.000000
      dyz     :     0.000000
      dx2y2   :     0.014717
      dxy     :     0.000572
  2 H s       :     0.885925  s :     0.885925
  3 H s       :     0.885927  s :     0.885927


                      *****************************
                      * MAYER POPULATION ANALYSIS *
                      *****************************

  NA   - Mulliken gross atomic population
  ZA   - Total nuclear charge
  QA   - Mulliken gross atomic charge
  VA   - Mayer's total valence
  BVA  - Mayer's bonded valence
  FA   - Mayer's free valence

  ATOM       NA         ZA         QA         VA         BVA        FA
  0 C      6.1629     6.0000    -0.1629     1.9082     1.9082     0.0000
  1 C      6.1629     6.0000    -0.1629     1.9082     1.9082    -0.0000
  2 H      0.8371     1.0000     0.1629     0.9070     0.9070     0.0000
  3 H      0.8371     1.0000     0.1629     0.9070     0.9070    -0.0000

  Mayer bond orders larger than 0.1
B(  0-C ,  1-C ) :   1.0013 B(  0-C ,  2-H ) :   0.9062 B(  1-C ,  3-H ) :   0.9062 


-------
TIMINGS
-------

Total SCF time: 0 days 0 hours 0 min 8 sec 

Total time                  ....       8.865 sec
Sum of individual times     ....       8.408 sec  ( 94.8%)

Fock matrix formation       ....       7.513 sec  ( 84.7%)
  XC integration            ....       2.161 sec  ( 28.8% of F)
    Basis function eval.    ....       0.569 sec  ( 26.3% of XC)
    Density eval.           ....       0.135 sec  (  6.3% of XC)
    XC-Functional eval.     ....       0.592 sec  ( 27.4% of XC)
    XC-Potential eval.      ....       0.103 sec  (  4.8% of XC)
Diagonalization             ....       0.170 sec  (  1.9%)
Density matrix formation    ....       0.000 sec  (  0.0%)
Population analysis         ....       0.009 sec  (  0.1%)
Initial guess               ....       0.284 sec  (  3.2%)
Orbital Transformation      ....       0.000 sec  (  0.0%)
Orbital Orthonormalization  ....       0.000 sec  (  0.0%)
DIIS solution               ....       0.000 sec  (  0.0%)
Grid generation             ....       0.431 sec  (  4.9%)


-------------------------------------------------------------------------------
                          DFT DISPERSION CORRECTION                            
                                                                               
                              DFTD3 V3.1  Rev 1                                
                              USING zero damping                               
-------------------------------------------------------------------------------
The omegaB97X-D3 functional is recognized. Fit by Chai et al.
Active option DFTDOPT                   ...         3   

molecular C6(AA) [au] = 276.803816 


            DFT-D V3
 parameters
 s6 scaling factor         :     1.0000 
 rs6 scaling factor        :     1.2810 
 s8 scaling factor         :     1.0000 
 rs8 scaling factor        :     1.0940 
 Damping factor alpha6     :    14.0000 
 Damping factor alpha8     :    16.0000 
 ad hoc parameters k1-k3   :    16.0000     1.3333    -4.0000 

 Edisp/kcal,au: -0.245247104895  -0.000390826097 
 E6   /kcal   :  -0.085827994 
 E8   /kcal   :  -0.159419111 
 % E8         :  65.003462999 

-------------------------   ----------------
Dispersion correction           -0.000390826
-------------------------   ----------------


-------------------------   --------------------
FINAL SINGLE POINT ENERGY       -76.876871167924
-------------------------   --------------------


                            ***************************************
                            *     ORCA property calculations      *
                            ***************************************

                                    ---------------------
                                    Active property flags
                                    ---------------------
   (+) Dipole Moment


------------------------------------------------------------------------------
                       ORCA ELECTRIC PROPERTIES CALCULATION
------------------------------------------------------------------------------

Dipole Moment Calculation                       ... on
Quadrupole Moment Calculation                   ... off
Polarizability Calculation                      ... off
GBWName                                         ... Scan_27.gbw
Electron density file                           ... Scan_27.scfp.tmp

-------------
DIPOLE MOMENT
-------------
                                X             Y             Z
Electronic contribution:      0.00004       0.00001      -0.00000
Nuclear contribution   :     -0.00000      -0.00000       0.00000
                        -----------------------------------------
Total Dipole Moment    :      0.00004       0.00001       0.00000
                        -----------------------------------------
Magnitude (a.u.)       :      0.00004
Magnitude (Debye)      :      0.00011


Timings for individual modules:

Sum of individual times         ...       10.582 sec (=   0.176 min)
GTO integral calculation        ...        1.502 sec (=   0.025 min)  14.2 %
SCF iterations                  ...        9.080 sec (=   0.151 min)  85.8 %
                             ****ORCA TERMINATED NORMALLY****
TOTAL RUN TIME: 0 days 0 hours 0 minutes 12 seconds 429 msec
