
                                 *****************
                                 * O   R   C   A *
                                 *****************

           --- An Ab Initio, DFT and Semiempirical electronic structure package ---

                  #######################################################
                  #                        -***-                        #
                  #  Department of molecular theory and spectroscopy    #
                  #              Directorship: Frank Neese              #
                  # Max Planck Institute for Chemical Energy Conversion #
                  #                  D-45470 Muelheim/Ruhr              #
                  #                       Germany                       #
                  #                                                     #
                  #                  All rights reserved                #
                  #                        -***-                        #
                  #######################################################


                         Program Version 4.0.0.2 - RELEASE -


 With contributions from (in alphabetic order):
   Daniel Aravena         : Magnetic Properties
   Michael Atanasov       : Ab Initio Ligand Field Theory
   Ute Becker             : Parallelization
   Martin Brehm           : Molecular dynamics
   Dmytro Bykov           : SCF Hessian
   Vijay G. Chilkuri      : MRCI spin determinant printing
   Dipayan Datta          : RHF DLPNO-CCSD density
   Achintya Kumar Dutta   : EOM-CC, STEOM-CC
   Dmitry Ganyushin       : Spin-Orbit,Spin-Spin,Magnetic field MRCI
   Yang Guo               : DLPNO-NEVPT2, CIM, IAO-localization
   Andreas Hansen         : Spin unrestricted coupled pair/coupled cluster methods
   Lee Huntington         : MR-EOM, pCC
   Robert Izsak           : Overlap fitted RIJCOSX, COSX-SCS-MP3, EOM
   Christian Kollmar      : KDIIS, OOCD, Brueckner-CCSD(T), CCSD density
   Simone Kossmann        : Meta GGA functionals, TD-DFT gradient, OOMP2, MP2 Hessian
   Martin Krupicka        : AUTO-CI
   Dagmar Lenk            : GEPOL surface
   Dimitrios Liakos       : Extrapolation schemes; parallel MDCI
   Dimitrios Manganas     : ROCIS; embedding schemes
   Dimitrios Pantazis     : SARC Basis sets
   Taras Petrenko         : DFT Hessian,TD-DFT gradient, ASA, ECA, R-Raman, ABS, FL, XAS/XES, NRVS
   Peter Pinski           : DLPNO-MP2
   Christoph Reimann      : Effective Core Potentials
   Marius Retegan         : Local ZFS, SOC
   Christoph Riplinger    : Optimizer, TS searches, QM/MM, DLPNO-CCSD(T), (RO)-DLPNO pert. Triples
   Tobias Risthaus        : Range-separated hybrids, TD-DFT gradient, RPA, STAB
   Michael Roemelt        : Restricted open shell CIS
   Masaaki Saitow         : Open-shell DLPNO
   Barbara Sandhoefer     : DKH picture change effects
   Kantharuban Sivalingam : CASSCF convergence, NEVPT2, FIC-MRCI
   Georgi Stoychev        : AutoAux
   Boris Wezisla          : Elementary symmetry handling
   Frank Wennmohs         : Technical directorship


 We gratefully acknowledge several colleagues who have allowed us to
 interface, adapt or use parts of their codes:
   Stefan Grimme, W. Hujo, H. Kruse,             : VdW corrections, initial TS optimization,
                  C. Bannwarth                     DFT functionals, gCP, sTDA/sTD-DF
   Ed Valeev                                     : LibInt (2-el integral package), F12 methods
   Garnet Chan, S. Sharma, J. Yang, R. Olivares  : DMRG
   Ulf Ekstrom                                   : XCFun DFT Library
   Mihaly Kallay                                 : mrcc  (arbitrary order and MRCC methods)
   Jiri Pittner, Ondrej Demel                    : Mk-CCSD
   Frank Weinhold                                : gennbo (NPA and NBO analysis)
   Christopher J. Cramer and Donald G. Truhlar   : smd solvation model


 Your calculation uses the libint2 library for the computation of 2-el integrals
 For citations please refer to: http://libint.valeyev.net

 This ORCA versions uses:
   CBLAS   interface :  Fast vector & matrix operations
   LAPACKE interface :  Fast linear algebra routines
   SCALAPACK package :  Parallel linear algebra routines


Your calculation utilizes the atom-pairwise dispersion correction
with the zero-damping scheme (D30)
Cite in your paper:
S.Grimme, J.Antony, S.Ehrlich and H.Krieg, J.Chem.Phys., 132, (2010), 154104 
   

XCFun DFT library Copyright 2009-2010 Ulf Ekstrom and contributors.
See http://admol.org/xcfun for more information. This is free soft-
ware; see the source code for copying conditions. There is ABSOLUTELY
NO WARRANTY; not even for MERCHANTABILITY or FITNESS FOR A PARTICULAR
PURPOSE. For details see the documentation. Scientific users of this 
library should cite U. Ekstrom, L. Visscher, R. Bast, A. J. Thorvald-
sen and K. Ruud; J.Chem.Theor.Comp. 2010, DOI: 10.1021/ct100117s
XCFun Version 0.99 
Your calculation utilizes the basis: 6-31G(d)
   H-He, Li-Ne : W. J. Hehre, R. Ditchfield and J.A. Pople, J. Chem. Phys. 56, 2257 (1972).
                 Note: He and Ne are unpublished basis sets taken from the Gaussian program.
                 Note: Li and B from J. D. Dill and J. A. Pople, J. Chem. Phys. 62, 2921 (1975).
   Na - Ar     : M. M. Francl, W. J. Pietro, W. J. Hehre, J. S. Binkley, M. S. Gordon, 
                 D. J. DeFrees and J. A. Pople, J. Chem. Phys. 77, 3654 (1982).
   K - Zn      : V. A. Rassolov, J. A. Pople, M. A. Ratner, and T. L. Windus, J. Chem. Phys. 109, 1223 (1998).

================================================================================
                                        WARNINGS
                       Please study these warnings very carefully!
================================================================================

Warning: TCutStore was < 0. Adjusted to Thresh (uncritical)

INFO   : the flag for use of LIBINT has been found!

================================================================================
                                       INPUT FILE
================================================================================
NAME = initial3.inp
|  1> ! WB97X-D3 6-31G(d) VerySlowConv
|  2> ! KDIIS NOSOSCF
|  3> %base "Scan_3"
|  4> 
|  5> %scf
|  6> maxiter 999
|  7> end
|  8> 
|  9> * xyz 0 1
| 10> C         -2.803157682673    2.625758038558   -0.000000000000
| 11> C         -1.721352317327    2.631481961442    0.000000000000
| 12> H         -3.857828556442    2.620180785319    0.000000000000
| 13> H         -0.666681443557    2.637059214680   -0.000000000000
| 14> **                         ****END OF INPUT****
================================================================================

                       ****************************
                       * Single Point Calculation *
                       ****************************

---------------------------------
CARTESIAN COORDINATES (ANGSTROEM)
---------------------------------
  C     -2.803158    2.625758   -0.000000
  C     -1.721352    2.631482    0.000000
  H     -3.857829    2.620181    0.000000
  H     -0.666681    2.637059   -0.000000

----------------------------
CARTESIAN COORDINATES (A.U.)
----------------------------
  NO LB      ZA    FRAG     MASS         X           Y           Z
   0 C     6.0000    0    12.011   -5.297200    4.961964   -0.000000
   1 C     6.0000    0    12.011   -3.252884    4.972780    0.000000
   2 H     1.0000    0     1.008   -7.290239    4.951424    0.000000
   3 H     1.0000    0     1.008   -1.259845    4.983320   -0.000000

--------------------------------
INTERNAL COORDINATES (ANGSTROEM)
--------------------------------
 C      0   0   0     0.000000000000     0.00000000     0.00000000
 C      1   0   0     1.081820508118     0.00000000     0.00000000
 H      1   2   0     1.054685620330   179.99983167     0.00000000
 H      2   1   3     1.054685620331   179.99983167   180.00000000

---------------------------
INTERNAL COORDINATES (A.U.)
---------------------------
 C      0   0   0     0.000000000000     0.00000000     0.00000000
 C      1   0   0     2.044344486402     0.00000000     0.00000000
 H      1   2   0     1.993066979808   179.99983167     0.00000000
 H      2   1   3     1.993066979810   179.99983167   180.00000000

---------------------
BASIS SET INFORMATION
---------------------
There are 2 groups of distinct atoms

 Group   1 Type C   : 10s4p1d contracted to 3s2p1d pattern {631/31/1}
 Group   2 Type H   : 4s contracted to 2s pattern {31}

Atom   0C    basis set group =>   1
Atom   1C    basis set group =>   1
Atom   2H    basis set group =>   2
Atom   3H    basis set group =>   2
------------------------------------------------------------------------------
                           ORCA GTO INTEGRAL CALCULATION
------------------------------------------------------------------------------

                         BASIS SET STATISTICS AND STARTUP INFO

 # of primitive gaussian shells          ...   38
 # of primitive gaussian functions       ...   62
 # of contracted shells                  ...   16
 # of contracted basis functions         ...   32
 Highest angular momentum                ...    2
 Maximum contraction depth               ...    6
 Integral package used                   ... LIBINT
 Integral threshhold            Thresh   ...  1.000e-10
 Primitive cut-off              TCut     ...  1.000e-11


------------------------------ INTEGRAL EVALUATION ----------------------------


 * One electron integrals 
 Pre-screening matrix                    ... done
 Shell pair data                         ... done (   0.000 sec)

-------------------------------------------------------------------------------
                                 ORCA SCF
-------------------------------------------------------------------------------

------------
SCF SETTINGS
------------
Hamiltonian:
 Density Functional     Method          .... DFT(GTOs)
 Exchange Functional    Exchange        .... WB97X-D3
 Correlation Functional Correlation     .... WB97X-D3
 Gradients option       PostSCFGGA      .... off
 Hybrid DFT is turned on
   Fraction HF Exchange ScalHFX         ....  0.195728
   Scaling of DF-GGA-X  ScalDFX         ....  0.000000
   Scaling of DF-GGA-C  ScalDFC         ....  1.000000
   Scaling of DF-LDA-C  ScalLDAC        ....  1.000000
   Perturbative correction              ....  0.000000
 Long-range corrected/Screened/Range-Separated Hybrid DFT is turned on
   Amount of maximum screened exact exchange              ....  0.804272
   Range separation parameter mu (erf(mu*r12)/r12)        ....  0.250000


General Settings:
 Integral files         IntName         .... Scan_3
 Hartree-Fock type      HFTyp           .... RHF
 Total Charge           Charge          ....    0
 Multiplicity           Mult            ....    1
 Number of Electrons    NEL             ....   14
 Basis Dimension        Dim             ....   32
 Nuclear Repulsion      ENuc            ....     26.7684537583 Eh

Convergence Acceleration:
 DIIS                   CNVDIIS         .... on
   Start iteration      DIISMaxIt       ....     0
   Startup error        DIISStart       ....  0.200000
   # of expansion vecs  DIISMaxEq       ....     5
   Bias factor          DIISBfac        ....   1.050
   Max. coefficient     DIISMaxC        ....  10.000
 Newton-Raphson         CNVNR           .... off
 SOSCF                  CNVSOSCF        .... off
 Level Shifting         CNVShift        .... off
 Zerner damping         CNVZerner       .... off
 Static damping         CNVDamp         .... off
 Fernandez-Rico         CNVRico         .... off

SCF Procedure:
 Maximum # iterations   MaxIter         ....   999
 SCF integral mode      SCFMode         .... Direct
   Integral package                     .... LIBINT
 Reset frequeny         DirectResetFreq ....    20
 Integral Threshold     Thresh          ....  1.000e-10 Eh
 Primitive CutOff       TCut            ....  1.000e-11 Eh

Convergence Tolerance:
 Convergence Check Mode ConvCheckMode   .... All-Criteria
 Convergence forced     ConvForced      .... 0
 Energy Change          TolE            ....  1.000e-06 Eh
 Max Density Change     TolMaxP         ....  1.000e-05
 RMS Density Change     TolRMSP         ....  1.000e-06
 DIIS Error             TolErr          ....  1.000e-06


Diagonalization of the overlap matrix:
Smallest eigenvalue                        ... 5.075e-04
Time for diagonalization                   ...    0.001 sec
Threshold for overlap eigenvalues          ... 1.000e-08
Number of eigenvalues below threshold      ... 0
Time for construction of square roots      ...    0.005 sec
Total time needed                          ...    0.006 sec

-------------------
DFT GRID GENERATION
-------------------

General Integration Accuracy     IntAcc      ...  4.340
Radial Grid Type                 RadialGrid  ... Gauss-Chebyshev
Angular Grid (max. acc.)         AngularGrid ... Lebedev-110
Angular grid pruning method      GridPruning ... 3 (G Style)
Weight generation scheme         WeightScheme... Becke
Basis function cutoff            BFCut       ...    1.0000e-10
Integration weight cutoff        WCut        ...    1.0000e-14
Grids for H and He will be reduced by one unit

# of grid points (after initial pruning)     ...   4900 (   0.0 sec)
# of grid points (after weights+screening)   ...   4822 (   0.0 sec)
nearest neighbour list constructed           ...    0.0 sec
Grid point re-assignment to atoms done       ...    0.0 sec
Grid point division into batches done        ...    0.0 sec
Reduced shell lists constructed in    0.0 sec

Total number of grid points                  ...     4822
Total number of batches                      ...       78
Average number of points per batch           ...       61
Average number of grid points per atom       ...     1206
Average number of shells per batch           ...    13.92 (87.03%)
Average number of basis functions per batch  ...    28.51 (89.08%)
Average number of large shells per batch     ...    13.19 (94.73%)
Average number of large basis fcns per batch ...    27.52 (96.54%)
Maximum spatial batch extension              ...  18.06, 25.61, 31.36 au
Average spatial batch extension              ...   3.92,  6.76,  7.33 au

Time for grid setup =    0.033 sec

------------------------------
INITIAL GUESS: MODEL POTENTIAL
------------------------------
Loading Hartree-Fock densities                     ... done
Calculating cut-offs                               ... done
Setting up the integral package                    ... done
Initializing the effective Hamiltonian             ... done
Starting the Coulomb interaction                   ... done (   0.0 sec)
Reading the grid                                   ... done
Mapping shells                                     ... done
Starting the XC term evaluation                    ... done (   0.0 sec)
  promolecular density results
     # of electrons  =     14.001321855
     EX              =    -10.781109722
     EC              =     -0.425791925
     EX+EC           =    -11.206901647
Transforming the Hamiltonian                       ... done (   0.0 sec)
Diagonalizing the Hamiltonian                      ... done (   0.0 sec)
Back transforming the eigenvectors                 ... done (   0.0 sec)
Now organizing SCF variables                       ... done
                      ------------------
                      INITIAL GUESS DONE (   0.2 sec)
                      ------------------
--------------
SCF ITERATIONS
--------------
ITER       Energy         Delta-E        Max-DP      RMS-DP      [F,P]   Gradient Norm
               ***  Starting incremental Fock matrix formation  ***
                             ****Resetting KDIIS****
                             ****Turning on KDIIS(Cayley)****
  0    -77.1482488819   0.000000000000 0.01945091  0.00235558  0.1319064   0.115787632
  1    -77.1792019713  -0.030953089350 0.02324951  0.00261121  0.1127422   0.097946160
  2    -77.2054859902  -0.026284018933 0.03345259  0.00409989  0.0922107   0.079802629
  3    -77.2371755731  -0.031689582872 0.04322369  0.00598327  0.0571407   0.049286338
  4    -77.2563137754  -0.019138202359 0.00132955  0.00014658  0.0010573   0.000813940
  5    -77.2563177385  -0.000003963055 0.00038592  0.00004954  0.0003003   0.000260798
Warning: badly conditioned DIIS matrix, 1 vectors out of 5 destroyed
                          ***Energy convergence achieved***
  6    -77.2563181446  -0.000000406117 0.00018273  0.00002475  0.0002054   0.000168372
Warning: badly conditioned DIIS matrix, 1 vectors out of 5 destroyed
                           ***RMSP convergence achieved***
                           ***MAXP convergence achieved***
                    *** KDIIS BlockDiag ( 0.000 sec) ***

               *****************************************************
               *                     SUCCESS                       *
               *           SCF CONVERGED AFTER   7 CYCLES          *
               *****************************************************

Setting up the final grid:

General Integration Accuracy     IntAcc      ...  4.670
Radial Grid Type                 RadialGrid  ... Gauss-Chebyshev
Angular Grid (max. acc.)         AngularGrid ... Lebedev-302
Angular grid pruning method      GridPruning ... 3 (G Style)
Weight generation scheme         WeightScheme... Becke
Basis function cutoff            BFCut       ...    1.0000e-10
Integration weight cutoff        WCut        ...    1.0000e-14
Grids for H and He will be reduced by one unit

# of grid points (after initial pruning)     ...  19212 (   0.0 sec)
# of grid points (after weights+screening)   ...  18842 (   0.0 sec)
nearest neighbour list constructed           ...    0.0 sec
Grid point re-assignment to atoms done       ...    0.0 sec
Grid point division into batches done        ...    0.1 sec
Reduced shell lists constructed in    0.1 sec

Total number of grid points                  ...    18842
Total number of batches                      ...      296
Average number of points per batch           ...       63
Average number of grid points per atom       ...     4710
Average number of shells per batch           ...    12.83 (80.18%)
Average number of basis functions per batch  ...    26.26 (82.05%)
Average number of large shells per batch     ...    11.81 (92.07%)
Average number of large basis fcns per batch ...    24.38 (92.87%)
Maximum spatial batch extension              ...  18.86, 25.72, 25.71 au
Average spatial batch extension              ...   2.92,  4.33,  4.28 au

Final grid set up in    0.2 sec
Final integration                            ... done (   0.2 sec)
Change in XC energy                          ...    -0.000332203
Integrated number of electrons               ...    14.000002558
Previous integrated no of electrons          ...    13.997667492

----------------
TOTAL SCF ENERGY
----------------

Total Energy       :          -77.25665054 Eh           -2102.26034 eV

Components:
Nuclear Repulsion  :           26.76845376 Eh             728.40666 eV
Electronic Energy  :         -104.02510430 Eh           -2830.66700 eV
One Electron Energy:         -155.86290427 Eh           -4241.24525 eV
Two Electron Energy:           51.83779997 Eh            1410.57825 eV

Virial components:
Potential Energy   :         -154.79998532 Eh           -4212.32175 eV
Kinetic Energy     :           77.54333478 Eh            2110.06141 eV
Virial Ratio       :            1.99630292


DFT components:
N(Alpha)           :        7.000001279027 electrons
N(Beta)            :        7.000001279027 electrons
N(Total)           :       14.000002558054 electrons
E(XC)              :       -7.950121668951 Eh       

---------------
SCF CONVERGENCE
---------------

  Last Energy change         ...   -1.9535e-07  Tolerance :   1.0000e-06
  Last MAX-Density change    ...    4.3970e-06  Tolerance :   1.0000e-05
  Last RMS-Density change    ...    4.4420e-07  Tolerance :   1.0000e-06
  Last DIIS Error            ...    1.3183e-06  Tolerance :   1.0000e-06

             **** THE GBW FILE WAS UPDATED (Scan_3.gbw) ****
             **** DENSITY FILE WAS UPDATED (Scan_3.scfp.tmp) ****
             **** ENERGY FILE WAS UPDATED (Scan_3.en.tmp) ****
----------------
ORBITAL ENERGIES
----------------

  NO   OCC          E(Eh)            E(eV) 
   0   2.0000     -10.257197      -279.1125 
   1   2.0000     -10.250515      -278.9307 
   2   2.0000      -0.877318       -23.8730 
   3   2.0000      -0.655477       -17.8364 
   4   2.0000      -0.590745       -16.0750 
   5   2.0000      -0.399025       -10.8580 
   6   2.0000      -0.399025       -10.8580 
   7   0.0000       0.181496         4.9388 
   8   0.0000       0.181497         4.9388 
   9   0.0000       0.224484         6.1085 
  10   0.0000       0.255322         6.9477 
  11   0.0000       0.559116        15.2143 
  12   0.0000       0.576786        15.6951 
  13   0.0000       0.612314        16.6619 
  14   0.0000       0.612314        16.6619 
  15   0.0000       0.796766        21.6811 
  16   0.0000       0.796767        21.6811 
  17   0.0000       0.860498        23.4153 
  18   0.0000       0.924175        25.1481 
  19   0.0000       1.191175        32.4135 
  20   0.0000       1.577229        42.9186 
  21   0.0000       1.608758        43.7765 
  22   0.0000       1.608977        43.7825 
  23   0.0000       1.648558        44.8596 
  24   0.0000       1.703421        46.3525 
  25   0.0000       1.703422        46.3525 
  26   0.0000       2.115974        57.5786 
  27   0.0000       2.115983        57.5788 
  28   0.0000       2.677009        72.8451 
  29   0.0000       2.726071        74.1802 
  30   0.0000       2.726073        74.1802 
  31   0.0000       3.796640       103.3118 

                    ********************************
                    * MULLIKEN POPULATION ANALYSIS *
                    ********************************

-----------------------
MULLIKEN ATOMIC CHARGES
-----------------------
   0 C :   -0.212281
   1 C :   -0.212281
   2 H :    0.212281
   3 H :    0.212281
Sum of atomic charges:    0.0000000

--------------------------------
MULLIKEN REDUCED ORBITAL CHARGES
--------------------------------
  0 C s       :     3.186660  s :     3.186660
      pz      :     0.991182  p :     2.996323
      px      :     1.013959
      py      :     0.991182
      dz2     :     0.002916  d :     0.029298
      dxz     :     0.008817
      dyz     :     0.000000
      dx2y2   :     0.008747
      dxy     :     0.008817
  1 C s       :     3.186660  s :     3.186660
      pz      :     0.991182  p :     2.996323
      px      :     1.013959
      py      :     0.991182
      dz2     :     0.002916  d :     0.029298
      dxz     :     0.008817
      dyz     :     0.000000
      dx2y2   :     0.008747
      dxy     :     0.008817
  2 H s       :     0.787719  s :     0.787719
  3 H s       :     0.787719  s :     0.787719


                     *******************************
                     * LOEWDIN POPULATION ANALYSIS *
                     *******************************

----------------------
LOEWDIN ATOMIC CHARGES
----------------------
   0 C :   -0.162261
   1 C :   -0.162261
   2 H :    0.162261
   3 H :    0.162261

-------------------------------
LOEWDIN REDUCED ORBITAL CHARGES
-------------------------------
  0 C s       :     2.962366  s :     2.962366
      pz      :     0.981193  p :     3.130085
      px      :     1.167693
      py      :     0.981199
      dz2     :     0.008049  d :     0.069809
      dxz     :     0.018806
      dyz     :     0.000001
      dx2y2   :     0.024147
      dxy     :     0.018807
  1 C s       :     2.962366  s :     2.962366
      pz      :     0.981193  p :     3.130085
      px      :     1.167693
      py      :     0.981199
      dz2     :     0.008049  d :     0.069809
      dxz     :     0.018806
      dyz     :     0.000001
      dx2y2   :     0.024147
      dxy     :     0.018807
  2 H s       :     0.837739  s :     0.837739
  3 H s       :     0.837739  s :     0.837739


                      *****************************
                      * MAYER POPULATION ANALYSIS *
                      *****************************

  NA   - Mulliken gross atomic population
  ZA   - Total nuclear charge
  QA   - Mulliken gross atomic charge
  VA   - Mayer's total valence
  BVA  - Mayer's bonded valence
  FA   - Mayer's free valence

  ATOM       NA         ZA         QA         VA         BVA        FA
  0 C      6.2123     6.0000    -0.2123     4.0239     4.0239     0.0000
  1 C      6.2123     6.0000    -0.2123     4.0239     4.0239    -0.0000
  2 H      0.7877     1.0000     0.2123     0.9206     0.9206     0.0000
  3 H      0.7877     1.0000     0.2123     0.9206     0.9206    -0.0000

  Mayer bond orders larger than 0.1
B(  0-C ,  1-C ) :   3.1059 B(  0-C ,  2-H ) :   0.9026 B(  1-C ,  3-H ) :   0.9026 


-------
TIMINGS
-------

Total SCF time: 0 days 0 hours 0 min 3 sec 

Total time                  ....       3.664 sec
Sum of individual times     ....       3.552 sec  ( 97.0%)

Fock matrix formation       ....       3.187 sec  ( 87.0%)
  XC integration            ....       0.605 sec  ( 19.0% of F)
    Basis function eval.    ....       0.208 sec  ( 34.4% of XC)
    Density eval.           ....       0.029 sec  (  4.9% of XC)
    XC-Functional eval.     ....       0.167 sec  ( 27.6% of XC)
    XC-Potential eval.      ....       0.028 sec  (  4.6% of XC)
Diagonalization             ....       0.017 sec  (  0.5%)
Density matrix formation    ....       0.000 sec  (  0.0%)
Population analysis         ....       0.010 sec  (  0.3%)
Initial guess               ....       0.143 sec  (  3.9%)
Orbital Transformation      ....       0.000 sec  (  0.0%)
Orbital Orthonormalization  ....       0.000 sec  (  0.0%)
DIIS solution               ....       0.000 sec  (  0.0%)
Grid generation             ....       0.195 sec  (  5.3%)


-------------------------------------------------------------------------------
                          DFT DISPERSION CORRECTION                            
                                                                               
                              DFTD3 V3.1  Rev 1                                
                              USING zero damping                               
-------------------------------------------------------------------------------
The omegaB97X-D3 functional is recognized. Fit by Chai et al.
Active option DFTDOPT                   ...         3   

molecular C6(AA) [au] = 206.619981 


            DFT-D V3
 parameters
 s6 scaling factor         :     1.0000 
 rs6 scaling factor        :     1.2810 
 s8 scaling factor         :     1.0000 
 rs8 scaling factor        :     1.0940 
 Damping factor alpha6     :    14.0000 
 Damping factor alpha8     :    16.0000 
 ad hoc parameters k1-k3   :    16.0000     1.3333    -4.0000 

 Edisp/kcal,au: -0.049684285331  -0.000079176940 
 E6   /kcal   :  -0.022907947 
 E8   /kcal   :  -0.026776339 
 % E8         :  53.892973250 

-------------------------   ----------------
Dispersion correction           -0.000079177
-------------------------   ----------------


-------------------------   --------------------
FINAL SINGLE POINT ENERGY       -77.256729720048
-------------------------   --------------------


                            ***************************************
                            *     ORCA property calculations      *
                            ***************************************

                                    ---------------------
                                    Active property flags
                                    ---------------------
   (+) Dipole Moment


------------------------------------------------------------------------------
                       ORCA ELECTRIC PROPERTIES CALCULATION
------------------------------------------------------------------------------

Dipole Moment Calculation                       ... on
Quadrupole Moment Calculation                   ... off
Polarizability Calculation                      ... off
GBWName                                         ... Scan_3.gbw
Electron density file                           ... Scan_3.scfp.tmp

-------------
DIPOLE MOMENT
-------------
                                X             Y             Z
Electronic contribution:      0.00000       0.00000      -0.00000
Nuclear contribution   :      0.00000      -0.00000       0.00000
                        -----------------------------------------
Total Dipole Moment    :      0.00000       0.00000      -0.00000
                        -----------------------------------------
Magnitude (a.u.)       :      0.00000
Magnitude (Debye)      :      0.00000


Timings for individual modules:

Sum of individual times         ...        4.111 sec (=   0.069 min)
GTO integral calculation        ...        0.419 sec (=   0.007 min)  10.2 %
SCF iterations                  ...        3.692 sec (=   0.062 min)  89.8 %
                             ****ORCA TERMINATED NORMALLY****
TOTAL RUN TIME: 0 days 0 hours 0 minutes 4 seconds 482 msec
