
                                 *****************
                                 * O   R   C   A *
                                 *****************

           --- An Ab Initio, DFT and Semiempirical electronic structure package ---

                  #######################################################
                  #                        -***-                        #
                  #  Department of molecular theory and spectroscopy    #
                  #              Directorship: Frank Neese              #
                  # Max Planck Institute for Chemical Energy Conversion #
                  #                  D-45470 Muelheim/Ruhr              #
                  #                       Germany                       #
                  #                                                     #
                  #                  All rights reserved                #
                  #                        -***-                        #
                  #######################################################


                         Program Version 4.0.0.2 - RELEASE -


 With contributions from (in alphabetic order):
   Daniel Aravena         : Magnetic Properties
   Michael Atanasov       : Ab Initio Ligand Field Theory
   Ute Becker             : Parallelization
   Martin Brehm           : Molecular dynamics
   Dmytro Bykov           : SCF Hessian
   Vijay G. Chilkuri      : MRCI spin determinant printing
   Dipayan Datta          : RHF DLPNO-CCSD density
   Achintya Kumar Dutta   : EOM-CC, STEOM-CC
   Dmitry Ganyushin       : Spin-Orbit,Spin-Spin,Magnetic field MRCI
   Yang Guo               : DLPNO-NEVPT2, CIM, IAO-localization
   Andreas Hansen         : Spin unrestricted coupled pair/coupled cluster methods
   Lee Huntington         : MR-EOM, pCC
   Robert Izsak           : Overlap fitted RIJCOSX, COSX-SCS-MP3, EOM
   Christian Kollmar      : KDIIS, OOCD, Brueckner-CCSD(T), CCSD density
   Simone Kossmann        : Meta GGA functionals, TD-DFT gradient, OOMP2, MP2 Hessian
   Martin Krupicka        : AUTO-CI
   Dagmar Lenk            : GEPOL surface
   Dimitrios Liakos       : Extrapolation schemes; parallel MDCI
   Dimitrios Manganas     : ROCIS; embedding schemes
   Dimitrios Pantazis     : SARC Basis sets
   Taras Petrenko         : DFT Hessian,TD-DFT gradient, ASA, ECA, R-Raman, ABS, FL, XAS/XES, NRVS
   Peter Pinski           : DLPNO-MP2
   Christoph Reimann      : Effective Core Potentials
   Marius Retegan         : Local ZFS, SOC
   Christoph Riplinger    : Optimizer, TS searches, QM/MM, DLPNO-CCSD(T), (RO)-DLPNO pert. Triples
   Tobias Risthaus        : Range-separated hybrids, TD-DFT gradient, RPA, STAB
   Michael Roemelt        : Restricted open shell CIS
   Masaaki Saitow         : Open-shell DLPNO
   Barbara Sandhoefer     : DKH picture change effects
   Kantharuban Sivalingam : CASSCF convergence, NEVPT2, FIC-MRCI
   Georgi Stoychev        : AutoAux
   Boris Wezisla          : Elementary symmetry handling
   Frank Wennmohs         : Technical directorship


 We gratefully acknowledge several colleagues who have allowed us to
 interface, adapt or use parts of their codes:
   Stefan Grimme, W. Hujo, H. Kruse,             : VdW corrections, initial TS optimization,
                  C. Bannwarth                     DFT functionals, gCP, sTDA/sTD-DF
   Ed Valeev                                     : LibInt (2-el integral package), F12 methods
   Garnet Chan, S. Sharma, J. Yang, R. Olivares  : DMRG
   Ulf Ekstrom                                   : XCFun DFT Library
   Mihaly Kallay                                 : mrcc  (arbitrary order and MRCC methods)
   Jiri Pittner, Ondrej Demel                    : Mk-CCSD
   Frank Weinhold                                : gennbo (NPA and NBO analysis)
   Christopher J. Cramer and Donald G. Truhlar   : smd solvation model


 Your calculation uses the libint2 library for the computation of 2-el integrals
 For citations please refer to: http://libint.valeyev.net

 This ORCA versions uses:
   CBLAS   interface :  Fast vector & matrix operations
   LAPACKE interface :  Fast linear algebra routines
   SCALAPACK package :  Parallel linear algebra routines


Your calculation utilizes the atom-pairwise dispersion correction
with the zero-damping scheme (D30)
Cite in your paper:
S.Grimme, J.Antony, S.Ehrlich and H.Krieg, J.Chem.Phys., 132, (2010), 154104 
   

XCFun DFT library Copyright 2009-2010 Ulf Ekstrom and contributors.
See http://admol.org/xcfun for more information. This is free soft-
ware; see the source code for copying conditions. There is ABSOLUTELY
NO WARRANTY; not even for MERCHANTABILITY or FITNESS FOR A PARTICULAR
PURPOSE. For details see the documentation. Scientific users of this 
library should cite U. Ekstrom, L. Visscher, R. Bast, A. J. Thorvald-
sen and K. Ruud; J.Chem.Theor.Comp. 2010, DOI: 10.1021/ct100117s
XCFun Version 0.99 
Your calculation utilizes the basis: 6-31G(d)
   H-He, Li-Ne : W. J. Hehre, R. Ditchfield and J.A. Pople, J. Chem. Phys. 56, 2257 (1972).
                 Note: He and Ne are unpublished basis sets taken from the Gaussian program.
                 Note: Li and B from J. D. Dill and J. A. Pople, J. Chem. Phys. 62, 2921 (1975).
   Na - Ar     : M. M. Francl, W. J. Pietro, W. J. Hehre, J. S. Binkley, M. S. Gordon, 
                 D. J. DeFrees and J. A. Pople, J. Chem. Phys. 77, 3654 (1982).
   K - Zn      : V. A. Rassolov, J. A. Pople, M. A. Ratner, and T. L. Windus, J. Chem. Phys. 109, 1223 (1998).

================================================================================
                                        WARNINGS
                       Please study these warnings very carefully!
================================================================================

Warning: TCutStore was < 0. Adjusted to Thresh (uncritical)

INFO   : the flag for use of LIBINT has been found!

================================================================================
                                       INPUT FILE
================================================================================
NAME = initial30.inp
|  1> ! WB97X-D3 6-31G(d) VerySlowConv
|  2> ! KDIIS NOSOSCF
|  3> %base "Scan_30"
|  4> 
|  5> %scf
|  6> maxiter 999
|  7> end
|  8> 
|  9> * xyz 0 1
| 10> C         -3.993099068021    2.565190184910    0.000000074146
| 11> C         -0.531417236870    2.692050280051    0.000000234036
| 12> H         -3.875816393392    3.670813986722   -0.000000213872
| 13> H         -0.648687301716    1.586425548317   -0.000000094310
| 14> **                         ****END OF INPUT****
================================================================================

                       ****************************
                       * Single Point Calculation *
                       ****************************

---------------------------------
CARTESIAN COORDINATES (ANGSTROEM)
---------------------------------
  C     -3.993099    2.565190    0.000000
  C     -0.531417    2.692050    0.000000
  H     -3.875816    3.670814   -0.000000
  H     -0.648687    1.586426   -0.000000

----------------------------
CARTESIAN COORDINATES (A.U.)
----------------------------
  NO LB      ZA    FRAG     MASS         X           Y           Z
   0 C     6.0000    0    12.011   -7.545864    4.847507    0.000000
   1 C     6.0000    0    12.011   -1.004233    5.087238    0.000000
   2 H     1.0000    0     1.008   -7.324232    6.936833   -0.000000
   3 H     1.0000    0     1.008   -1.225841    2.997910   -0.000000

--------------------------------
INTERNAL COORDINATES (ANGSTROEM)
--------------------------------
 C      0   0   0     0.000000000000     0.00000000     0.00000000
 C      1   0   0     3.464005569259     0.00000000     0.00000000
 H      1   2   0     1.111826972555    81.84602997     0.00000000
 H      2   1   3     1.111826567200    81.84668122   180.00003209

---------------------------
INTERNAL COORDINATES (A.U.)
---------------------------
 C      0   0   0     0.000000000000     0.00000000     0.00000000
 C      1   0   0     6.546021852278     0.00000000     0.00000000
 H      1   2   0     2.101048486436    81.84602997     0.00000000
 H      2   1   3     2.101047720425    81.84668122   180.00003209

---------------------
BASIS SET INFORMATION
---------------------
There are 2 groups of distinct atoms

 Group   1 Type C   : 10s4p1d contracted to 3s2p1d pattern {631/31/1}
 Group   2 Type H   : 4s contracted to 2s pattern {31}

Atom   0C    basis set group =>   1
Atom   1C    basis set group =>   1
Atom   2H    basis set group =>   2
Atom   3H    basis set group =>   2
------------------------------------------------------------------------------
                           ORCA GTO INTEGRAL CALCULATION
------------------------------------------------------------------------------

                         BASIS SET STATISTICS AND STARTUP INFO

 # of primitive gaussian shells          ...   38
 # of primitive gaussian functions       ...   62
 # of contracted shells                  ...   16
 # of contracted basis functions         ...   32
 Highest angular momentum                ...    2
 Maximum contraction depth               ...    6
 Integral package used                   ... LIBINT
 Integral threshhold            Thresh   ...  1.000e-10
 Primitive cut-off              TCut     ...  1.000e-11


------------------------------ INTEGRAL EVALUATION ----------------------------


 * One electron integrals 
 Pre-screening matrix                    ... done
 Shell pair data                         ... done (   0.000 sec)

-------------------------------------------------------------------------------
                                 ORCA SCF
-------------------------------------------------------------------------------

------------
SCF SETTINGS
------------
Hamiltonian:
 Density Functional     Method          .... DFT(GTOs)
 Exchange Functional    Exchange        .... WB97X-D3
 Correlation Functional Correlation     .... WB97X-D3
 Gradients option       PostSCFGGA      .... off
 Hybrid DFT is turned on
   Fraction HF Exchange ScalHFX         ....  0.195728
   Scaling of DF-GGA-X  ScalDFX         ....  0.000000
   Scaling of DF-GGA-C  ScalDFC         ....  1.000000
   Scaling of DF-LDA-C  ScalLDAC        ....  1.000000
   Perturbative correction              ....  0.000000
 Long-range corrected/Screened/Range-Separated Hybrid DFT is turned on
   Amount of maximum screened exact exchange              ....  0.804272
   Range separation parameter mu (erf(mu*r12)/r12)        ....  0.250000


General Settings:
 Integral files         IntName         .... Scan_30
 Hartree-Fock type      HFTyp           .... RHF
 Total Charge           Charge          ....    0
 Multiplicity           Mult            ....    1
 Number of Electrons    NEL             ....   14
 Basis Dimension        Dim             ....   32
 Nuclear Repulsion      ENuc            ....     13.1709981975 Eh

Convergence Acceleration:
 DIIS                   CNVDIIS         .... on
   Start iteration      DIISMaxIt       ....     0
   Startup error        DIISStart       ....  0.200000
   # of expansion vecs  DIISMaxEq       ....     5
   Bias factor          DIISBfac        ....   1.050
   Max. coefficient     DIISMaxC        ....  10.000
 Newton-Raphson         CNVNR           .... off
 SOSCF                  CNVSOSCF        .... off
 Level Shifting         CNVShift        .... off
 Zerner damping         CNVZerner       .... off
 Static damping         CNVDamp         .... off
 Fernandez-Rico         CNVRico         .... off

SCF Procedure:
 Maximum # iterations   MaxIter         ....   999
 SCF integral mode      SCFMode         .... Direct
   Integral package                     .... LIBINT
 Reset frequeny         DirectResetFreq ....    20
 Integral Threshold     Thresh          ....  1.000e-10 Eh
 Primitive CutOff       TCut            ....  1.000e-11 Eh

Convergence Tolerance:
 Convergence Check Mode ConvCheckMode   .... All-Criteria
 Convergence forced     ConvForced      .... 0
 Energy Change          TolE            ....  1.000e-06 Eh
 Max Density Change     TolMaxP         ....  1.000e-05
 RMS Density Change     TolRMSP         ....  1.000e-06
 DIIS Error             TolErr          ....  1.000e-06


Diagonalization of the overlap matrix:
Smallest eigenvalue                        ... 4.622e-02
Time for diagonalization                   ...    0.001 sec
Threshold for overlap eigenvalues          ... 1.000e-08
Number of eigenvalues below threshold      ... 0
Time for construction of square roots      ...    0.005 sec
Total time needed                          ...    0.006 sec

-------------------
DFT GRID GENERATION
-------------------

General Integration Accuracy     IntAcc      ...  4.340
Radial Grid Type                 RadialGrid  ... Gauss-Chebyshev
Angular Grid (max. acc.)         AngularGrid ... Lebedev-110
Angular grid pruning method      GridPruning ... 3 (G Style)
Weight generation scheme         WeightScheme... Becke
Basis function cutoff            BFCut       ...    1.0000e-10
Integration weight cutoff        WCut        ...    1.0000e-14
Grids for H and He will be reduced by one unit

# of grid points (after initial pruning)     ...   4900 (   0.0 sec)
# of grid points (after weights+screening)   ...   4844 (   0.0 sec)
nearest neighbour list constructed           ...    0.0 sec
Grid point re-assignment to atoms done       ...    0.0 sec
Grid point division into batches done        ...    0.0 sec
Reduced shell lists constructed in    0.0 sec

Total number of grid points                  ...     4844
Total number of batches                      ...       76
Average number of points per batch           ...       63
Average number of grid points per atom       ...     1211
Average number of shells per batch           ...    12.81 (80.03%)
Average number of basis functions per batch  ...    25.69 (80.28%)
Average number of large shells per batch     ...    10.69 (83.47%)
Average number of large basis fcns per batch ...    21.31 (82.96%)
Maximum spatial batch extension              ...  20.28, 20.32, 31.36 au
Average spatial batch extension              ...   6.06,  5.54,  6.56 au

Time for grid setup =    0.033 sec

------------------------------
INITIAL GUESS: MODEL POTENTIAL
------------------------------
Loading Hartree-Fock densities                     ... done
Calculating cut-offs                               ... done
Setting up the integral package                    ... done
Initializing the effective Hamiltonian             ... done
Starting the Coulomb interaction                   ... done (   0.0 sec)
Reading the grid                                   ... done
Mapping shells                                     ... done
Starting the XC term evaluation                    ... done (   0.0 sec)
  promolecular density results
     # of electrons  =     13.997750482
     EX              =    -10.514211481
     EC              =     -0.380345799
     EX+EC           =    -10.894557280
Transforming the Hamiltonian                       ... done (   0.0 sec)
Diagonalizing the Hamiltonian                      ... done (   0.0 sec)
Back transforming the eigenvectors                 ... done (   0.0 sec)
Now organizing SCF variables                       ... done
                      ------------------
                      INITIAL GUESS DONE (   0.3 sec)
                      ------------------
--------------
SCF ITERATIONS
--------------
ITER       Energy         Delta-E        Max-DP      RMS-DP      [F,P]   Gradient Norm
               ***  Starting incremental Fock matrix formation  ***
                             ****Resetting KDIIS****
                             ****Turning on KDIIS(Cayley)****
  0    -76.8490537056   0.000000000000 0.00550399  0.00047633  0.0282322   0.025075829
  1    -76.8500533955  -0.000999689941 0.00735860  0.00080244  0.0254840   0.022616427
  2    -76.8515846399  -0.001531244405 0.01316004  0.00142720  0.0209087   0.018204300
  3    -76.8534713646  -0.001886724716 0.01992616  0.00218568  0.0125816   0.010927718
  4    -76.8545460169  -0.001074652275 0.00022944  0.00003146  0.0001194   0.000079239
                          ***Energy convergence achieved***
  5    -76.8545462563  -0.000000239416 0.00006258  0.00000747  0.0000293   0.000016369

            ***Energy convergence in two consecutive cycles with***
                    ***'reasonable' density convergence***
                       *** signaling convergence ***

                    *** KDIIS BlockDiag ( 0.000 sec) ***

               *****************************************************
               *                     SUCCESS                       *
               *           SCF CONVERGED AFTER   6 CYCLES          *
               *****************************************************

Setting up the final grid:

General Integration Accuracy     IntAcc      ...  4.670
Radial Grid Type                 RadialGrid  ... Gauss-Chebyshev
Angular Grid (max. acc.)         AngularGrid ... Lebedev-302
Angular grid pruning method      GridPruning ... 3 (G Style)
Weight generation scheme         WeightScheme... Becke
Basis function cutoff            BFCut       ...    1.0000e-10
Integration weight cutoff        WCut        ...    1.0000e-14
Grids for H and He will be reduced by one unit

# of grid points (after initial pruning)     ...  19212 (   0.0 sec)
# of grid points (after weights+screening)   ...  19030 (   0.0 sec)
nearest neighbour list constructed           ...    0.0 sec
Grid point re-assignment to atoms done       ...    0.0 sec
Grid point division into batches done        ...    0.1 sec
Reduced shell lists constructed in    0.3 sec

Total number of grid points                  ...    19030
Total number of batches                      ...      300
Average number of points per batch           ...       63
Average number of grid points per atom       ...     4758
Average number of shells per batch           ...    11.31 (70.66%)
Average number of basis functions per batch  ...    22.65 (70.77%)
Average number of large shells per batch     ...     9.30 (82.25%)
Average number of large basis fcns per batch ...    18.31 (80.84%)
Maximum spatial batch extension              ...  19.73, 19.08, 20.64 au
Average spatial batch extension              ...   3.87,  3.50,  4.05 au

Final grid set up in    0.3 sec
Final integration                            ... done (   0.4 sec)
Change in XC energy                          ...     0.000157193
Integrated number of electrons               ...    13.999997946
Previous integrated no of electrons          ...    14.000055765

----------------
TOTAL SCF ENERGY
----------------

Total Energy       :          -76.85438907 Eh           -2091.31425 eV

Components:
Nuclear Repulsion  :           13.17099820 Eh             358.40108 eV
Electronic Energy  :          -90.02538727 Eh           -2449.71533 eV
One Electron Energy:         -128.20110736 Eh           -3488.52948 eV
Two Electron Energy:           38.17572009 Eh            1038.81416 eV

Virial components:
Potential Energy   :         -153.22203499 Eh           -4169.38354 eV
Kinetic Energy     :           76.36764592 Eh            2078.06929 eV
Virial Ratio       :            2.00637368


DFT components:
N(Alpha)           :        6.999998972833 electrons
N(Beta)            :        6.999998972833 electrons
N(Total)           :       13.999997945666 electrons
E(XC)              :       -7.581132930936 Eh       

---------------
SCF CONVERGENCE
---------------

  Last Energy change         ...   -1.1153e-08  Tolerance :   1.0000e-06
  Last MAX-Density change    ...    2.0433e-05  Tolerance :   1.0000e-05
  Last RMS-Density change    ...    1.3439e-06  Tolerance :   1.0000e-06
  Last DIIS Error            ...    1.1414e-05  Tolerance :   1.0000e-06

             **** THE GBW FILE WAS UPDATED (Scan_30.gbw) ****
             **** DENSITY FILE WAS UPDATED (Scan_30.scfp.tmp) ****
             **** ENERGY FILE WAS UPDATED (Scan_30.en.tmp) ****
----------------
ORBITAL ENERGIES
----------------

  NO   OCC          E(Eh)            E(eV) 
   0   2.0000     -10.405341      -283.1437 
   1   2.0000     -10.405291      -283.1424 
   2   2.0000      -0.746519       -20.3138 
   3   2.0000      -0.738012       -20.0823 
   4   2.0000      -0.408754       -11.1228 
   5   2.0000      -0.405282       -11.0283 
   6   2.0000      -0.261681        -7.1207 
   7   0.0000      -0.067087        -1.8255 
   8   0.0000      -0.037901        -1.0313 
   9   0.0000      -0.029909        -0.8139 
  10   0.0000       0.218300         5.9402 
  11   0.0000       0.232117         6.3162 
  12   0.0000       0.572892        15.5892 
  13   0.0000       0.632984        17.2244 
  14   0.0000       0.641845        17.4655 
  15   0.0000       0.673948        18.3390 
  16   0.0000       0.677168        18.4267 
  17   0.0000       0.690300        18.7840 
  18   0.0000       0.727235        19.7891 
  19   0.0000       0.889142        24.1948 
  20   0.0000       0.972063        26.4512 
  21   0.0000       0.988052        26.8863 
  22   0.0000       1.749030        47.5935 
  23   0.0000       1.749059        47.5943 
  24   0.0000       1.762526        47.9608 
  25   0.0000       1.763669        47.9919 
  26   0.0000       1.775299        48.3083 
  27   0.0000       1.776471        48.3402 
  28   0.0000       1.778956        48.4079 
  29   0.0000       1.782920        48.5157 
  30   0.0000       2.204702        59.9930 
  31   0.0000       2.205403        60.0121 

                    ********************************
                    * MULLIKEN POPULATION ANALYSIS *
                    ********************************

-----------------------
MULLIKEN ATOMIC CHARGES
-----------------------
   0 C :   -0.163576
   1 C :   -0.163649
   2 H :    0.163607
   3 H :    0.163617
Sum of atomic charges:   -0.0000000

--------------------------------
MULLIKEN REDUCED ORBITAL CHARGES
--------------------------------
  0 C s       :     3.922092  s :     3.922092
      pz      :     0.000000  p :     2.226607
      px      :     1.007015
      py      :     1.219593
      dz2     :     0.003641  d :     0.014876
      dxz     :     0.000000
      dyz     :     0.000000
      dx2y2   :     0.010222
      dxy     :     0.001014
  1 C s       :     3.922093  s :     3.922093
      pz      :     0.000000  p :     2.226680
      px      :     1.007076
      py      :     1.219603
      dz2     :     0.003641  d :     0.014877
      dxz     :     0.000000
      dyz     :     0.000000
      dx2y2   :     0.010222
      dxy     :     0.001014
  2 H s       :     0.836393  s :     0.836393
  3 H s       :     0.836383  s :     0.836383


                     *******************************
                     * LOEWDIN POPULATION ANALYSIS *
                     *******************************

----------------------
LOEWDIN ATOMIC CHARGES
----------------------
   0 C :   -0.114237
   1 C :   -0.114307
   2 H :    0.114269
   3 H :    0.114276

-------------------------------
LOEWDIN REDUCED ORBITAL CHARGES
-------------------------------
  0 C s       :     3.755677  s :     3.755677
      pz      :     0.000000  p :     2.338440
      px      :     1.009297
      py      :     1.329143
      dz2     :     0.004972  d :     0.020120
      dxz     :     0.000000
      dyz     :     0.000000
      dx2y2   :     0.013963
      dxy     :     0.001185
  1 C s       :     3.755678  s :     3.755678
      pz      :     0.000000  p :     2.338510
      px      :     1.009359
      py      :     1.329151
      dz2     :     0.004972  d :     0.020120
      dxz     :     0.000000
      dyz     :     0.000000
      dx2y2   :     0.013963
      dxy     :     0.001185
  2 H s       :     0.885731  s :     0.885731
  3 H s       :     0.885724  s :     0.885724


                      *****************************
                      * MAYER POPULATION ANALYSIS *
                      *****************************

  NA   - Mulliken gross atomic population
  ZA   - Total nuclear charge
  QA   - Mulliken gross atomic charge
  VA   - Mayer's total valence
  BVA  - Mayer's bonded valence
  FA   - Mayer's free valence

  ATOM       NA         ZA         QA         VA         BVA        FA
  0 C      6.1636     6.0000    -0.1636     1.9060     1.9060    -0.0000
  1 C      6.1636     6.0000    -0.1636     1.9060     1.9060     0.0000
  2 H      0.8364     1.0000     0.1636     0.9066     0.9066     0.0000
  3 H      0.8364     1.0000     0.1636     0.9066     0.9066    -0.0000

  Mayer bond orders larger than 0.1
B(  0-C ,  1-C ) :   0.9995 B(  0-C ,  2-H ) :   0.9055 B(  1-C ,  3-H ) :   0.9055 


-------
TIMINGS
-------

Total SCF time: 0 days 0 hours 0 min 5 sec 

Total time                  ....       5.826 sec
Sum of individual times     ....       5.542 sec  ( 95.1%)

Fock matrix formation       ....       4.818 sec  ( 82.7%)
  XC integration            ....       1.406 sec  ( 29.2% of F)
    Basis function eval.    ....       0.340 sec  ( 24.2% of XC)
    Density eval.           ....       0.100 sec  (  7.1% of XC)
    XC-Functional eval.     ....       0.307 sec  ( 21.8% of XC)
    XC-Potential eval.      ....       0.023 sec  (  1.6% of XC)
Diagonalization             ....       0.097 sec  (  1.7%)
Density matrix formation    ....       0.000 sec  (  0.0%)
Population analysis         ....       0.009 sec  (  0.2%)
Initial guess               ....       0.273 sec  (  4.7%)
Orbital Transformation      ....       0.000 sec  (  0.0%)
Orbital Orthonormalization  ....       0.000 sec  (  0.0%)
DIIS solution               ....       0.000 sec  (  0.0%)
Grid generation             ....       0.346 sec  (  5.9%)


-------------------------------------------------------------------------------
                          DFT DISPERSION CORRECTION                            
                                                                               
                              DFTD3 V3.1  Rev 1                                
                              USING zero damping                               
-------------------------------------------------------------------------------
The omegaB97X-D3 functional is recognized. Fit by Chai et al.
Active option DFTDOPT                   ...         3   

molecular C6(AA) [au] = 276.831916 


            DFT-D V3
 parameters
 s6 scaling factor         :     1.0000 
 rs6 scaling factor        :     1.2810 
 s8 scaling factor         :     1.0000 
 rs8 scaling factor        :     1.0940 
 Damping factor alpha6     :    14.0000 
 Damping factor alpha8     :    16.0000 
 ad hoc parameters k1-k3   :    16.0000     1.3333    -4.0000 

 Edisp/kcal,au: -0.270122547935  -0.000430467635 
 E6   /kcal   :  -0.106160903 
 E8   /kcal   :  -0.163961645 
 % E8         :  60.698985081 

-------------------------   ----------------
Dispersion correction           -0.000430468
-------------------------   ----------------


-------------------------   --------------------
FINAL SINGLE POINT ENERGY       -76.854819542181
-------------------------   --------------------


                            ***************************************
                            *     ORCA property calculations      *
                            ***************************************

                                    ---------------------
                                    Active property flags
                                    ---------------------
   (+) Dipole Moment


------------------------------------------------------------------------------
                       ORCA ELECTRIC PROPERTIES CALCULATION
------------------------------------------------------------------------------

Dipole Moment Calculation                       ... on
Quadrupole Moment Calculation                   ... off
Polarizability Calculation                      ... off
GBWName                                         ... Scan_30.gbw
Electron density file                           ... Scan_30.scfp.tmp

-------------
DIPOLE MOMENT
-------------
                                X             Y             Z
Electronic contribution:     -0.00021      -0.00002       0.00000
Nuclear contribution   :      0.00001      -0.00000      -0.00000
                        -----------------------------------------
Total Dipole Moment    :     -0.00020      -0.00002      -0.00000
                        -----------------------------------------
Magnitude (a.u.)       :      0.00020
Magnitude (Debye)      :      0.00051


Timings for individual modules:

Sum of individual times         ...        6.609 sec (=   0.110 min)
GTO integral calculation        ...        0.698 sec (=   0.012 min)  10.6 %
SCF iterations                  ...        5.911 sec (=   0.099 min)  89.4 %
                             ****ORCA TERMINATED NORMALLY****
TOTAL RUN TIME: 0 days 0 hours 0 minutes 7 seconds 505 msec
