
                                 *****************
                                 * O   R   C   A *
                                 *****************

           --- An Ab Initio, DFT and Semiempirical electronic structure package ---

                  #######################################################
                  #                        -***-                        #
                  #  Department of molecular theory and spectroscopy    #
                  #              Directorship: Frank Neese              #
                  # Max Planck Institute for Chemical Energy Conversion #
                  #                  D-45470 Muelheim/Ruhr              #
                  #                       Germany                       #
                  #                                                     #
                  #                  All rights reserved                #
                  #                        -***-                        #
                  #######################################################


                         Program Version 4.0.0.2 - RELEASE -


 With contributions from (in alphabetic order):
   Daniel Aravena         : Magnetic Properties
   Michael Atanasov       : Ab Initio Ligand Field Theory
   Ute Becker             : Parallelization
   Martin Brehm           : Molecular dynamics
   Dmytro Bykov           : SCF Hessian
   Vijay G. Chilkuri      : MRCI spin determinant printing
   Dipayan Datta          : RHF DLPNO-CCSD density
   Achintya Kumar Dutta   : EOM-CC, STEOM-CC
   Dmitry Ganyushin       : Spin-Orbit,Spin-Spin,Magnetic field MRCI
   Yang Guo               : DLPNO-NEVPT2, CIM, IAO-localization
   Andreas Hansen         : Spin unrestricted coupled pair/coupled cluster methods
   Lee Huntington         : MR-EOM, pCC
   Robert Izsak           : Overlap fitted RIJCOSX, COSX-SCS-MP3, EOM
   Christian Kollmar      : KDIIS, OOCD, Brueckner-CCSD(T), CCSD density
   Simone Kossmann        : Meta GGA functionals, TD-DFT gradient, OOMP2, MP2 Hessian
   Martin Krupicka        : AUTO-CI
   Dagmar Lenk            : GEPOL surface
   Dimitrios Liakos       : Extrapolation schemes; parallel MDCI
   Dimitrios Manganas     : ROCIS; embedding schemes
   Dimitrios Pantazis     : SARC Basis sets
   Taras Petrenko         : DFT Hessian,TD-DFT gradient, ASA, ECA, R-Raman, ABS, FL, XAS/XES, NRVS
   Peter Pinski           : DLPNO-MP2
   Christoph Reimann      : Effective Core Potentials
   Marius Retegan         : Local ZFS, SOC
   Christoph Riplinger    : Optimizer, TS searches, QM/MM, DLPNO-CCSD(T), (RO)-DLPNO pert. Triples
   Tobias Risthaus        : Range-separated hybrids, TD-DFT gradient, RPA, STAB
   Michael Roemelt        : Restricted open shell CIS
   Masaaki Saitow         : Open-shell DLPNO
   Barbara Sandhoefer     : DKH picture change effects
   Kantharuban Sivalingam : CASSCF convergence, NEVPT2, FIC-MRCI
   Georgi Stoychev        : AutoAux
   Boris Wezisla          : Elementary symmetry handling
   Frank Wennmohs         : Technical directorship


 We gratefully acknowledge several colleagues who have allowed us to
 interface, adapt or use parts of their codes:
   Stefan Grimme, W. Hujo, H. Kruse,             : VdW corrections, initial TS optimization,
                  C. Bannwarth                     DFT functionals, gCP, sTDA/sTD-DF
   Ed Valeev                                     : LibInt (2-el integral package), F12 methods
   Garnet Chan, S. Sharma, J. Yang, R. Olivares  : DMRG
   Ulf Ekstrom                                   : XCFun DFT Library
   Mihaly Kallay                                 : mrcc  (arbitrary order and MRCC methods)
   Jiri Pittner, Ondrej Demel                    : Mk-CCSD
   Frank Weinhold                                : gennbo (NPA and NBO analysis)
   Christopher J. Cramer and Donald G. Truhlar   : smd solvation model


 Your calculation uses the libint2 library for the computation of 2-el integrals
 For citations please refer to: http://libint.valeyev.net

 This ORCA versions uses:
   CBLAS   interface :  Fast vector & matrix operations
   LAPACKE interface :  Fast linear algebra routines
   SCALAPACK package :  Parallel linear algebra routines


Your calculation utilizes the atom-pairwise dispersion correction
with the zero-damping scheme (D30)
Cite in your paper:
S.Grimme, J.Antony, S.Ehrlich and H.Krieg, J.Chem.Phys., 132, (2010), 154104 
   

XCFun DFT library Copyright 2009-2010 Ulf Ekstrom and contributors.
See http://admol.org/xcfun for more information. This is free soft-
ware; see the source code for copying conditions. There is ABSOLUTELY
NO WARRANTY; not even for MERCHANTABILITY or FITNESS FOR A PARTICULAR
PURPOSE. For details see the documentation. Scientific users of this 
library should cite U. Ekstrom, L. Visscher, R. Bast, A. J. Thorvald-
sen and K. Ruud; J.Chem.Theor.Comp. 2010, DOI: 10.1021/ct100117s
XCFun Version 0.99 
Your calculation utilizes the basis: 6-31G(d)
   H-He, Li-Ne : W. J. Hehre, R. Ditchfield and J.A. Pople, J. Chem. Phys. 56, 2257 (1972).
                 Note: He and Ne are unpublished basis sets taken from the Gaussian program.
                 Note: Li and B from J. D. Dill and J. A. Pople, J. Chem. Phys. 62, 2921 (1975).
   Na - Ar     : M. M. Francl, W. J. Pietro, W. J. Hehre, J. S. Binkley, M. S. Gordon, 
                 D. J. DeFrees and J. A. Pople, J. Chem. Phys. 77, 3654 (1982).
   K - Zn      : V. A. Rassolov, J. A. Pople, M. A. Ratner, and T. L. Windus, J. Chem. Phys. 109, 1223 (1998).

================================================================================
                                        WARNINGS
                       Please study these warnings very carefully!
================================================================================

Warning: TCutStore was < 0. Adjusted to Thresh (uncritical)

INFO   : the flag for use of LIBINT has been found!

================================================================================
                                       INPUT FILE
================================================================================
NAME = initial31.inp
|  1> ! WB97X-D3 6-31G(d) VerySlowConv
|  2> ! KDIIS NOSOSCF
|  3> %base "Scan_31"
|  4> 
|  5> %scf
|  6> maxiter 999
|  7> end
|  8> 
|  9> * xyz 0 1
| 10> C         -4.044699720825    2.569098169637    0.000000032904
| 11> C         -0.479811704565    2.688143007564    0.000000197407
| 12> H         -3.882853745508    3.669137264384   -0.000000175281
| 13> H         -0.641654829103    1.588101558416   -0.000000055031
| 14> **                         ****END OF INPUT****
================================================================================

                       ****************************
                       * Single Point Calculation *
                       ****************************

---------------------------------
CARTESIAN COORDINATES (ANGSTROEM)
---------------------------------
  C     -4.044700    2.569098    0.000000
  C     -0.479812    2.688143    0.000000
  H     -3.882854    3.669137   -0.000000
  H     -0.641655    1.588102   -0.000000

----------------------------
CARTESIAN COORDINATES (A.U.)
----------------------------
  NO LB      ZA    FRAG     MASS         X           Y           Z
   0 C     6.0000    0    12.011   -7.643375    4.854892    0.000000
   1 C     6.0000    0    12.011   -0.906713    5.079854    0.000000
   2 H     1.0000    0     1.008   -7.337530    6.933665   -0.000000
   3 H     1.0000    0     1.008   -1.212552    3.001077   -0.000000

--------------------------------
INTERNAL COORDINATES (ANGSTROEM)
--------------------------------
 C      0   0   0     0.000000000000     0.00000000     0.00000000
 C      1   0   0     3.566875136855     0.00000000     0.00000000
 H      1   2   0     1.111881346951    79.71765576     0.00000000
 H      2   1   3     1.111883261320    79.71781875   180.00002412

---------------------------
INTERNAL COORDINATES (A.U.)
---------------------------
 C      0   0   0     0.000000000000     0.00000000     0.00000000
 C      1   0   0     6.740417162548     0.00000000     0.00000000
 H      1   2   0     2.101151239153    79.71765576     0.00000000
 H      2   1   3     2.101154856786    79.71781875   180.00002412

---------------------
BASIS SET INFORMATION
---------------------
There are 2 groups of distinct atoms

 Group   1 Type C   : 10s4p1d contracted to 3s2p1d pattern {631/31/1}
 Group   2 Type H   : 4s contracted to 2s pattern {31}

Atom   0C    basis set group =>   1
Atom   1C    basis set group =>   1
Atom   2H    basis set group =>   2
Atom   3H    basis set group =>   2
------------------------------------------------------------------------------
                           ORCA GTO INTEGRAL CALCULATION
------------------------------------------------------------------------------

                         BASIS SET STATISTICS AND STARTUP INFO

 # of primitive gaussian shells          ...   38
 # of primitive gaussian functions       ...   62
 # of contracted shells                  ...   16
 # of contracted basis functions         ...   32
 Highest angular momentum                ...    2
 Maximum contraction depth               ...    6
 Integral package used                   ... LIBINT
 Integral threshhold            Thresh   ...  1.000e-10
 Primitive cut-off              TCut     ...  1.000e-11


------------------------------ INTEGRAL EVALUATION ----------------------------


 * One electron integrals 
 Pre-screening matrix                    ... done
 Shell pair data                         ... done (   0.000 sec)

-------------------------------------------------------------------------------
                                 ORCA SCF
-------------------------------------------------------------------------------

------------
SCF SETTINGS
------------
Hamiltonian:
 Density Functional     Method          .... DFT(GTOs)
 Exchange Functional    Exchange        .... WB97X-D3
 Correlation Functional Correlation     .... WB97X-D3
 Gradients option       PostSCFGGA      .... off
 Hybrid DFT is turned on
   Fraction HF Exchange ScalHFX         ....  0.195728
   Scaling of DF-GGA-X  ScalDFX         ....  0.000000
   Scaling of DF-GGA-C  ScalDFC         ....  1.000000
   Scaling of DF-LDA-C  ScalLDAC        ....  1.000000
   Perturbative correction              ....  0.000000
 Long-range corrected/Screened/Range-Separated Hybrid DFT is turned on
   Amount of maximum screened exact exchange              ....  0.804272
   Range separation parameter mu (erf(mu*r12)/r12)        ....  0.250000


General Settings:
 Integral files         IntName         .... Scan_31
 Hartree-Fock type      HFTyp           .... RHF
 Total Charge           Charge          ....    0
 Multiplicity           Mult            ....    1
 Number of Electrons    NEL             ....   14
 Basis Dimension        Dim             ....   32
 Nuclear Repulsion      ENuc            ....     12.9824529348 Eh

Convergence Acceleration:
 DIIS                   CNVDIIS         .... on
   Start iteration      DIISMaxIt       ....     0
   Startup error        DIISStart       ....  0.200000
   # of expansion vecs  DIISMaxEq       ....     5
   Bias factor          DIISBfac        ....   1.050
   Max. coefficient     DIISMaxC        ....  10.000
 Newton-Raphson         CNVNR           .... off
 SOSCF                  CNVSOSCF        .... off
 Level Shifting         CNVShift        .... off
 Zerner damping         CNVZerner       .... off
 Static damping         CNVDamp         .... off
 Fernandez-Rico         CNVRico         .... off

SCF Procedure:
 Maximum # iterations   MaxIter         ....   999
 SCF integral mode      SCFMode         .... Direct
   Integral package                     .... LIBINT
 Reset frequeny         DirectResetFreq ....    20
 Integral Threshold     Thresh          ....  1.000e-10 Eh
 Primitive CutOff       TCut            ....  1.000e-11 Eh

Convergence Tolerance:
 Convergence Check Mode ConvCheckMode   .... All-Criteria
 Convergence forced     ConvForced      .... 0
 Energy Change          TolE            ....  1.000e-06 Eh
 Max Density Change     TolMaxP         ....  1.000e-05
 RMS Density Change     TolRMSP         ....  1.000e-06
 DIIS Error             TolErr          ....  1.000e-06


Diagonalization of the overlap matrix:
Smallest eigenvalue                        ... 4.679e-02
Time for diagonalization                   ...    0.001 sec
Threshold for overlap eigenvalues          ... 1.000e-08
Number of eigenvalues below threshold      ... 0
Time for construction of square roots      ...    0.018 sec
Total time needed                          ...    0.019 sec

-------------------
DFT GRID GENERATION
-------------------

General Integration Accuracy     IntAcc      ...  4.340
Radial Grid Type                 RadialGrid  ... Gauss-Chebyshev
Angular Grid (max. acc.)         AngularGrid ... Lebedev-110
Angular grid pruning method      GridPruning ... 3 (G Style)
Weight generation scheme         WeightScheme... Becke
Basis function cutoff            BFCut       ...    1.0000e-10
Integration weight cutoff        WCut        ...    1.0000e-14
Grids for H and He will be reduced by one unit

# of grid points (after initial pruning)     ...   4900 (   0.0 sec)
# of grid points (after weights+screening)   ...   4866 (   0.0 sec)
nearest neighbour list constructed           ...    0.0 sec
Grid point re-assignment to atoms done       ...    0.0 sec
Grid point division into batches done        ...    0.0 sec
Reduced shell lists constructed in    0.0 sec

Total number of grid points                  ...     4866
Total number of batches                      ...       78
Average number of points per batch           ...       62
Average number of grid points per atom       ...     1216
Average number of shells per batch           ...    12.66 (79.11%)
Average number of basis functions per batch  ...    25.52 (79.75%)
Average number of large shells per batch     ...    10.48 (82.80%)
Average number of large basis fcns per batch ...    20.71 (81.15%)
Maximum spatial batch extension              ...  21.62, 20.05, 31.36 au
Average spatial batch extension              ...   6.12,  5.74,  6.92 au

Time for grid setup =    0.045 sec

------------------------------
INITIAL GUESS: MODEL POTENTIAL
------------------------------
Loading Hartree-Fock densities                     ... done
Calculating cut-offs                               ... done
Setting up the integral package                    ... done
Initializing the effective Hamiltonian             ... done
Starting the Coulomb interaction                   ... done (   0.0 sec)
Reading the grid                                   ... done
Mapping shells                                     ... done
Starting the XC term evaluation                    ... done (   0.0 sec)
  promolecular density results
     # of electrons  =     13.997964463
     EX              =    -10.514114346
     EC              =     -0.380139119
     EX+EC           =    -10.894253466
Transforming the Hamiltonian                       ... done (   0.0 sec)
Diagonalizing the Hamiltonian                      ... done (   0.0 sec)
Back transforming the eigenvectors                 ... done (   0.0 sec)
Now organizing SCF variables                       ... done
                      ------------------
                      INITIAL GUESS DONE (   0.2 sec)
                      ------------------
--------------
SCF ITERATIONS
--------------
ITER       Energy         Delta-E        Max-DP      RMS-DP      [F,P]   Gradient Norm
               ***  Starting incremental Fock matrix formation  ***
                             ****Resetting KDIIS****
                             ****Turning on KDIIS(Cayley)****
  0    -76.8421943131   0.000000000000 0.00565709  0.00048691  0.0286422   0.025179505
  1    -76.8432076054  -0.001013292307 0.00742080  0.00081525  0.0258338   0.022701096
  2    -76.8447478746  -0.001540269196 0.01326226  0.00144801  0.0211951   0.018274230
  3    -76.8466435330  -0.001895658410 0.02009235  0.00221587  0.0127622   0.010971593
  4    -76.8477227819  -0.001079248942 0.00026715  0.00002909  0.0001085   0.000074491
                          ***Energy convergence achieved***
  5    -76.8477229665  -0.000000184584 0.00015617  0.00001103  0.0000796   0.000050239

            ***Energy convergence in two consecutive cycles with***
                    ***'reasonable' density convergence***
                       *** signaling convergence ***

                    *** KDIIS BlockDiag ( 0.000 sec) ***

               *****************************************************
               *                     SUCCESS                       *
               *           SCF CONVERGED AFTER   6 CYCLES          *
               *****************************************************

Setting up the final grid:

General Integration Accuracy     IntAcc      ...  4.670
Radial Grid Type                 RadialGrid  ... Gauss-Chebyshev
Angular Grid (max. acc.)         AngularGrid ... Lebedev-302
Angular grid pruning method      GridPruning ... 3 (G Style)
Weight generation scheme         WeightScheme... Becke
Basis function cutoff            BFCut       ...    1.0000e-10
Integration weight cutoff        WCut        ...    1.0000e-14
Grids for H and He will be reduced by one unit

# of grid points (after initial pruning)     ...  19212 (   0.0 sec)
# of grid points (after weights+screening)   ...  19056 (   0.0 sec)
nearest neighbour list constructed           ...    0.0 sec
Grid point re-assignment to atoms done       ...    0.0 sec
Grid point division into batches done        ...    0.1 sec
Reduced shell lists constructed in    0.2 sec

Total number of grid points                  ...    19056
Total number of batches                      ...      300
Average number of points per batch           ...       63
Average number of grid points per atom       ...     4764
Average number of shells per batch           ...    11.14 (69.60%)
Average number of basis functions per batch  ...    22.15 (69.23%)
Average number of large shells per batch     ...     9.26 (83.14%)
Average number of large basis fcns per batch ...    18.22 (82.26%)
Maximum spatial batch extension              ...  19.81, 17.09, 24.37 au
Average spatial batch extension              ...   3.84,  3.47,  4.11 au

Final grid set up in    0.2 sec
Final integration                            ... done (   0.4 sec)
Change in XC energy                          ...     0.000068683
Integrated number of electrons               ...    13.999998414
Previous integrated no of electrons          ...    14.000385549

----------------
TOTAL SCF ENERGY
----------------

Total Energy       :          -76.84765431 Eh           -2091.13098 eV

Components:
Nuclear Repulsion  :           12.98245293 Eh             353.27050 eV
Electronic Energy  :          -89.83010725 Eh           -2444.40149 eV
One Electron Energy:         -127.81610189 Eh           -3478.05295 eV
Two Electron Energy:           37.98599465 Eh            1033.65146 eV

Virial components:
Potential Energy   :         -153.22622417 Eh           -4169.49753 eV
Kinetic Energy     :           76.37856986 Eh            2078.36655 eV
Virial Ratio       :            2.00614157


DFT components:
N(Alpha)           :        6.999999207193 electrons
N(Beta)            :        6.999999207193 electrons
N(Total)           :       13.999998414385 electrons
E(XC)              :       -7.581502602850 Eh       

---------------
SCF CONVERGENCE
---------------

  Last Energy change         ...   -2.6983e-08  Tolerance :   1.0000e-06
  Last MAX-Density change    ...    8.9179e-05  Tolerance :   1.0000e-05
  Last RMS-Density change    ...    7.1122e-06  Tolerance :   1.0000e-06
  Last DIIS Error            ...    3.5195e-05  Tolerance :   1.0000e-06

             **** THE GBW FILE WAS UPDATED (Scan_31.gbw) ****
             **** DENSITY FILE WAS UPDATED (Scan_31.scfp.tmp) ****
             **** ENERGY FILE WAS UPDATED (Scan_31.en.tmp) ****
----------------
ORBITAL ENERGIES
----------------

  NO   OCC          E(Eh)            E(eV) 
   0   2.0000     -10.405118      -283.1376 
   1   2.0000     -10.404964      -283.1335 
   2   2.0000      -0.746458       -20.3122 
   3   2.0000      -0.738840       -20.1049 
   4   2.0000      -0.408973       -11.1287 
   5   2.0000      -0.405497       -11.0341 
   6   2.0000      -0.258108        -7.0235 
   7   0.0000      -0.072527        -1.9736 
   8   0.0000      -0.037595        -1.0230 
   9   0.0000      -0.030903        -0.8409 
  10   0.0000       0.218748         5.9524 
  11   0.0000       0.230625         6.2756 
  12   0.0000       0.572091        15.5674 
  13   0.0000       0.635215        17.2851 
  14   0.0000       0.644722        17.5438 
  15   0.0000       0.670779        18.2528 
  16   0.0000       0.672929        18.3113 
  17   0.0000       0.691167        18.8076 
  18   0.0000       0.727931        19.8080 
  19   0.0000       0.869980        23.6734 
  20   0.0000       0.973364        26.4866 
  21   0.0000       0.982427        26.7332 
  22   0.0000       1.748810        47.5875 
  23   0.0000       1.748897        47.5899 
  24   0.0000       1.762175        47.9512 
  25   0.0000       1.763164        47.9781 
  26   0.0000       1.774643        48.2905 
  27   0.0000       1.775713        48.3196 
  28   0.0000       1.778432        48.3936 
  29   0.0000       1.781251        48.4703 
  30   0.0000       2.201643        59.9098 
  31   0.0000       2.206986        60.0551 

                    ********************************
                    * MULLIKEN POPULATION ANALYSIS *
                    ********************************

-----------------------
MULLIKEN ATOMIC CHARGES
-----------------------
   0 C :   -0.163583
   1 C :   -0.163360
   2 H :    0.163487
   3 H :    0.163455
Sum of atomic charges:   -0.0000000

--------------------------------
MULLIKEN REDUCED ORBITAL CHARGES
--------------------------------
  0 C s       :     3.923152  s :     3.923152
      pz      :     0.000000  p :     2.225586
      px      :     1.008405
      py      :     1.217182
      dz2     :     0.003641  d :     0.014845
      dxz     :     0.000000
      dyz     :     0.000000
      dx2y2   :     0.009809
      dxy     :     0.001395
  1 C s       :     3.923150  s :     3.923150
      pz      :     0.000000  p :     2.225365
      px      :     1.008218
      py      :     1.217147
      dz2     :     0.003641  d :     0.014844
      dxz     :     0.000000
      dyz     :     0.000000
      dx2y2   :     0.009809
      dxy     :     0.001394
  2 H s       :     0.836513  s :     0.836513
  3 H s       :     0.836545  s :     0.836545


                     *******************************
                     * LOEWDIN POPULATION ANALYSIS *
                     *******************************

----------------------
LOEWDIN ATOMIC CHARGES
----------------------
   0 C :   -0.114193
   1 C :   -0.113980
   2 H :    0.114098
   3 H :    0.114075

-------------------------------
LOEWDIN REDUCED ORBITAL CHARGES
-------------------------------
  0 C s       :     3.756628  s :     3.756628
      pz      :     0.000000  p :     2.337477
      px      :     1.011588
      py      :     1.325889
      dz2     :     0.004974  d :     0.020089
      dxz     :     0.000000
      dyz     :     0.000000
      dx2y2   :     0.013397
      dxy     :     0.001718
  1 C s       :     3.756626  s :     3.756626
      pz      :     0.000000  p :     2.337264
      px      :     1.011400
      py      :     1.325864
      dz2     :     0.004974  d :     0.020089
      dxz     :     0.000000
      dyz     :     0.000000
      dx2y2   :     0.013397
      dxy     :     0.001718
  2 H s       :     0.885902  s :     0.885902
  3 H s       :     0.885925  s :     0.885925


                      *****************************
                      * MAYER POPULATION ANALYSIS *
                      *****************************

  NA   - Mulliken gross atomic population
  ZA   - Total nuclear charge
  QA   - Mulliken gross atomic charge
  VA   - Mayer's total valence
  BVA  - Mayer's bonded valence
  FA   - Mayer's free valence

  ATOM       NA         ZA         QA         VA         BVA        FA
  0 C      6.1636     6.0000    -0.1636     1.9054     1.9054     0.0000
  1 C      6.1634     6.0000    -0.1634     1.9054     1.9054    -0.0000
  2 H      0.8365     1.0000     0.1635     0.9065     0.9065     0.0000
  3 H      0.8365     1.0000     0.1635     0.9065     0.9065    -0.0000

  Mayer bond orders larger than 0.1
B(  0-C ,  1-C ) :   0.9990 B(  0-C ,  2-H ) :   0.9053 B(  1-C ,  3-H ) :   0.9053 


-------
TIMINGS
-------

Total SCF time: 0 days 0 hours 0 min 5 sec 

Total time                  ....       5.371 sec
Sum of individual times     ....       5.023 sec  ( 93.5%)

Fock matrix formation       ....       4.373 sec  ( 81.4%)
  XC integration            ....       1.026 sec  ( 23.5% of F)
    Basis function eval.    ....       0.225 sec  ( 21.9% of XC)
    Density eval.           ....       0.036 sec  (  3.5% of XC)
    XC-Functional eval.     ....       0.282 sec  ( 27.5% of XC)
    XC-Potential eval.      ....       0.020 sec  (  1.9% of XC)
Diagonalization             ....       0.200 sec  (  3.7%)
Density matrix formation    ....       0.000 sec  (  0.0%)
Population analysis         ....       0.042 sec  (  0.8%)
Initial guess               ....       0.132 sec  (  2.5%)
Orbital Transformation      ....       0.000 sec  (  0.0%)
Orbital Orthonormalization  ....       0.000 sec  (  0.0%)
DIIS solution               ....       0.000 sec  (  0.0%)
Grid generation             ....       0.277 sec  (  5.2%)


-------------------------------------------------------------------------------
                          DFT DISPERSION CORRECTION                            
                                                                               
                              DFTD3 V3.1  Rev 1                                
                              USING zero damping                               
-------------------------------------------------------------------------------
The omegaB97X-D3 functional is recognized. Fit by Chai et al.
Active option DFTDOPT                   ...         3   

molecular C6(AA) [au] = 276.836345 


            DFT-D V3
 parameters
 s6 scaling factor         :     1.0000 
 rs6 scaling factor        :     1.2810 
 s8 scaling factor         :     1.0000 
 rs8 scaling factor        :     1.0940 
 Damping factor alpha6     :    14.0000 
 Damping factor alpha8     :    16.0000 
 ad hoc parameters k1-k3   :    16.0000     1.3333    -4.0000 

 Edisp/kcal,au: -0.271312807400  -0.000432364434 
 E6   /kcal   :  -0.112533248 
 E8   /kcal   :  -0.158779559 
 % E8         :  58.522692239 

-------------------------   ----------------
Dispersion correction           -0.000432364
-------------------------   ----------------


-------------------------   --------------------
FINAL SINGLE POINT ENERGY       -76.848086675248
-------------------------   --------------------


                            ***************************************
                            *     ORCA property calculations      *
                            ***************************************

                                    ---------------------
                                    Active property flags
                                    ---------------------
   (+) Dipole Moment


------------------------------------------------------------------------------
                       ORCA ELECTRIC PROPERTIES CALCULATION
------------------------------------------------------------------------------

Dipole Moment Calculation                       ... on
Quadrupole Moment Calculation                   ... off
Polarizability Calculation                      ... off
GBWName                                         ... Scan_31.gbw
Electron density file                           ... Scan_31.scfp.tmp

-------------
DIPOLE MOMENT
-------------
                                X             Y             Z
Electronic contribution:      0.00064       0.00007       0.00000
Nuclear contribution   :      0.00000      -0.00000      -0.00000
                        -----------------------------------------
Total Dipole Moment    :      0.00065       0.00007      -0.00000
                        -----------------------------------------
Magnitude (a.u.)       :      0.00065
Magnitude (Debye)      :      0.00165


Timings for individual modules:

Sum of individual times         ...        6.099 sec (=   0.102 min)
GTO integral calculation        ...        0.515 sec (=   0.009 min)   8.5 %
SCF iterations                  ...        5.584 sec (=   0.093 min)  91.5 %
                             ****ORCA TERMINATED NORMALLY****
TOTAL RUN TIME: 0 days 0 hours 0 minutes 6 seconds 684 msec
