
                                 *****************
                                 * O   R   C   A *
                                 *****************

           --- An Ab Initio, DFT and Semiempirical electronic structure package ---

                  #######################################################
                  #                        -***-                        #
                  #  Department of molecular theory and spectroscopy    #
                  #              Directorship: Frank Neese              #
                  # Max Planck Institute for Chemical Energy Conversion #
                  #                  D-45470 Muelheim/Ruhr              #
                  #                       Germany                       #
                  #                                                     #
                  #                  All rights reserved                #
                  #                        -***-                        #
                  #######################################################


                         Program Version 4.0.0.2 - RELEASE -


 With contributions from (in alphabetic order):
   Daniel Aravena         : Magnetic Properties
   Michael Atanasov       : Ab Initio Ligand Field Theory
   Ute Becker             : Parallelization
   Martin Brehm           : Molecular dynamics
   Dmytro Bykov           : SCF Hessian
   Vijay G. Chilkuri      : MRCI spin determinant printing
   Dipayan Datta          : RHF DLPNO-CCSD density
   Achintya Kumar Dutta   : EOM-CC, STEOM-CC
   Dmitry Ganyushin       : Spin-Orbit,Spin-Spin,Magnetic field MRCI
   Yang Guo               : DLPNO-NEVPT2, CIM, IAO-localization
   Andreas Hansen         : Spin unrestricted coupled pair/coupled cluster methods
   Lee Huntington         : MR-EOM, pCC
   Robert Izsak           : Overlap fitted RIJCOSX, COSX-SCS-MP3, EOM
   Christian Kollmar      : KDIIS, OOCD, Brueckner-CCSD(T), CCSD density
   Simone Kossmann        : Meta GGA functionals, TD-DFT gradient, OOMP2, MP2 Hessian
   Martin Krupicka        : AUTO-CI
   Dagmar Lenk            : GEPOL surface
   Dimitrios Liakos       : Extrapolation schemes; parallel MDCI
   Dimitrios Manganas     : ROCIS; embedding schemes
   Dimitrios Pantazis     : SARC Basis sets
   Taras Petrenko         : DFT Hessian,TD-DFT gradient, ASA, ECA, R-Raman, ABS, FL, XAS/XES, NRVS
   Peter Pinski           : DLPNO-MP2
   Christoph Reimann      : Effective Core Potentials
   Marius Retegan         : Local ZFS, SOC
   Christoph Riplinger    : Optimizer, TS searches, QM/MM, DLPNO-CCSD(T), (RO)-DLPNO pert. Triples
   Tobias Risthaus        : Range-separated hybrids, TD-DFT gradient, RPA, STAB
   Michael Roemelt        : Restricted open shell CIS
   Masaaki Saitow         : Open-shell DLPNO
   Barbara Sandhoefer     : DKH picture change effects
   Kantharuban Sivalingam : CASSCF convergence, NEVPT2, FIC-MRCI
   Georgi Stoychev        : AutoAux
   Boris Wezisla          : Elementary symmetry handling
   Frank Wennmohs         : Technical directorship


 We gratefully acknowledge several colleagues who have allowed us to
 interface, adapt or use parts of their codes:
   Stefan Grimme, W. Hujo, H. Kruse,             : VdW corrections, initial TS optimization,
                  C. Bannwarth                     DFT functionals, gCP, sTDA/sTD-DF
   Ed Valeev                                     : LibInt (2-el integral package), F12 methods
   Garnet Chan, S. Sharma, J. Yang, R. Olivares  : DMRG
   Ulf Ekstrom                                   : XCFun DFT Library
   Mihaly Kallay                                 : mrcc  (arbitrary order and MRCC methods)
   Jiri Pittner, Ondrej Demel                    : Mk-CCSD
   Frank Weinhold                                : gennbo (NPA and NBO analysis)
   Christopher J. Cramer and Donald G. Truhlar   : smd solvation model


 Your calculation uses the libint2 library for the computation of 2-el integrals
 For citations please refer to: http://libint.valeyev.net

 This ORCA versions uses:
   CBLAS   interface :  Fast vector & matrix operations
   LAPACKE interface :  Fast linear algebra routines
   SCALAPACK package :  Parallel linear algebra routines


Your calculation utilizes the atom-pairwise dispersion correction
with the zero-damping scheme (D30)
Cite in your paper:
S.Grimme, J.Antony, S.Ehrlich and H.Krieg, J.Chem.Phys., 132, (2010), 154104 
   

XCFun DFT library Copyright 2009-2010 Ulf Ekstrom and contributors.
See http://admol.org/xcfun for more information. This is free soft-
ware; see the source code for copying conditions. There is ABSOLUTELY
NO WARRANTY; not even for MERCHANTABILITY or FITNESS FOR A PARTICULAR
PURPOSE. For details see the documentation. Scientific users of this 
library should cite U. Ekstrom, L. Visscher, R. Bast, A. J. Thorvald-
sen and K. Ruud; J.Chem.Theor.Comp. 2010, DOI: 10.1021/ct100117s
XCFun Version 0.99 
Your calculation utilizes the basis: 6-31G(d)
   H-He, Li-Ne : W. J. Hehre, R. Ditchfield and J.A. Pople, J. Chem. Phys. 56, 2257 (1972).
                 Note: He and Ne are unpublished basis sets taken from the Gaussian program.
                 Note: Li and B from J. D. Dill and J. A. Pople, J. Chem. Phys. 62, 2921 (1975).
   Na - Ar     : M. M. Francl, W. J. Pietro, W. J. Hehre, J. S. Binkley, M. S. Gordon, 
                 D. J. DeFrees and J. A. Pople, J. Chem. Phys. 77, 3654 (1982).
   K - Zn      : V. A. Rassolov, J. A. Pople, M. A. Ratner, and T. L. Windus, J. Chem. Phys. 109, 1223 (1998).

================================================================================
                                        WARNINGS
                       Please study these warnings very carefully!
================================================================================

Warning: TCutStore was < 0. Adjusted to Thresh (uncritical)

INFO   : the flag for use of LIBINT has been found!

================================================================================
                                       INPUT FILE
================================================================================
NAME = initial32.inp
|  1> ! WB97X-D3 6-31G(d) VerySlowConv
|  2> ! KDIIS NOSOSCF
|  3> %base "Scan_32"
|  4> 
|  5> %scf
|  6> maxiter 999
|  7> end
|  8> 
|  9> * xyz 0 1
| 10> C         -4.096229541942    2.574337841071    0.000000002275
| 11> C         -0.428283590876    2.682902707588    0.000000171347
| 12> H         -3.891925964016    3.667307134825   -0.000000147376
| 13> H         -0.632580903166    1.589932316515   -0.000000026247
| 14> **                         ****END OF INPUT****
================================================================================

                       ****************************
                       * Single Point Calculation *
                       ****************************

---------------------------------
CARTESIAN COORDINATES (ANGSTROEM)
---------------------------------
  C     -4.096230    2.574338    0.000000
  C     -0.428284    2.682903    0.000000
  H     -3.891926    3.667307   -0.000000
  H     -0.632581    1.589932   -0.000000

----------------------------
CARTESIAN COORDINATES (A.U.)
----------------------------
  NO LB      ZA    FRAG     MASS         X           Y           Z
   0 C     6.0000    0    12.011   -7.740752    4.864793    0.000000
   1 C     6.0000    0    12.011   -0.809339    5.069951    0.000000
   2 H     1.0000    0     1.008   -7.354674    6.930206   -0.000000
   3 H     1.0000    0     1.008   -1.195405    3.004537   -0.000000

--------------------------------
INTERNAL COORDINATES (ANGSTROEM)
--------------------------------
 C      0   0   0     0.000000000000     0.00000000     0.00000000
 C      1   0   0     3.669552265629     0.00000000     0.00000000
 H      1   2   0     1.111900098499    77.71679822     0.00000000
 H      2   1   3     1.111900025889    77.71712598   180.00001827

---------------------------
INTERNAL COORDINATES (A.U.)
---------------------------
 C      0   0   0     0.000000000000     0.00000000     0.00000000
 C      1   0   0     6.934448816149     0.00000000     0.00000000
 H      1   2   0     2.101186674444    77.71679822     0.00000000
 H      2   1   3     2.101186537230    77.71712598   180.00001827

---------------------
BASIS SET INFORMATION
---------------------
There are 2 groups of distinct atoms

 Group   1 Type C   : 10s4p1d contracted to 3s2p1d pattern {631/31/1}
 Group   2 Type H   : 4s contracted to 2s pattern {31}

Atom   0C    basis set group =>   1
Atom   1C    basis set group =>   1
Atom   2H    basis set group =>   2
Atom   3H    basis set group =>   2
------------------------------------------------------------------------------
                           ORCA GTO INTEGRAL CALCULATION
------------------------------------------------------------------------------

                         BASIS SET STATISTICS AND STARTUP INFO

 # of primitive gaussian shells          ...   38
 # of primitive gaussian functions       ...   62
 # of contracted shells                  ...   16
 # of contracted basis functions         ...   32
 Highest angular momentum                ...    2
 Maximum contraction depth               ...    6
 Integral package used                   ... LIBINT
 Integral threshhold            Thresh   ...  1.000e-10
 Primitive cut-off              TCut     ...  1.000e-11


------------------------------ INTEGRAL EVALUATION ----------------------------


 * One electron integrals 
 Pre-screening matrix                    ... done
 Shell pair data                         ... done (   0.000 sec)

-------------------------------------------------------------------------------
                                 ORCA SCF
-------------------------------------------------------------------------------

------------
SCF SETTINGS
------------
Hamiltonian:
 Density Functional     Method          .... DFT(GTOs)
 Exchange Functional    Exchange        .... WB97X-D3
 Correlation Functional Correlation     .... WB97X-D3
 Gradients option       PostSCFGGA      .... off
 Hybrid DFT is turned on
   Fraction HF Exchange ScalHFX         ....  0.195728
   Scaling of DF-GGA-X  ScalDFX         ....  0.000000
   Scaling of DF-GGA-C  ScalDFC         ....  1.000000
   Scaling of DF-LDA-C  ScalLDAC        ....  1.000000
   Perturbative correction              ....  0.000000
 Long-range corrected/Screened/Range-Separated Hybrid DFT is turned on
   Amount of maximum screened exact exchange              ....  0.804272
   Range separation parameter mu (erf(mu*r12)/r12)        ....  0.250000


General Settings:
 Integral files         IntName         .... Scan_32
 Hartree-Fock type      HFTyp           .... RHF
 Total Charge           Charge          ....    0
 Multiplicity           Mult            ....    1
 Number of Electrons    NEL             ....   14
 Basis Dimension        Dim             ....   32
 Nuclear Repulsion      ENuc            ....     12.8029667169 Eh

Convergence Acceleration:
 DIIS                   CNVDIIS         .... on
   Start iteration      DIISMaxIt       ....     0
   Startup error        DIISStart       ....  0.200000
   # of expansion vecs  DIISMaxEq       ....     5
   Bias factor          DIISBfac        ....   1.050
   Max. coefficient     DIISMaxC        ....  10.000
 Newton-Raphson         CNVNR           .... off
 SOSCF                  CNVSOSCF        .... off
 Level Shifting         CNVShift        .... off
 Zerner damping         CNVZerner       .... off
 Static damping         CNVDamp         .... off
 Fernandez-Rico         CNVRico         .... off

SCF Procedure:
 Maximum # iterations   MaxIter         ....   999
 SCF integral mode      SCFMode         .... Direct
   Integral package                     .... LIBINT
 Reset frequeny         DirectResetFreq ....    20
 Integral Threshold     Thresh          ....  1.000e-10 Eh
 Primitive CutOff       TCut            ....  1.000e-11 Eh

Convergence Tolerance:
 Convergence Check Mode ConvCheckMode   .... All-Criteria
 Convergence forced     ConvForced      .... 0
 Energy Change          TolE            ....  1.000e-06 Eh
 Max Density Change     TolMaxP         ....  1.000e-05
 RMS Density Change     TolRMSP         ....  1.000e-06
 DIIS Error             TolErr          ....  1.000e-06


Diagonalization of the overlap matrix:
Smallest eigenvalue                        ... 4.732e-02
Time for diagonalization                   ...    0.001 sec
Threshold for overlap eigenvalues          ... 1.000e-08
Number of eigenvalues below threshold      ... 0
Time for construction of square roots      ...    0.024 sec
Total time needed                          ...    0.025 sec

-------------------
DFT GRID GENERATION
-------------------

General Integration Accuracy     IntAcc      ...  4.340
Radial Grid Type                 RadialGrid  ... Gauss-Chebyshev
Angular Grid (max. acc.)         AngularGrid ... Lebedev-110
Angular grid pruning method      GridPruning ... 3 (G Style)
Weight generation scheme         WeightScheme... Becke
Basis function cutoff            BFCut       ...    1.0000e-10
Integration weight cutoff        WCut        ...    1.0000e-14
Grids for H and He will be reduced by one unit

# of grid points (after initial pruning)     ...   4900 (   0.0 sec)
# of grid points (after weights+screening)   ...   4874 (   0.0 sec)
nearest neighbour list constructed           ...    0.0 sec
Grid point re-assignment to atoms done       ...    0.0 sec
Grid point division into batches done        ...    0.0 sec
Reduced shell lists constructed in    0.0 sec

Total number of grid points                  ...     4874
Total number of batches                      ...       80
Average number of points per batch           ...       60
Average number of grid points per atom       ...     1218
Average number of shells per batch           ...    12.38 (77.39%)
Average number of basis functions per batch  ...    24.78 (77.43%)
Average number of large shells per batch     ...    10.42 (84.15%)
Average number of large basis fcns per batch ...    20.47 (82.61%)
Maximum spatial batch extension              ...  21.62, 20.05, 31.36 au
Average spatial batch extension              ...   6.09,  5.70,  6.83 au

Time for grid setup =    0.042 sec

------------------------------
INITIAL GUESS: MODEL POTENTIAL
------------------------------
Loading Hartree-Fock densities                     ... done
Calculating cut-offs                               ... done
Setting up the integral package                    ... done
Initializing the effective Hamiltonian             ... done
Starting the Coulomb interaction                   ... done (   0.0 sec)
Reading the grid                                   ... done
Mapping shells                                     ... done
Starting the XC term evaluation                    ... done (   0.0 sec)
  promolecular density results
     # of electrons  =     13.998219137
     EX              =    -10.514088384
     EC              =     -0.379981855
     EX+EC           =    -10.894070239
Transforming the Hamiltonian                       ... done (   0.0 sec)
Diagonalizing the Hamiltonian                      ... done (   0.0 sec)
Back transforming the eigenvectors                 ... done (   0.0 sec)
Now organizing SCF variables                       ... done
                      ------------------
                      INITIAL GUESS DONE (   0.2 sec)
                      ------------------
--------------
SCF ITERATIONS
--------------
ITER       Energy         Delta-E        Max-DP      RMS-DP      [F,P]   Gradient Norm
               ***  Starting incremental Fock matrix formation  ***
                             ****Resetting KDIIS****
                             ****Turning on KDIIS(Cayley)****
  0    -76.8357692839   0.000000000000 0.00581142  0.00049722  0.0289713   0.025290202
  1    -76.8367960349  -0.001026750968 0.00743820  0.00082645  0.0261086   0.022790815
  2    -76.8383435482  -0.001547513378 0.01329183  0.00146610  0.0214182   0.018348341
  3    -76.8402461230  -0.001902574730 0.02012305  0.00224220  0.0129033   0.011017725
  4    -76.8413287768  -0.001082653820 0.00017267  0.00002734  0.0000966   0.000066008
                          ***Energy convergence achieved***
  5    -76.8413289510  -0.000000174177 0.00006181  0.00000753  0.0000292   0.000015096

            ***Energy convergence in two consecutive cycles with***
                    ***'reasonable' density convergence***
                       *** signaling convergence ***

                    *** KDIIS BlockDiag ( 0.000 sec) ***

               *****************************************************
               *                     SUCCESS                       *
               *           SCF CONVERGED AFTER   6 CYCLES          *
               *****************************************************

Setting up the final grid:

General Integration Accuracy     IntAcc      ...  4.670
Radial Grid Type                 RadialGrid  ... Gauss-Chebyshev
Angular Grid (max. acc.)         AngularGrid ... Lebedev-302
Angular grid pruning method      GridPruning ... 3 (G Style)
Weight generation scheme         WeightScheme... Becke
Basis function cutoff            BFCut       ...    1.0000e-10
Integration weight cutoff        WCut        ...    1.0000e-14
Grids for H and He will be reduced by one unit

# of grid points (after initial pruning)     ...  19212 (   0.0 sec)
# of grid points (after weights+screening)   ...  19078 (   0.0 sec)
nearest neighbour list constructed           ...    0.0 sec
Grid point re-assignment to atoms done       ...    0.0 sec
Grid point division into batches done        ...    0.1 sec
Reduced shell lists constructed in    0.2 sec

Total number of grid points                  ...    19078
Total number of batches                      ...      302
Average number of points per batch           ...       63
Average number of grid points per atom       ...     4770
Average number of shells per batch           ...    10.95 (68.46%)
Average number of basis functions per batch  ...    21.69 (67.79%)
Average number of large shells per batch     ...     9.20 (83.97%)
Average number of large basis fcns per batch ...    18.10 (83.42%)
Maximum spatial batch extension              ...  19.84, 21.40, 24.37 au
Average spatial batch extension              ...   3.82,  3.62,  4.17 au

Final grid set up in    0.3 sec
Final integration                            ... done (   0.2 sec)
Change in XC energy                          ...     0.000034649
Integrated number of electrons               ...    13.999999645
Previous integrated no of electrons          ...    14.000806292

----------------
TOTAL SCF ENERGY
----------------

Total Energy       :          -76.84129431 Eh           -2090.95792 eV

Components:
Nuclear Repulsion  :           12.80296672 Eh             348.38644 eV
Electronic Energy  :          -89.64426103 Eh           -2439.34436 eV
One Electron Energy:         -127.45137443 Eh           -3468.12821 eV
Two Electron Energy:           37.80711340 Eh            1028.78386 eV

Virial components:
Potential Energy   :         -153.23116478 Eh           -4169.63197 eV
Kinetic Energy     :           76.38987047 Eh            2078.67405 eV
Virial Ratio       :            2.00590947


DFT components:
N(Alpha)           :        6.999999822540 electrons
N(Beta)            :        6.999999822540 electrons
N(Total)           :       13.999999645081 electrons
E(XC)              :       -7.582218147413 Eh       

---------------
SCF CONVERGENCE
---------------

  Last Energy change         ...   -1.1088e-08  Tolerance :   1.0000e-06
  Last MAX-Density change    ...    2.2164e-05  Tolerance :   1.0000e-05
  Last RMS-Density change    ...    1.4848e-06  Tolerance :   1.0000e-06
  Last DIIS Error            ...    1.3260e-05  Tolerance :   1.0000e-06

             **** THE GBW FILE WAS UPDATED (Scan_32.gbw) ****
             **** DENSITY FILE WAS UPDATED (Scan_32.scfp.tmp) ****
             **** ENERGY FILE WAS UPDATED (Scan_32.en.tmp) ****
----------------
ORBITAL ENERGIES
----------------

  NO   OCC          E(Eh)            E(eV) 
   0   2.0000     -10.404581      -283.1230 
   1   2.0000     -10.404523      -283.1215 
   2   2.0000      -0.746350       -20.3092 
   3   2.0000      -0.739523       -20.1234 
   4   2.0000      -0.409002       -11.1295 
   5   2.0000      -0.405681       -11.0391 
   6   2.0000      -0.254584        -6.9276 
   7   0.0000      -0.077426        -2.1069 
   8   0.0000      -0.037260        -1.0139 
   9   0.0000      -0.031676        -0.8620 
  10   0.0000       0.219220         5.9653 
  11   0.0000       0.229207         6.2370 
  12   0.0000       0.573476        15.6051 
  13   0.0000       0.637407        17.3447 
  14   0.0000       0.647150        17.6098 
  15   0.0000       0.667954        18.1760 
  16   0.0000       0.669389        18.2150 
  17   0.0000       0.691616        18.8198 
  18   0.0000       0.728859        19.8333 
  19   0.0000       0.850881        23.1536 
  20   0.0000       0.974877        26.5278 
  21   0.0000       0.977987        26.6124 
  22   0.0000       1.748785        47.5869 
  23   0.0000       1.748819        47.5878 
  24   0.0000       1.762032        47.9473 
  25   0.0000       1.762898        47.9709 
  26   0.0000       1.774173        48.2777 
  27   0.0000       1.775156        48.3045 
  28   0.0000       1.778180        48.3867 
  29   0.0000       1.780311        48.4447 
  30   0.0000       2.199275        59.8453 
  31   0.0000       2.207981        60.0822 

                    ********************************
                    * MULLIKEN POPULATION ANALYSIS *
                    ********************************

-----------------------
MULLIKEN ATOMIC CHARGES
-----------------------
   0 C :   -0.163197
   1 C :   -0.163114
   2 H :    0.163162
   3 H :    0.163150
Sum of atomic charges:   -0.0000000

--------------------------------
MULLIKEN REDUCED ORBITAL CHARGES
--------------------------------
  0 C s       :     3.923989  s :     3.923989
      pz      :     0.000000  p :     2.224386
      px      :     1.009813
      py      :     1.214574
      dz2     :     0.003642  d :     0.014822
      dxz     :     0.000000
      dyz     :     0.000000
      dx2y2   :     0.009321
      dxy     :     0.001859
  1 C s       :     3.923989  s :     3.923989
      pz      :     0.000000  p :     2.224304
      px      :     1.009743
      py      :     1.214561
      dz2     :     0.003642  d :     0.014821
      dxz     :     0.000000
      dyz     :     0.000000
      dx2y2   :     0.009321
      dxy     :     0.001859
  2 H s       :     0.836838  s :     0.836838
  3 H s       :     0.836850  s :     0.836850


                     *******************************
                     * LOEWDIN POPULATION ANALYSIS *
                     *******************************

----------------------
LOEWDIN ATOMIC CHARGES
----------------------
   0 C :   -0.113817
   1 C :   -0.113737
   2 H :    0.113781
   3 H :    0.113773

-------------------------------
LOEWDIN REDUCED ORBITAL CHARGES
-------------------------------
  0 C s       :     3.757303  s :     3.757303
      pz      :     0.000000  p :     2.336444
      px      :     1.014269
      py      :     1.322175
      dz2     :     0.004977  d :     0.020071
      dxz     :     0.000000
      dyz     :     0.000000
      dx2y2   :     0.012725
      dxy     :     0.002369
  1 C s       :     3.757302  s :     3.757302
      pz      :     0.000000  p :     2.336365
      px      :     1.014199
      py      :     1.322166
      dz2     :     0.004977  d :     0.020071
      dxz     :     0.000000
      dyz     :     0.000000
      dx2y2   :     0.012726
      dxy     :     0.002368
  2 H s       :     0.886219  s :     0.886219
  3 H s       :     0.886227  s :     0.886227


                      *****************************
                      * MAYER POPULATION ANALYSIS *
                      *****************************

  NA   - Mulliken gross atomic population
  ZA   - Total nuclear charge
  QA   - Mulliken gross atomic charge
  VA   - Mayer's total valence
  BVA  - Mayer's bonded valence
  FA   - Mayer's free valence

  ATOM       NA         ZA         QA         VA         BVA        FA
  0 C      6.1632     6.0000    -0.1632     1.9048     1.9048    -0.0000
  1 C      6.1631     6.0000    -0.1631     1.9049     1.9049     0.0000
  2 H      0.8368     1.0000     0.1632     0.9064     0.9064    -0.0000
  3 H      0.8369     1.0000     0.1631     0.9064     0.9064     0.0000

  Mayer bond orders larger than 0.1
B(  0-C ,  1-C ) :   0.9985 B(  0-C ,  2-H ) :   0.9051 B(  1-C ,  3-H ) :   0.9051 


-------
TIMINGS
-------

Total SCF time: 0 days 0 hours 0 min 4 sec 

Total time                  ....       4.863 sec
Sum of individual times     ....       4.532 sec  ( 93.2%)

Fock matrix formation       ....       4.006 sec  ( 82.4%)
  XC integration            ....       0.985 sec  ( 24.6% of F)
    Basis function eval.    ....       0.282 sec  ( 28.6% of XC)
    Density eval.           ....       0.028 sec  (  2.9% of XC)
    XC-Functional eval.     ....       0.276 sec  ( 28.0% of XC)
    XC-Potential eval.      ....       0.020 sec  (  2.0% of XC)
Diagonalization             ....       0.091 sec  (  1.9%)
Density matrix formation    ....       0.000 sec  (  0.0%)
Population analysis         ....       0.009 sec  (  0.2%)
Initial guess               ....       0.130 sec  (  2.7%)
Orbital Transformation      ....       0.000 sec  (  0.0%)
Orbital Orthonormalization  ....       0.000 sec  (  0.0%)
DIIS solution               ....       0.000 sec  (  0.0%)
Grid generation             ....       0.296 sec  (  6.1%)


-------------------------------------------------------------------------------
                          DFT DISPERSION CORRECTION                            
                                                                               
                              DFTD3 V3.1  Rev 1                                
                              USING zero damping                               
-------------------------------------------------------------------------------
The omegaB97X-D3 functional is recognized. Fit by Chai et al.
Active option DFTDOPT                   ...         3   

molecular C6(AA) [au] = 276.839492 


            DFT-D V3
 parameters
 s6 scaling factor         :     1.0000 
 rs6 scaling factor        :     1.2810 
 s8 scaling factor         :     1.0000 
 rs8 scaling factor        :     1.0940 
 Damping factor alpha6     :    14.0000 
 Damping factor alpha8     :    16.0000 
 ad hoc parameters k1-k3   :    16.0000     1.3333    -4.0000 

 Edisp/kcal,au: -0.267549699338  -0.000426367540 
 E6   /kcal   :  -0.118407265 
 E8   /kcal   :  -0.149142434 
 % E8         :  55.743824229 

-------------------------   ----------------
Dispersion correction           -0.000426368
-------------------------   ----------------


-------------------------   --------------------
FINAL SINGLE POINT ENERGY       -76.841720680880
-------------------------   --------------------


                            ***************************************
                            *     ORCA property calculations      *
                            ***************************************

                                    ---------------------
                                    Active property flags
                                    ---------------------
   (+) Dipole Moment


------------------------------------------------------------------------------
                       ORCA ELECTRIC PROPERTIES CALCULATION
------------------------------------------------------------------------------

Dipole Moment Calculation                       ... on
Quadrupole Moment Calculation                   ... off
Polarizability Calculation                      ... off
GBWName                                         ... Scan_32.gbw
Electron density file                           ... Scan_32.scfp.tmp

-------------
DIPOLE MOMENT
-------------
                                X             Y             Z
Electronic contribution:      0.00025       0.00002       0.00000
Nuclear contribution   :      0.00001      -0.00000      -0.00000
                        -----------------------------------------
Total Dipole Moment    :      0.00025       0.00002      -0.00000
                        -----------------------------------------
Magnitude (a.u.)       :      0.00025
Magnitude (Debye)      :      0.00064


Timings for individual modules:

Sum of individual times         ...        5.667 sec (=   0.094 min)
GTO integral calculation        ...        0.665 sec (=   0.011 min)  11.7 %
SCF iterations                  ...        5.002 sec (=   0.083 min)  88.3 %
                             ****ORCA TERMINATED NORMALLY****
TOTAL RUN TIME: 0 days 0 hours 0 minutes 6 seconds 224 msec
