
                                 *****************
                                 * O   R   C   A *
                                 *****************

           --- An Ab Initio, DFT and Semiempirical electronic structure package ---

                  #######################################################
                  #                        -***-                        #
                  #  Department of molecular theory and spectroscopy    #
                  #              Directorship: Frank Neese              #
                  # Max Planck Institute for Chemical Energy Conversion #
                  #                  D-45470 Muelheim/Ruhr              #
                  #                       Germany                       #
                  #                                                     #
                  #                  All rights reserved                #
                  #                        -***-                        #
                  #######################################################


                         Program Version 4.0.0.2 - RELEASE -


 With contributions from (in alphabetic order):
   Daniel Aravena         : Magnetic Properties
   Michael Atanasov       : Ab Initio Ligand Field Theory
   Ute Becker             : Parallelization
   Martin Brehm           : Molecular dynamics
   Dmytro Bykov           : SCF Hessian
   Vijay G. Chilkuri      : MRCI spin determinant printing
   Dipayan Datta          : RHF DLPNO-CCSD density
   Achintya Kumar Dutta   : EOM-CC, STEOM-CC
   Dmitry Ganyushin       : Spin-Orbit,Spin-Spin,Magnetic field MRCI
   Yang Guo               : DLPNO-NEVPT2, CIM, IAO-localization
   Andreas Hansen         : Spin unrestricted coupled pair/coupled cluster methods
   Lee Huntington         : MR-EOM, pCC
   Robert Izsak           : Overlap fitted RIJCOSX, COSX-SCS-MP3, EOM
   Christian Kollmar      : KDIIS, OOCD, Brueckner-CCSD(T), CCSD density
   Simone Kossmann        : Meta GGA functionals, TD-DFT gradient, OOMP2, MP2 Hessian
   Martin Krupicka        : AUTO-CI
   Dagmar Lenk            : GEPOL surface
   Dimitrios Liakos       : Extrapolation schemes; parallel MDCI
   Dimitrios Manganas     : ROCIS; embedding schemes
   Dimitrios Pantazis     : SARC Basis sets
   Taras Petrenko         : DFT Hessian,TD-DFT gradient, ASA, ECA, R-Raman, ABS, FL, XAS/XES, NRVS
   Peter Pinski           : DLPNO-MP2
   Christoph Reimann      : Effective Core Potentials
   Marius Retegan         : Local ZFS, SOC
   Christoph Riplinger    : Optimizer, TS searches, QM/MM, DLPNO-CCSD(T), (RO)-DLPNO pert. Triples
   Tobias Risthaus        : Range-separated hybrids, TD-DFT gradient, RPA, STAB
   Michael Roemelt        : Restricted open shell CIS
   Masaaki Saitow         : Open-shell DLPNO
   Barbara Sandhoefer     : DKH picture change effects
   Kantharuban Sivalingam : CASSCF convergence, NEVPT2, FIC-MRCI
   Georgi Stoychev        : AutoAux
   Boris Wezisla          : Elementary symmetry handling
   Frank Wennmohs         : Technical directorship


 We gratefully acknowledge several colleagues who have allowed us to
 interface, adapt or use parts of their codes:
   Stefan Grimme, W. Hujo, H. Kruse,             : VdW corrections, initial TS optimization,
                  C. Bannwarth                     DFT functionals, gCP, sTDA/sTD-DF
   Ed Valeev                                     : LibInt (2-el integral package), F12 methods
   Garnet Chan, S. Sharma, J. Yang, R. Olivares  : DMRG
   Ulf Ekstrom                                   : XCFun DFT Library
   Mihaly Kallay                                 : mrcc  (arbitrary order and MRCC methods)
   Jiri Pittner, Ondrej Demel                    : Mk-CCSD
   Frank Weinhold                                : gennbo (NPA and NBO analysis)
   Christopher J. Cramer and Donald G. Truhlar   : smd solvation model


 Your calculation uses the libint2 library for the computation of 2-el integrals
 For citations please refer to: http://libint.valeyev.net

 This ORCA versions uses:
   CBLAS   interface :  Fast vector & matrix operations
   LAPACKE interface :  Fast linear algebra routines
   SCALAPACK package :  Parallel linear algebra routines


Your calculation utilizes the atom-pairwise dispersion correction
with the zero-damping scheme (D30)
Cite in your paper:
S.Grimme, J.Antony, S.Ehrlich and H.Krieg, J.Chem.Phys., 132, (2010), 154104 
   

XCFun DFT library Copyright 2009-2010 Ulf Ekstrom and contributors.
See http://admol.org/xcfun for more information. This is free soft-
ware; see the source code for copying conditions. There is ABSOLUTELY
NO WARRANTY; not even for MERCHANTABILITY or FITNESS FOR A PARTICULAR
PURPOSE. For details see the documentation. Scientific users of this 
library should cite U. Ekstrom, L. Visscher, R. Bast, A. J. Thorvald-
sen and K. Ruud; J.Chem.Theor.Comp. 2010, DOI: 10.1021/ct100117s
XCFun Version 0.99 
Your calculation utilizes the basis: 6-31G(d)
   H-He, Li-Ne : W. J. Hehre, R. Ditchfield and J.A. Pople, J. Chem. Phys. 56, 2257 (1972).
                 Note: He and Ne are unpublished basis sets taken from the Gaussian program.
                 Note: Li and B from J. D. Dill and J. A. Pople, J. Chem. Phys. 62, 2921 (1975).
   Na - Ar     : M. M. Francl, W. J. Pietro, W. J. Hehre, J. S. Binkley, M. S. Gordon, 
                 D. J. DeFrees and J. A. Pople, J. Chem. Phys. 77, 3654 (1982).
   K - Zn      : V. A. Rassolov, J. A. Pople, M. A. Ratner, and T. L. Windus, J. Chem. Phys. 109, 1223 (1998).

================================================================================
                                        WARNINGS
                       Please study these warnings very carefully!
================================================================================

Warning: TCutStore was < 0. Adjusted to Thresh (uncritical)

INFO   : the flag for use of LIBINT has been found!

================================================================================
                                       INPUT FILE
================================================================================
NAME = initial34.inp
|  1> ! WB97X-D3 6-31G(d) VerySlowConv
|  2> ! KDIIS NOSOSCF
|  3> %base "Scan_34"
|  4> 
|  5> %scf
|  6> maxiter 999
|  7> end
|  8> 
|  9> * xyz 0 1
| 10> C         -4.199150447996    2.588556982823   -0.000000216464
| 11> C         -0.325364170427    2.668684206337   -0.000000038367
| 12> H         -3.917647947288    3.664229733511    0.000000065635
| 13> H         -0.606857434290    1.593009077329    0.000000189196
| 14> **                         ****END OF INPUT****
================================================================================

                       ****************************
                       * Single Point Calculation *
                       ****************************

---------------------------------
CARTESIAN COORDINATES (ANGSTROEM)
---------------------------------
  C     -4.199150    2.588557   -0.000000
  C     -0.325364    2.668684   -0.000000
  H     -3.917648    3.664230    0.000000
  H     -0.606857    1.593009    0.000000

----------------------------
CARTESIAN COORDINATES (A.U.)
----------------------------
  NO LB      ZA    FRAG     MASS         X           Y           Z
   0 C     6.0000    0    12.011   -7.935244    4.891664   -0.000000
   1 C     6.0000    0    12.011   -0.614849    5.043082   -0.000000
   2 H     1.0000    0     1.008   -7.403282    6.924391    0.000000
   3 H     1.0000    0     1.008   -1.146794    3.010351    0.000000

--------------------------------
INTERNAL COORDINATES (ANGSTROEM)
--------------------------------
 C      0   0   0     0.000000000000     0.00000000     0.00000000
 C      1   0   0     3.874614883602     0.00000000     0.00000000
 H      1   2   0     1.111897263455    74.14967510     0.00000000
 H      2   1   3     1.111897225811    74.15016659   179.99997269

---------------------------
INTERNAL COORDINATES (A.U.)
---------------------------
 C      0   0   0     0.000000000000     0.00000000     0.00000000
 C      1   0   0     7.321961004423     0.00000000     0.00000000
 H      1   2   0     2.101181316986    74.14967510     0.00000000
 H      2   1   3     2.101181245850    74.15016659   179.99997269

---------------------
BASIS SET INFORMATION
---------------------
There are 2 groups of distinct atoms

 Group   1 Type C   : 10s4p1d contracted to 3s2p1d pattern {631/31/1}
 Group   2 Type H   : 4s contracted to 2s pattern {31}

Atom   0C    basis set group =>   1
Atom   1C    basis set group =>   1
Atom   2H    basis set group =>   2
Atom   3H    basis set group =>   2
------------------------------------------------------------------------------
                           ORCA GTO INTEGRAL CALCULATION
------------------------------------------------------------------------------

                         BASIS SET STATISTICS AND STARTUP INFO

 # of primitive gaussian shells          ...   38
 # of primitive gaussian functions       ...   62
 # of contracted shells                  ...   16
 # of contracted basis functions         ...   32
 Highest angular momentum                ...    2
 Maximum contraction depth               ...    6
 Integral package used                   ... LIBINT
 Integral threshhold            Thresh   ...  1.000e-10
 Primitive cut-off              TCut     ...  1.000e-11


------------------------------ INTEGRAL EVALUATION ----------------------------


 * One electron integrals 
 Pre-screening matrix                    ... done
 Shell pair data                         ... done (   0.000 sec)

-------------------------------------------------------------------------------
                                 ORCA SCF
-------------------------------------------------------------------------------

------------
SCF SETTINGS
------------
Hamiltonian:
 Density Functional     Method          .... DFT(GTOs)
 Exchange Functional    Exchange        .... WB97X-D3
 Correlation Functional Correlation     .... WB97X-D3
 Gradients option       PostSCFGGA      .... off
 Hybrid DFT is turned on
   Fraction HF Exchange ScalHFX         ....  0.195728
   Scaling of DF-GGA-X  ScalDFX         ....  0.000000
   Scaling of DF-GGA-C  ScalDFC         ....  1.000000
   Scaling of DF-LDA-C  ScalLDAC        ....  1.000000
   Perturbative correction              ....  0.000000
 Long-range corrected/Screened/Range-Separated Hybrid DFT is turned on
   Amount of maximum screened exact exchange              ....  0.804272
   Range separation parameter mu (erf(mu*r12)/r12)        ....  0.250000


General Settings:
 Integral files         IntName         .... Scan_34
 Hartree-Fock type      HFTyp           .... RHF
 Total Charge           Charge          ....    0
 Multiplicity           Mult            ....    1
 Number of Electrons    NEL             ....   14
 Basis Dimension        Dim             ....   32
 Nuclear Repulsion      ENuc            ....     12.4667946468 Eh

Convergence Acceleration:
 DIIS                   CNVDIIS         .... on
   Start iteration      DIISMaxIt       ....     0
   Startup error        DIISStart       ....  0.200000
   # of expansion vecs  DIISMaxEq       ....     5
   Bias factor          DIISBfac        ....   1.050
   Max. coefficient     DIISMaxC        ....  10.000
 Newton-Raphson         CNVNR           .... off
 SOSCF                  CNVSOSCF        .... off
 Level Shifting         CNVShift        .... off
 Zerner damping         CNVZerner       .... off
 Static damping         CNVDamp         .... off
 Fernandez-Rico         CNVRico         .... off

SCF Procedure:
 Maximum # iterations   MaxIter         ....   999
 SCF integral mode      SCFMode         .... Direct
   Integral package                     .... LIBINT
 Reset frequeny         DirectResetFreq ....    20
 Integral Threshold     Thresh          ....  1.000e-10 Eh
 Primitive CutOff       TCut            ....  1.000e-11 Eh

Convergence Tolerance:
 Convergence Check Mode ConvCheckMode   .... All-Criteria
 Convergence forced     ConvForced      .... 0
 Energy Change          TolE            ....  1.000e-06 Eh
 Max Density Change     TolMaxP         ....  1.000e-05
 RMS Density Change     TolRMSP         ....  1.000e-06
 DIIS Error             TolErr          ....  1.000e-06


Diagonalization of the overlap matrix:
Smallest eigenvalue                        ... 4.820e-02
Time for diagonalization                   ...    0.001 sec
Threshold for overlap eigenvalues          ... 1.000e-08
Number of eigenvalues below threshold      ... 0
Time for construction of square roots      ...    0.006 sec
Total time needed                          ...    0.006 sec

-------------------
DFT GRID GENERATION
-------------------

General Integration Accuracy     IntAcc      ...  4.340
Radial Grid Type                 RadialGrid  ... Gauss-Chebyshev
Angular Grid (max. acc.)         AngularGrid ... Lebedev-110
Angular grid pruning method      GridPruning ... 3 (G Style)
Weight generation scheme         WeightScheme... Becke
Basis function cutoff            BFCut       ...    1.0000e-10
Integration weight cutoff        WCut        ...    1.0000e-14
Grids for H and He will be reduced by one unit

# of grid points (after initial pruning)     ...   4900 (   0.0 sec)
# of grid points (after weights+screening)   ...   4882 (   0.0 sec)
nearest neighbour list constructed           ...    0.0 sec
Grid point re-assignment to atoms done       ...    0.0 sec
Grid point division into batches done        ...    0.0 sec
Reduced shell lists constructed in    0.0 sec

Total number of grid points                  ...     4882
Total number of batches                      ...       78
Average number of points per batch           ...       62
Average number of grid points per atom       ...     1220
Average number of shells per batch           ...    12.13 (75.79%)
Average number of basis functions per batch  ...    24.10 (75.32%)
Average number of large shells per batch     ...    10.44 (86.12%)
Average number of large basis fcns per batch ...    20.52 (85.14%)
Maximum spatial batch extension              ...  20.63, 18.49, 25.60 au
Average spatial batch extension              ...   6.57,  5.69,  6.84 au

Time for grid setup =    0.032 sec

------------------------------
INITIAL GUESS: MODEL POTENTIAL
------------------------------
Loading Hartree-Fock densities                     ... done
Calculating cut-offs                               ... done
Setting up the integral package                    ... done
Initializing the effective Hamiltonian             ... done
Starting the Coulomb interaction                   ... done (   0.0 sec)
Reading the grid                                   ... done
Mapping shells                                     ... done
Starting the XC term evaluation                    ... done (   0.0 sec)
  promolecular density results
     # of electrons  =     13.998771947
     EX              =    -10.514120086
     EC              =     -0.379806427
     EX+EC           =    -10.893926512
Transforming the Hamiltonian                       ... done (   0.0 sec)
Diagonalizing the Hamiltonian                      ... done (   0.0 sec)
Back transforming the eigenvectors                 ... done (   0.0 sec)
Now organizing SCF variables                       ... done
                      ------------------
                      INITIAL GUESS DONE (   0.1 sec)
                      ------------------
--------------
SCF ITERATIONS
--------------
ITER       Energy         Delta-E        Max-DP      RMS-DP      [F,P]   Gradient Norm
               ***  Starting incremental Fock matrix formation  ***
                             ****Resetting KDIIS****
                             ****Turning on KDIIS(Cayley)****
  0    -76.8242878969   0.000000000000 0.00611973  0.00051480  0.0291932   0.025472825
  1    -76.8253339339  -0.001046037045 0.00788400  0.00084096  0.0262563   0.022932243
  2    -76.8268812134  -0.001547279542 0.01401074  0.00148841  0.0215291   0.018464856
  3    -76.8287791770  -0.001897963597 0.02116974  0.00227623  0.0129816   0.011090690
  4    -76.8298587637  -0.001079586681 0.00014523  0.00002239  0.0000731   0.000052536
                          ***Energy convergence achieved***
  5    -76.8298588695  -0.000000105803 0.00006247  0.00000690  0.0000263   0.000015733

            ***Energy convergence in two consecutive cycles with***
                    ***'reasonable' density convergence***
                       *** signaling convergence ***

                    *** KDIIS BlockDiag ( 0.000 sec) ***

               *****************************************************
               *                     SUCCESS                       *
               *           SCF CONVERGED AFTER   6 CYCLES          *
               *****************************************************

Setting up the final grid:

General Integration Accuracy     IntAcc      ...  4.670
Radial Grid Type                 RadialGrid  ... Gauss-Chebyshev
Angular Grid (max. acc.)         AngularGrid ... Lebedev-302
Angular grid pruning method      GridPruning ... 3 (G Style)
Weight generation scheme         WeightScheme... Becke
Basis function cutoff            BFCut       ...    1.0000e-10
Integration weight cutoff        WCut        ...    1.0000e-14
Grids for H and He will be reduced by one unit

# of grid points (after initial pruning)     ...  19212 (   0.0 sec)
# of grid points (after weights+screening)   ...  19074 (   0.0 sec)
nearest neighbour list constructed           ...    0.0 sec
Grid point re-assignment to atoms done       ...    0.0 sec
Grid point division into batches done        ...    0.1 sec
Reduced shell lists constructed in    0.1 sec

Total number of grid points                  ...    19074
Total number of batches                      ...      300
Average number of points per batch           ...       63
Average number of grid points per atom       ...     4768
Average number of shells per batch           ...    10.64 (66.51%)
Average number of basis functions per batch  ...    20.91 (65.33%)
Average number of large shells per batch     ...     9.02 (84.76%)
Average number of large basis fcns per batch ...    17.67 (84.52%)
Maximum spatial batch extension              ...  20.20, 21.85, 25.89 au
Average spatial batch extension              ...   3.71,  3.71,  4.27 au

Final grid set up in    0.2 sec
Final integration                            ... done (   0.2 sec)
Change in XC energy                          ...     0.000078247
Integrated number of electrons               ...    14.000002655
Previous integrated no of electrons          ...    14.001734325

----------------
TOTAL SCF ENERGY
----------------

Total Energy       :          -76.82978063 Eh           -2090.64462 eV

Components:
Nuclear Repulsion  :           12.46679465 Eh             339.23873 eV
Electronic Energy  :          -89.29657528 Eh           -2429.88335 eV
One Electron Energy:         -126.77298928 Eh           -3449.66842 eV
Two Electron Energy:           37.47641400 Eh            1019.78507 eV

Virial components:
Potential Energy   :         -153.24210071 Eh           -4169.92956 eV
Kinetic Energy     :           76.41232008 Eh            2079.28494 eV
Virial Ratio       :            2.00546326


DFT components:
N(Alpha)           :        7.000001327391 electrons
N(Beta)            :        7.000001327391 electrons
N(Total)           :       14.000002654781 electrons
E(XC)              :       -7.584253790005 Eh       

---------------
SCF CONVERGENCE
---------------

  Last Energy change         ...   -6.5366e-09  Tolerance :   1.0000e-06
  Last MAX-Density change    ...    4.8073e-05  Tolerance :   1.0000e-05
  Last RMS-Density change    ...    3.0137e-06  Tolerance :   1.0000e-06
  Last DIIS Error            ...    3.0103e-05  Tolerance :   1.0000e-06

             **** THE GBW FILE WAS UPDATED (Scan_34.gbw) ****
             **** DENSITY FILE WAS UPDATED (Scan_34.scfp.tmp) ****
             **** ENERGY FILE WAS UPDATED (Scan_34.en.tmp) ****
----------------
ORBITAL ENERGIES
----------------

  NO   OCC          E(Eh)            E(eV) 
   0   2.0000     -10.403228      -283.0862 
   1   2.0000     -10.403096      -283.0826 
   2   2.0000      -0.745974       -20.2990 
   3   2.0000      -0.740500       -20.1500 
   4   2.0000      -0.408664       -11.1203 
   5   2.0000      -0.405916       -11.0455 
   6   2.0000      -0.247762        -6.7419 
   7   0.0000      -0.085795        -2.3346 
   8   0.0000      -0.036534        -0.9941 
   9   0.0000      -0.032689        -0.8895 
  10   0.0000       0.220100         5.9892 
  11   0.0000       0.226784         6.1711 
  12   0.0000       0.581411        15.8210 
  13   0.0000       0.641469        17.4553 
  14   0.0000       0.650828        17.7099 
  15   0.0000       0.663336        18.0503 
  16   0.0000       0.664239        18.0749 
  17   0.0000       0.690983        18.8026 
  18   0.0000       0.731215        19.8974 
  19   0.0000       0.815930        22.2026 
  20   0.0000       0.971917        26.4472 
  21   0.0000       0.977976        26.6121 
  22   0.0000       1.748939        47.5910 
  23   0.0000       1.749015        47.5931 
  24   0.0000       1.762174        47.9512 
  25   0.0000       1.762861        47.9699 
  26   0.0000       1.773712        48.2652 
  27   0.0000       1.774566        48.2884 
  28   0.0000       1.778188        48.3869 
  29   0.0000       1.779625        48.4260 
  30   0.0000       2.196505        59.7700 
  31   0.0000       2.208472        60.0956 

                    ********************************
                    * MULLIKEN POPULATION ANALYSIS *
                    ********************************

-----------------------
MULLIKEN ATOMIC CHARGES
-----------------------
   0 C :   -0.161862
   1 C :   -0.161673
   2 H :    0.161781
   3 H :    0.161754
Sum of atomic charges:    0.0000000

--------------------------------
MULLIKEN REDUCED ORBITAL CHARGES
--------------------------------
  0 C s       :     3.925241  s :     3.925241
      pz      :     0.000000  p :     2.221822
      px      :     1.013318
      py      :     1.208504
      dz2     :     0.003645  d :     0.014798
      dxz     :     0.000000
      dyz     :     0.000000
      dx2y2   :     0.008217
      dxy     :     0.002936
  1 C s       :     3.925239  s :     3.925239
      pz      :     0.000000  p :     2.221635
      px      :     1.013166
      py      :     1.208470
      dz2     :     0.003645  d :     0.014798
      dxz     :     0.000000
      dyz     :     0.000000
      dx2y2   :     0.008217
      dxy     :     0.002936
  2 H s       :     0.838219  s :     0.838219
  3 H s       :     0.838246  s :     0.838246


                     *******************************
                     * LOEWDIN POPULATION ANALYSIS *
                     *******************************

----------------------
LOEWDIN ATOMIC CHARGES
----------------------
   0 C :   -0.112797
   1 C :   -0.112616
   2 H :    0.112716
   3 H :    0.112697

-------------------------------
LOEWDIN REDUCED ORBITAL CHARGES
-------------------------------
  0 C s       :     3.758177  s :     3.758177
      pz      :     0.000000  p :     2.334549
      px      :     1.021197
      py      :     1.313352
      dz2     :     0.004988  d :     0.020071
      dxz     :     0.000000
      dyz     :     0.000000
      dx2y2   :     0.011206
      dxy     :     0.003876
  1 C s       :     3.758175  s :     3.758175
      pz      :     0.000000  p :     2.334370
      px      :     1.021044
      py      :     1.313326
      dz2     :     0.004988  d :     0.020071
      dxz     :     0.000000
      dyz     :     0.000000
      dx2y2   :     0.011207
      dxy     :     0.003876
  2 H s       :     0.887284  s :     0.887284
  3 H s       :     0.887303  s :     0.887303


                      *****************************
                      * MAYER POPULATION ANALYSIS *
                      *****************************

  NA   - Mulliken gross atomic population
  ZA   - Total nuclear charge
  QA   - Mulliken gross atomic charge
  VA   - Mayer's total valence
  BVA  - Mayer's bonded valence
  FA   - Mayer's free valence

  ATOM       NA         ZA         QA         VA         BVA        FA
  0 C      6.1619     6.0000    -0.1619     1.9042     1.9042     0.0000
  1 C      6.1617     6.0000    -0.1617     1.9042     1.9042    -0.0000
  2 H      0.8382     1.0000     0.1618     0.9062     0.9062     0.0000
  3 H      0.8382     1.0000     0.1618     0.9062     0.9062    -0.0000

  Mayer bond orders larger than 0.1
B(  0-C ,  1-C ) :   0.9981 B(  0-C ,  2-H ) :   0.9048 B(  1-C ,  3-H ) :   0.9048 


-------
TIMINGS
-------

Total SCF time: 0 days 0 hours 0 min 2 sec 

Total time                  ....       2.531 sec
Sum of individual times     ....       2.413 sec  ( 95.3%)

Fock matrix formation       ....       2.079 sec  ( 82.1%)
  XC integration            ....       0.525 sec  ( 25.3% of F)
    Basis function eval.    ....       0.154 sec  ( 29.3% of XC)
    Density eval.           ....       0.025 sec  (  4.7% of XC)
    XC-Functional eval.     ....       0.158 sec  ( 30.0% of XC)
    XC-Potential eval.      ....       0.017 sec  (  3.2% of XC)
Diagonalization             ....       0.013 sec  (  0.5%)
Density matrix formation    ....       0.000 sec  (  0.0%)
Population analysis         ....       0.014 sec  (  0.6%)
Initial guess               ....       0.119 sec  (  4.7%)
Orbital Transformation      ....       0.000 sec  (  0.0%)
Orbital Orthonormalization  ....       0.000 sec  (  0.0%)
DIIS solution               ....       0.000 sec  (  0.0%)
Grid generation             ....       0.187 sec  (  7.4%)


-------------------------------------------------------------------------------
                          DFT DISPERSION CORRECTION                            
                                                                               
                              DFTD3 V3.1  Rev 1                                
                              USING zero damping                               
-------------------------------------------------------------------------------
The omegaB97X-D3 functional is recognized. Fit by Chai et al.
Active option DFTDOPT                   ...         3   

molecular C6(AA) [au] = 276.843523 


            DFT-D V3
 parameters
 s6 scaling factor         :     1.0000 
 rs6 scaling factor        :     1.2810 
 s8 scaling factor         :     1.0000 
 rs8 scaling factor        :     1.0940 
 Damping factor alpha6     :    14.0000 
 Damping factor alpha8     :    16.0000 
 ad hoc parameters k1-k3   :    16.0000     1.3333    -4.0000 

 Edisp/kcal,au: -0.248498786454  -0.000396007981 
 E6   /kcal   :  -0.127330230 
 E8   /kcal   :  -0.121168557 
 % E8         :  48.760220645 

-------------------------   ----------------
Dispersion correction           -0.000396008
-------------------------   ----------------


-------------------------   --------------------
FINAL SINGLE POINT ENERGY       -76.830176636721
-------------------------   --------------------


                            ***************************************
                            *     ORCA property calculations      *
                            ***************************************

                                    ---------------------
                                    Active property flags
                                    ---------------------
   (+) Dipole Moment


------------------------------------------------------------------------------
                       ORCA ELECTRIC PROPERTIES CALCULATION
------------------------------------------------------------------------------

Dipole Moment Calculation                       ... on
Quadrupole Moment Calculation                   ... off
Polarizability Calculation                      ... off
GBWName                                         ... Scan_34.gbw
Electron density file                           ... Scan_34.scfp.tmp

-------------
DIPOLE MOMENT
-------------
                                X             Y             Z
Electronic contribution:      0.00059       0.00005      -0.00000
Nuclear contribution   :      0.00001      -0.00000       0.00000
                        -----------------------------------------
Total Dipole Moment    :      0.00060       0.00005       0.00000
                        -----------------------------------------
Magnitude (a.u.)       :      0.00060
Magnitude (Debye)      :      0.00154


Timings for individual modules:

Sum of individual times         ...        2.860 sec (=   0.048 min)
GTO integral calculation        ...        0.305 sec (=   0.005 min)  10.7 %
SCF iterations                  ...        2.555 sec (=   0.043 min)  89.3 %
                             ****ORCA TERMINATED NORMALLY****
TOTAL RUN TIME: 0 days 0 hours 0 minutes 3 seconds 180 msec
