
                                 *****************
                                 * O   R   C   A *
                                 *****************

           --- An Ab Initio, DFT and Semiempirical electronic structure package ---

                  #######################################################
                  #                        -***-                        #
                  #  Department of molecular theory and spectroscopy    #
                  #              Directorship: Frank Neese              #
                  # Max Planck Institute for Chemical Energy Conversion #
                  #                  D-45470 Muelheim/Ruhr              #
                  #                       Germany                       #
                  #                                                     #
                  #                  All rights reserved                #
                  #                        -***-                        #
                  #######################################################


                         Program Version 4.0.0.2 - RELEASE -


 With contributions from (in alphabetic order):
   Daniel Aravena         : Magnetic Properties
   Michael Atanasov       : Ab Initio Ligand Field Theory
   Ute Becker             : Parallelization
   Martin Brehm           : Molecular dynamics
   Dmytro Bykov           : SCF Hessian
   Vijay G. Chilkuri      : MRCI spin determinant printing
   Dipayan Datta          : RHF DLPNO-CCSD density
   Achintya Kumar Dutta   : EOM-CC, STEOM-CC
   Dmitry Ganyushin       : Spin-Orbit,Spin-Spin,Magnetic field MRCI
   Yang Guo               : DLPNO-NEVPT2, CIM, IAO-localization
   Andreas Hansen         : Spin unrestricted coupled pair/coupled cluster methods
   Lee Huntington         : MR-EOM, pCC
   Robert Izsak           : Overlap fitted RIJCOSX, COSX-SCS-MP3, EOM
   Christian Kollmar      : KDIIS, OOCD, Brueckner-CCSD(T), CCSD density
   Simone Kossmann        : Meta GGA functionals, TD-DFT gradient, OOMP2, MP2 Hessian
   Martin Krupicka        : AUTO-CI
   Dagmar Lenk            : GEPOL surface
   Dimitrios Liakos       : Extrapolation schemes; parallel MDCI
   Dimitrios Manganas     : ROCIS; embedding schemes
   Dimitrios Pantazis     : SARC Basis sets
   Taras Petrenko         : DFT Hessian,TD-DFT gradient, ASA, ECA, R-Raman, ABS, FL, XAS/XES, NRVS
   Peter Pinski           : DLPNO-MP2
   Christoph Reimann      : Effective Core Potentials
   Marius Retegan         : Local ZFS, SOC
   Christoph Riplinger    : Optimizer, TS searches, QM/MM, DLPNO-CCSD(T), (RO)-DLPNO pert. Triples
   Tobias Risthaus        : Range-separated hybrids, TD-DFT gradient, RPA, STAB
   Michael Roemelt        : Restricted open shell CIS
   Masaaki Saitow         : Open-shell DLPNO
   Barbara Sandhoefer     : DKH picture change effects
   Kantharuban Sivalingam : CASSCF convergence, NEVPT2, FIC-MRCI
   Georgi Stoychev        : AutoAux
   Boris Wezisla          : Elementary symmetry handling
   Frank Wennmohs         : Technical directorship


 We gratefully acknowledge several colleagues who have allowed us to
 interface, adapt or use parts of their codes:
   Stefan Grimme, W. Hujo, H. Kruse,             : VdW corrections, initial TS optimization,
                  C. Bannwarth                     DFT functionals, gCP, sTDA/sTD-DF
   Ed Valeev                                     : LibInt (2-el integral package), F12 methods
   Garnet Chan, S. Sharma, J. Yang, R. Olivares  : DMRG
   Ulf Ekstrom                                   : XCFun DFT Library
   Mihaly Kallay                                 : mrcc  (arbitrary order and MRCC methods)
   Jiri Pittner, Ondrej Demel                    : Mk-CCSD
   Frank Weinhold                                : gennbo (NPA and NBO analysis)
   Christopher J. Cramer and Donald G. Truhlar   : smd solvation model


 Your calculation uses the libint2 library for the computation of 2-el integrals
 For citations please refer to: http://libint.valeyev.net

 This ORCA versions uses:
   CBLAS   interface :  Fast vector & matrix operations
   LAPACKE interface :  Fast linear algebra routines
   SCALAPACK package :  Parallel linear algebra routines


Your calculation utilizes the atom-pairwise dispersion correction
with the zero-damping scheme (D30)
Cite in your paper:
S.Grimme, J.Antony, S.Ehrlich and H.Krieg, J.Chem.Phys., 132, (2010), 154104 
   

XCFun DFT library Copyright 2009-2010 Ulf Ekstrom and contributors.
See http://admol.org/xcfun for more information. This is free soft-
ware; see the source code for copying conditions. There is ABSOLUTELY
NO WARRANTY; not even for MERCHANTABILITY or FITNESS FOR A PARTICULAR
PURPOSE. For details see the documentation. Scientific users of this 
library should cite U. Ekstrom, L. Visscher, R. Bast, A. J. Thorvald-
sen and K. Ruud; J.Chem.Theor.Comp. 2010, DOI: 10.1021/ct100117s
XCFun Version 0.99 
Your calculation utilizes the basis: 6-31G(d)
   H-He, Li-Ne : W. J. Hehre, R. Ditchfield and J.A. Pople, J. Chem. Phys. 56, 2257 (1972).
                 Note: He and Ne are unpublished basis sets taken from the Gaussian program.
                 Note: Li and B from J. D. Dill and J. A. Pople, J. Chem. Phys. 62, 2921 (1975).
   Na - Ar     : M. M. Francl, W. J. Pietro, W. J. Hehre, J. S. Binkley, M. S. Gordon, 
                 D. J. DeFrees and J. A. Pople, J. Chem. Phys. 77, 3654 (1982).
   K - Zn      : V. A. Rassolov, J. A. Pople, M. A. Ratner, and T. L. Windus, J. Chem. Phys. 109, 1223 (1998).

================================================================================
                                        WARNINGS
                       Please study these warnings very carefully!
================================================================================

Warning: TCutStore was < 0. Adjusted to Thresh (uncritical)

INFO   : the flag for use of LIBINT has been found!

================================================================================
                                       INPUT FILE
================================================================================
NAME = initial36.inp
|  1> ! WB97X-D3 6-31G(d) VerySlowConv
|  2> ! KDIIS NOSOSCF
|  3> %base "Scan_36"
|  4> 
|  5> %scf
|  6> maxiter 999
|  7> end
|  8> 
|  9> * xyz 0 1
| 10> C         -4.301881962389    2.606859182744   -0.000000167726
| 11> C         -0.222628099269    2.650380848223    0.000000019271
| 12> H         -3.953623355435    3.662799987176    0.000000010784
| 13> H         -0.570886582907    1.594439981857    0.000000137671
| 14> **                         ****END OF INPUT****
================================================================================

                       ****************************
                       * Single Point Calculation *
                       ****************************

---------------------------------
CARTESIAN COORDINATES (ANGSTROEM)
---------------------------------
  C     -4.301882    2.606859   -0.000000
  C     -0.222628    2.650381    0.000000
  H     -3.953623    3.662800    0.000000
  H     -0.570887    1.594440    0.000000

----------------------------
CARTESIAN COORDINATES (A.U.)
----------------------------
  NO LB      ZA    FRAG     MASS         X           Y           Z
   0 C     6.0000    0    12.011   -8.129379    4.926250   -0.000000
   1 C     6.0000    0    12.011   -0.420706    5.008494    0.000000
   2 H     1.0000    0     1.008   -7.471265    6.921689    0.000000
   3 H     1.0000    0     1.008   -1.078819    3.013055    0.000000

--------------------------------
INTERNAL COORDINATES (ANGSTROEM)
--------------------------------
 C      0   0   0     0.000000000000     0.00000000     0.00000000
 C      1   0   0     4.079486023404     0.00000000     0.00000000
 H      1   2   0     1.111888051821    71.13572094     0.00000000
 H      2   1   3     1.111888072014    71.13572797   179.99998382

---------------------------
INTERNAL COORDINATES (A.U.)
---------------------------
 C      0   0   0     0.000000000000     0.00000000     0.00000000
 C      1   0   0     7.709111351392     0.00000000     0.00000000
 H      1   2   0     2.101163909521    71.13572094     0.00000000
 H      2   1   3     2.101163947681    71.13572797   179.99998382

---------------------
BASIS SET INFORMATION
---------------------
There are 2 groups of distinct atoms

 Group   1 Type C   : 10s4p1d contracted to 3s2p1d pattern {631/31/1}
 Group   2 Type H   : 4s contracted to 2s pattern {31}

Atom   0C    basis set group =>   1
Atom   1C    basis set group =>   1
Atom   2H    basis set group =>   2
Atom   3H    basis set group =>   2
------------------------------------------------------------------------------
                           ORCA GTO INTEGRAL CALCULATION
------------------------------------------------------------------------------

                         BASIS SET STATISTICS AND STARTUP INFO

 # of primitive gaussian shells          ...   38
 # of primitive gaussian functions       ...   62
 # of contracted shells                  ...   16
 # of contracted basis functions         ...   32
 Highest angular momentum                ...    2
 Maximum contraction depth               ...    6
 Integral package used                   ... LIBINT
 Integral threshhold            Thresh   ...  1.000e-10
 Primitive cut-off              TCut     ...  1.000e-11


------------------------------ INTEGRAL EVALUATION ----------------------------


 * One electron integrals 
 Pre-screening matrix                    ... done
 Shell pair data                         ... done (   0.000 sec)

-------------------------------------------------------------------------------
                                 ORCA SCF
-------------------------------------------------------------------------------

------------
SCF SETTINGS
------------
Hamiltonian:
 Density Functional     Method          .... DFT(GTOs)
 Exchange Functional    Exchange        .... WB97X-D3
 Correlation Functional Correlation     .... WB97X-D3
 Gradients option       PostSCFGGA      .... off
 Hybrid DFT is turned on
   Fraction HF Exchange ScalHFX         ....  0.195728
   Scaling of DF-GGA-X  ScalDFX         ....  0.000000
   Scaling of DF-GGA-C  ScalDFC         ....  1.000000
   Scaling of DF-LDA-C  ScalLDAC        ....  1.000000
   Perturbative correction              ....  0.000000
 Long-range corrected/Screened/Range-Separated Hybrid DFT is turned on
   Amount of maximum screened exact exchange              ....  0.804272
   Range separation parameter mu (erf(mu*r12)/r12)        ....  0.250000


General Settings:
 Integral files         IntName         .... Scan_36
 Hartree-Fock type      HFTyp           .... RHF
 Total Charge           Charge          ....    0
 Multiplicity           Mult            ....    1
 Number of Electrons    NEL             ....   14
 Basis Dimension        Dim             ....   32
 Nuclear Repulsion      ENuc            ....     12.1569745328 Eh

Convergence Acceleration:
 DIIS                   CNVDIIS         .... on
   Start iteration      DIISMaxIt       ....     0
   Startup error        DIISStart       ....  0.200000
   # of expansion vecs  DIISMaxEq       ....     5
   Bias factor          DIISBfac        ....   1.050
   Max. coefficient     DIISMaxC        ....  10.000
 Newton-Raphson         CNVNR           .... off
 SOSCF                  CNVSOSCF        .... off
 Level Shifting         CNVShift        .... off
 Zerner damping         CNVZerner       .... off
 Static damping         CNVDamp         .... off
 Fernandez-Rico         CNVRico         .... off

SCF Procedure:
 Maximum # iterations   MaxIter         ....   999
 SCF integral mode      SCFMode         .... Direct
   Integral package                     .... LIBINT
 Reset frequeny         DirectResetFreq ....    20
 Integral Threshold     Thresh          ....  1.000e-10 Eh
 Primitive CutOff       TCut            ....  1.000e-11 Eh

Convergence Tolerance:
 Convergence Check Mode ConvCheckMode   .... All-Criteria
 Convergence forced     ConvForced      .... 0
 Energy Change          TolE            ....  1.000e-06 Eh
 Max Density Change     TolMaxP         ....  1.000e-05
 RMS Density Change     TolRMSP         ....  1.000e-06
 DIIS Error             TolErr          ....  1.000e-06


Diagonalization of the overlap matrix:
Smallest eigenvalue                        ... 4.853e-02
Time for diagonalization                   ...    0.001 sec
Threshold for overlap eigenvalues          ... 1.000e-08
Number of eigenvalues below threshold      ... 0
Time for construction of square roots      ...    0.006 sec
Total time needed                          ...    0.007 sec

-------------------
DFT GRID GENERATION
-------------------

General Integration Accuracy     IntAcc      ...  4.340
Radial Grid Type                 RadialGrid  ... Gauss-Chebyshev
Angular Grid (max. acc.)         AngularGrid ... Lebedev-110
Angular grid pruning method      GridPruning ... 3 (G Style)
Weight generation scheme         WeightScheme... Becke
Basis function cutoff            BFCut       ...    1.0000e-10
Integration weight cutoff        WCut        ...    1.0000e-14
Grids for H and He will be reduced by one unit

# of grid points (after initial pruning)     ...   4900 (   0.0 sec)
# of grid points (after weights+screening)   ...   4882 (   0.0 sec)
nearest neighbour list constructed           ...    0.0 sec
Grid point re-assignment to atoms done       ...    0.0 sec
Grid point division into batches done        ...    0.0 sec
Reduced shell lists constructed in    0.0 sec

Total number of grid points                  ...     4882
Total number of batches                      ...       78
Average number of points per batch           ...       62
Average number of grid points per atom       ...     1220
Average number of shells per batch           ...    11.82 (73.89%)
Average number of basis functions per batch  ...    23.37 (73.02%)
Average number of large shells per batch     ...    10.10 (85.44%)
Average number of large basis fcns per batch ...    19.80 (84.72%)
Maximum spatial batch extension              ...  20.51, 18.49, 25.60 au
Average spatial batch extension              ...   6.30,  5.63,  6.69 au

Time for grid setup =    0.032 sec

------------------------------
INITIAL GUESS: MODEL POTENTIAL
------------------------------
Loading Hartree-Fock densities                     ... done
Calculating cut-offs                               ... done
Setting up the integral package                    ... done
Initializing the effective Hamiltonian             ... done
Starting the Coulomb interaction                   ... done (   0.0 sec)
Reading the grid                                   ... done
Mapping shells                                     ... done
Starting the XC term evaluation                    ... done (   0.0 sec)
  promolecular density results
     # of electrons  =     13.999215142
     EX              =    -10.514212119
     EC              =     -0.379678331
     EX+EC           =    -10.893890451
Transforming the Hamiltonian                       ... done (   0.0 sec)
Diagonalizing the Hamiltonian                      ... done (   0.0 sec)
Back transforming the eigenvectors                 ... done (   0.0 sec)
Now organizing SCF variables                       ... done
                      ------------------
                      INITIAL GUESS DONE (   0.1 sec)
                      ------------------
--------------
SCF ITERATIONS
--------------
ITER       Energy         Delta-E        Max-DP      RMS-DP      [F,P]   Gradient Norm
               ***  Starting incremental Fock matrix formation  ***
                             ****Resetting KDIIS****
                             ****Turning on KDIIS(Cayley)****
  0    -76.8146012948   0.000000000000 0.00642273  0.00052975  0.0290881   0.025619378
  1    -76.8156620802  -0.001060785444 0.00833711  0.00085035  0.0261039   0.023039294
  2    -76.8172015964  -0.001539516147 0.01472076  0.00150174  0.0213878   0.018552287
  3    -76.8190853530  -0.001883756602 0.02231745  0.00229926  0.0129032   0.011145658
  4    -76.8201568644  -0.001071511434 0.00012675  0.00001818  0.0000549   0.000042251
                          ***Energy convergence achieved***
  5    -76.8201569270  -0.000000062608 0.00003932  0.00000557  0.0000218   0.000010251

            ***Energy convergence in two consecutive cycles with***
                    ***'reasonable' density convergence***
                       *** signaling convergence ***

                    *** KDIIS BlockDiag ( 0.000 sec) ***

               *****************************************************
               *                     SUCCESS                       *
               *           SCF CONVERGED AFTER   6 CYCLES          *
               *****************************************************

Setting up the final grid:

General Integration Accuracy     IntAcc      ...  4.670
Radial Grid Type                 RadialGrid  ... Gauss-Chebyshev
Angular Grid (max. acc.)         AngularGrid ... Lebedev-302
Angular grid pruning method      GridPruning ... 3 (G Style)
Weight generation scheme         WeightScheme... Becke
Basis function cutoff            BFCut       ...    1.0000e-10
Integration weight cutoff        WCut        ...    1.0000e-14
Grids for H and He will be reduced by one unit

# of grid points (after initial pruning)     ...  19212 (   0.0 sec)
# of grid points (after weights+screening)   ...  19080 (   0.0 sec)
nearest neighbour list constructed           ...    0.0 sec
Grid point re-assignment to atoms done       ...    0.0 sec
Grid point division into batches done        ...    0.1 sec
Reduced shell lists constructed in    0.1 sec

Total number of grid points                  ...    19080
Total number of batches                      ...      302
Average number of points per batch           ...       63
Average number of grid points per atom       ...     4770
Average number of shells per batch           ...    10.36 (64.73%)
Average number of basis functions per batch  ...    20.36 (63.63%)
Average number of large shells per batch     ...     8.89 (85.85%)
Average number of large basis fcns per batch ...    17.45 (85.71%)
Maximum spatial batch extension              ...  18.25, 25.11, 25.89 au
Average spatial batch extension              ...   3.78,  3.69,  4.22 au

Final grid set up in    0.2 sec
Final integration                            ... done (   0.1 sec)
Change in XC energy                          ...     0.000194538
Integrated number of electrons               ...    14.000003239
Previous integrated no of electrons          ...    14.002520806

----------------
TOTAL SCF ENERGY
----------------

Total Energy       :          -76.81996240 Eh           -2090.37745 eV

Components:
Nuclear Repulsion  :           12.15697453 Eh             330.80809 eV
Electronic Energy  :          -88.97693693 Eh           -2421.18554 eV
One Electron Energy:         -126.15329447 Eh           -3432.80566 eV
Two Electron Energy:           37.17635755 Eh            1011.62012 eV

Virial components:
Potential Energy   :         -153.25343841 Eh           -4170.23807 eV
Kinetic Energy     :           76.43347602 Eh            2079.86062 eV
Virial Ratio       :            2.00505651


DFT components:
N(Alpha)           :        7.000001619418 electrons
N(Beta)            :        7.000001619418 electrons
N(Total)           :       14.000003238836 electrons
E(XC)              :       -7.586658005363 Eh       

---------------
SCF CONVERGENCE
---------------

  Last Energy change         ...   -6.4517e-09  Tolerance :   1.0000e-06
  Last MAX-Density change    ...    1.5547e-05  Tolerance :   1.0000e-05
  Last RMS-Density change    ...    1.1566e-06  Tolerance :   1.0000e-06
  Last DIIS Error            ...    5.4294e-06  Tolerance :   1.0000e-06

             **** THE GBW FILE WAS UPDATED (Scan_36.gbw) ****
             **** DENSITY FILE WAS UPDATED (Scan_36.scfp.tmp) ****
             **** ENERGY FILE WAS UPDATED (Scan_36.en.tmp) ****
----------------
ORBITAL ENERGIES
----------------

  NO   OCC          E(Eh)            E(eV) 
   0   2.0000     -10.401438      -283.0375 
   1   2.0000     -10.401412      -283.0368 
   2   2.0000      -0.745418       -20.2838 
   3   2.0000      -0.741045       -20.1648 
   4   2.0000      -0.408000       -11.1022 
   5   2.0000      -0.405945       -11.0463 
   6   2.0000      -0.241418        -6.5693 
   7   0.0000      -0.092501        -2.5171 
   8   0.0000      -0.035755        -0.9729 
   9   0.0000      -0.033153        -0.9021 
  10   0.0000       0.220746         6.0068 
  11   0.0000       0.225058         6.1241 
  12   0.0000       0.593251        16.1432 
  13   0.0000       0.644950        17.5500 
  14   0.0000       0.653270        17.7764 
  15   0.0000       0.660014        17.9599 
  16   0.0000       0.661180        17.9916 
  17   0.0000       0.687907        18.7189 
  18   0.0000       0.733999        19.9731 
  19   0.0000       0.788621        21.4595 
  20   0.0000       0.968681        26.3592 
  21   0.0000       0.980285        26.6749 
  22   0.0000       1.749368        47.6027 
  23   0.0000       1.749382        47.6031 
  24   0.0000       1.762629        47.9636 
  25   0.0000       1.763165        47.9782 
  26   0.0000       1.773793        48.2674 
  27   0.0000       1.774537        48.2876 
  28   0.0000       1.778562        48.3971 
  29   0.0000       1.779669        48.4273 
  30   0.0000       2.195895        59.7533 
  31   0.0000       2.207795        60.0772 

                    ********************************
                    * MULLIKEN POPULATION ANALYSIS *
                    ********************************

-----------------------
MULLIKEN ATOMIC CHARGES
-----------------------
   0 C :   -0.159791
   1 C :   -0.159757
   2 H :    0.159776
   3 H :    0.159771
Sum of atomic charges:   -0.0000000

--------------------------------
MULLIKEN REDUCED ORBITAL CHARGES
--------------------------------
  0 C s       :     3.926010  s :     3.926010
      pz      :     0.000000  p :     2.218992
      px      :     1.017895
      py      :     1.201098
      dz2     :     0.003648  d :     0.014789
      dxz     :     0.000000
      dyz     :     0.000000
      dx2y2   :     0.007069
      dxy     :     0.004072
  1 C s       :     3.926009  s :     3.926009
      pz      :     0.000000  p :     2.218959
      px      :     1.017868
      py      :     1.201091
      dz2     :     0.003648  d :     0.014789
      dxz     :     0.000000
      dyz     :     0.000000
      dx2y2   :     0.007069
      dxy     :     0.004072
  2 H s       :     0.840224  s :     0.840224
  3 H s       :     0.840229  s :     0.840229


                     *******************************
                     * LOEWDIN POPULATION ANALYSIS *
                     *******************************

----------------------
LOEWDIN ATOMIC CHARGES
----------------------
   0 C :   -0.111344
   1 C :   -0.111311
   2 H :    0.111329
   3 H :    0.111326

-------------------------------
LOEWDIN REDUCED ORBITAL CHARGES
-------------------------------
  0 C s       :     3.758645  s :     3.758645
      pz      :     0.000000  p :     2.332605
      px      :     1.029905
      py      :     1.302701
      dz2     :     0.005000  d :     0.020093
      dxz     :     0.000000
      dyz     :     0.000000
      dx2y2   :     0.009626
      dxy     :     0.005467
  1 C s       :     3.758645  s :     3.758645
      pz      :     0.000000  p :     2.332573
      px      :     1.029878
      py      :     1.302695
      dz2     :     0.005000  d :     0.020093
      dxz     :     0.000000
      dyz     :     0.000000
      dx2y2   :     0.009626
      dxy     :     0.005467
  2 H s       :     0.888671  s :     0.888671
  3 H s       :     0.888674  s :     0.888674


                      *****************************
                      * MAYER POPULATION ANALYSIS *
                      *****************************

  NA   - Mulliken gross atomic population
  ZA   - Total nuclear charge
  QA   - Mulliken gross atomic charge
  VA   - Mayer's total valence
  BVA  - Mayer's bonded valence
  FA   - Mayer's free valence

  ATOM       NA         ZA         QA         VA         BVA        FA
  0 C      6.1598     6.0000    -0.1598     1.9040     1.9040     0.0000
  1 C      6.1598     6.0000    -0.1598     1.9040     1.9040    -0.0000
  2 H      0.8402     1.0000     0.1598     0.9060     0.9060     0.0000
  3 H      0.8402     1.0000     0.1598     0.9060     0.9060    -0.0000

  Mayer bond orders larger than 0.1
B(  0-C ,  1-C ) :   0.9980 B(  0-C ,  2-H ) :   0.9047 B(  1-C ,  3-H ) :   0.9047 


-------
TIMINGS
-------

Total SCF time: 0 days 0 hours 0 min 2 sec 

Total time                  ....       2.481 sec
Sum of individual times     ....       2.360 sec  ( 95.1%)

Fock matrix formation       ....       2.044 sec  ( 82.4%)
  XC integration            ....       0.502 sec  ( 24.6% of F)
    Basis function eval.    ....       0.145 sec  ( 29.0% of XC)
    Density eval.           ....       0.023 sec  (  4.6% of XC)
    XC-Functional eval.     ....       0.154 sec  ( 30.6% of XC)
    XC-Potential eval.      ....       0.016 sec  (  3.1% of XC)
Diagonalization             ....       0.004 sec  (  0.2%)
Density matrix formation    ....       0.000 sec  (  0.0%)
Population analysis         ....       0.012 sec  (  0.5%)
Initial guess               ....       0.117 sec  (  4.7%)
Orbital Transformation      ....       0.000 sec  (  0.0%)
Orbital Orthonormalization  ....       0.000 sec  (  0.0%)
DIIS solution               ....       0.000 sec  (  0.0%)
Grid generation             ....       0.183 sec  (  7.4%)


-------------------------------------------------------------------------------
                          DFT DISPERSION CORRECTION                            
                                                                               
                              DFTD3 V3.1  Rev 1                                
                              USING zero damping                               
-------------------------------------------------------------------------------
The omegaB97X-D3 functional is recognized. Fit by Chai et al.
Active option DFTDOPT                   ...         3   

molecular C6(AA) [au] = 276.845892 


            DFT-D V3
 parameters
 s6 scaling factor         :     1.0000 
 rs6 scaling factor        :     1.2810 
 s8 scaling factor         :     1.0000 
 rs8 scaling factor        :     1.0940 
 Damping factor alpha6     :    14.0000 
 Damping factor alpha8     :    16.0000 
 ad hoc parameters k1-k3   :    16.0000     1.3333    -4.0000 

 Edisp/kcal,au: -0.221549507565  -0.000353061576 
 E6   /kcal   :  -0.130069701 
 E8   /kcal   :  -0.091479807 
 % E8         :  41.290909557 

-------------------------   ----------------
Dispersion correction           -0.000353062
-------------------------   ----------------


-------------------------   --------------------
FINAL SINGLE POINT ENERGY       -76.820315456607
-------------------------   --------------------


                            ***************************************
                            *     ORCA property calculations      *
                            ***************************************

                                    ---------------------
                                    Active property flags
                                    ---------------------
   (+) Dipole Moment


------------------------------------------------------------------------------
                       ORCA ELECTRIC PROPERTIES CALCULATION
------------------------------------------------------------------------------

Dipole Moment Calculation                       ... on
Quadrupole Moment Calculation                   ... off
Polarizability Calculation                      ... off
GBWName                                         ... Scan_36.gbw
Electron density file                           ... Scan_36.scfp.tmp

-------------
DIPOLE MOMENT
-------------
                                X             Y             Z
Electronic contribution:      0.00011       0.00001      -0.00000
Nuclear contribution   :      0.00000      -0.00000       0.00000
                        -----------------------------------------
Total Dipole Moment    :      0.00011       0.00001       0.00000
                        -----------------------------------------
Magnitude (a.u.)       :      0.00011
Magnitude (Debye)      :      0.00029


Timings for individual modules:

Sum of individual times         ...        2.811 sec (=   0.047 min)
GTO integral calculation        ...        0.304 sec (=   0.005 min)  10.8 %
SCF iterations                  ...        2.506 sec (=   0.042 min)  89.2 %
                             ****ORCA TERMINATED NORMALLY****
TOTAL RUN TIME: 0 days 0 hours 0 minutes 3 seconds 189 msec
