
                                 *****************
                                 * O   R   C   A *
                                 *****************

           --- An Ab Initio, DFT and Semiempirical electronic structure package ---

                  #######################################################
                  #                        -***-                        #
                  #  Department of molecular theory and spectroscopy    #
                  #              Directorship: Frank Neese              #
                  # Max Planck Institute for Chemical Energy Conversion #
                  #                  D-45470 Muelheim/Ruhr              #
                  #                       Germany                       #
                  #                                                     #
                  #                  All rights reserved                #
                  #                        -***-                        #
                  #######################################################


                         Program Version 4.0.0.2 - RELEASE -


 With contributions from (in alphabetic order):
   Daniel Aravena         : Magnetic Properties
   Michael Atanasov       : Ab Initio Ligand Field Theory
   Ute Becker             : Parallelization
   Martin Brehm           : Molecular dynamics
   Dmytro Bykov           : SCF Hessian
   Vijay G. Chilkuri      : MRCI spin determinant printing
   Dipayan Datta          : RHF DLPNO-CCSD density
   Achintya Kumar Dutta   : EOM-CC, STEOM-CC
   Dmitry Ganyushin       : Spin-Orbit,Spin-Spin,Magnetic field MRCI
   Yang Guo               : DLPNO-NEVPT2, CIM, IAO-localization
   Andreas Hansen         : Spin unrestricted coupled pair/coupled cluster methods
   Lee Huntington         : MR-EOM, pCC
   Robert Izsak           : Overlap fitted RIJCOSX, COSX-SCS-MP3, EOM
   Christian Kollmar      : KDIIS, OOCD, Brueckner-CCSD(T), CCSD density
   Simone Kossmann        : Meta GGA functionals, TD-DFT gradient, OOMP2, MP2 Hessian
   Martin Krupicka        : AUTO-CI
   Dagmar Lenk            : GEPOL surface
   Dimitrios Liakos       : Extrapolation schemes; parallel MDCI
   Dimitrios Manganas     : ROCIS; embedding schemes
   Dimitrios Pantazis     : SARC Basis sets
   Taras Petrenko         : DFT Hessian,TD-DFT gradient, ASA, ECA, R-Raman, ABS, FL, XAS/XES, NRVS
   Peter Pinski           : DLPNO-MP2
   Christoph Reimann      : Effective Core Potentials
   Marius Retegan         : Local ZFS, SOC
   Christoph Riplinger    : Optimizer, TS searches, QM/MM, DLPNO-CCSD(T), (RO)-DLPNO pert. Triples
   Tobias Risthaus        : Range-separated hybrids, TD-DFT gradient, RPA, STAB
   Michael Roemelt        : Restricted open shell CIS
   Masaaki Saitow         : Open-shell DLPNO
   Barbara Sandhoefer     : DKH picture change effects
   Kantharuban Sivalingam : CASSCF convergence, NEVPT2, FIC-MRCI
   Georgi Stoychev        : AutoAux
   Boris Wezisla          : Elementary symmetry handling
   Frank Wennmohs         : Technical directorship


 We gratefully acknowledge several colleagues who have allowed us to
 interface, adapt or use parts of their codes:
   Stefan Grimme, W. Hujo, H. Kruse,             : VdW corrections, initial TS optimization,
                  C. Bannwarth                     DFT functionals, gCP, sTDA/sTD-DF
   Ed Valeev                                     : LibInt (2-el integral package), F12 methods
   Garnet Chan, S. Sharma, J. Yang, R. Olivares  : DMRG
   Ulf Ekstrom                                   : XCFun DFT Library
   Mihaly Kallay                                 : mrcc  (arbitrary order and MRCC methods)
   Jiri Pittner, Ondrej Demel                    : Mk-CCSD
   Frank Weinhold                                : gennbo (NPA and NBO analysis)
   Christopher J. Cramer and Donald G. Truhlar   : smd solvation model


 Your calculation uses the libint2 library for the computation of 2-el integrals
 For citations please refer to: http://libint.valeyev.net

 This ORCA versions uses:
   CBLAS   interface :  Fast vector & matrix operations
   LAPACKE interface :  Fast linear algebra routines
   SCALAPACK package :  Parallel linear algebra routines


Your calculation utilizes the atom-pairwise dispersion correction
with the zero-damping scheme (D30)
Cite in your paper:
S.Grimme, J.Antony, S.Ehrlich and H.Krieg, J.Chem.Phys., 132, (2010), 154104 
   

XCFun DFT library Copyright 2009-2010 Ulf Ekstrom and contributors.
See http://admol.org/xcfun for more information. This is free soft-
ware; see the source code for copying conditions. There is ABSOLUTELY
NO WARRANTY; not even for MERCHANTABILITY or FITNESS FOR A PARTICULAR
PURPOSE. For details see the documentation. Scientific users of this 
library should cite U. Ekstrom, L. Visscher, R. Bast, A. J. Thorvald-
sen and K. Ruud; J.Chem.Theor.Comp. 2010, DOI: 10.1021/ct100117s
XCFun Version 0.99 
Your calculation utilizes the basis: 6-31G(d)
   H-He, Li-Ne : W. J. Hehre, R. Ditchfield and J.A. Pople, J. Chem. Phys. 56, 2257 (1972).
                 Note: He and Ne are unpublished basis sets taken from the Gaussian program.
                 Note: Li and B from J. D. Dill and J. A. Pople, J. Chem. Phys. 62, 2921 (1975).
   Na - Ar     : M. M. Francl, W. J. Pietro, W. J. Hehre, J. S. Binkley, M. S. Gordon, 
                 D. J. DeFrees and J. A. Pople, J. Chem. Phys. 77, 3654 (1982).
   K - Zn      : V. A. Rassolov, J. A. Pople, M. A. Ratner, and T. L. Windus, J. Chem. Phys. 109, 1223 (1998).

================================================================================
                                        WARNINGS
                       Please study these warnings very carefully!
================================================================================

Warning: TCutStore was < 0. Adjusted to Thresh (uncritical)

INFO   : the flag for use of LIBINT has been found!

================================================================================
                                       INPUT FILE
================================================================================
NAME = initial37.inp
|  1> ! WB97X-D3 6-31G(d) VerySlowConv
|  2> ! KDIIS NOSOSCF
|  3> %base "Scan_37"
|  4> 
|  5> %scf
|  6> maxiter 999
|  7> end
|  8> 
|  9> * xyz 0 1
| 10> C         -4.353162105283    2.617172733453    0.000000072053
| 11> C         -0.171348157445    2.640067353219    0.000000263459
| 12> H         -3.975023541801    3.662788201603   -0.000000232178
| 13> H         -0.549486195472    1.594451711725   -0.000000103334
| 14> **                         ****END OF INPUT****
================================================================================

                       ****************************
                       * Single Point Calculation *
                       ****************************

---------------------------------
CARTESIAN COORDINATES (ANGSTROEM)
---------------------------------
  C     -4.353162    2.617173    0.000000
  C     -0.171348    2.640067    0.000000
  H     -3.975024    3.662788   -0.000000
  H     -0.549486    1.594452   -0.000000

----------------------------
CARTESIAN COORDINATES (A.U.)
----------------------------
  NO LB      ZA    FRAG     MASS         X           Y           Z
   0 C     6.0000    0    12.011   -8.226284    4.945740    0.000000
   1 C     6.0000    0    12.011   -0.323801    4.989004    0.000000
   2 H     1.0000    0     1.008   -7.511706    6.921667   -0.000000
   3 H     1.0000    0     1.008   -1.038378    3.013077   -0.000000

--------------------------------
INTERNAL COORDINATES (ANGSTROEM)
--------------------------------
 C      0   0   0     0.000000000000     0.00000000     0.00000000
 C      1   0   0     4.181876619168     0.00000000     0.00000000
 H      1   2   0     1.111890498398    69.80419673     0.00000000
 H      2   1   3     1.111890482709    69.80422523   180.00003685

---------------------------
INTERNAL COORDINATES (A.U.)
---------------------------
 C      0   0   0     0.000000000000     0.00000000     0.00000000
 C      1   0   0     7.902601536077     0.00000000     0.00000000
 H      1   2   0     2.101168532881    69.80419673     0.00000000
 H      2   1   3     2.101168503234    69.80422523   180.00003685

---------------------
BASIS SET INFORMATION
---------------------
There are 2 groups of distinct atoms

 Group   1 Type C   : 10s4p1d contracted to 3s2p1d pattern {631/31/1}
 Group   2 Type H   : 4s contracted to 2s pattern {31}

Atom   0C    basis set group =>   1
Atom   1C    basis set group =>   1
Atom   2H    basis set group =>   2
Atom   3H    basis set group =>   2
------------------------------------------------------------------------------
                           ORCA GTO INTEGRAL CALCULATION
------------------------------------------------------------------------------

                         BASIS SET STATISTICS AND STARTUP INFO

 # of primitive gaussian shells          ...   38
 # of primitive gaussian functions       ...   62
 # of contracted shells                  ...   16
 # of contracted basis functions         ...   32
 Highest angular momentum                ...    2
 Maximum contraction depth               ...    6
 Integral package used                   ... LIBINT
 Integral threshhold            Thresh   ...  1.000e-10
 Primitive cut-off              TCut     ...  1.000e-11


------------------------------ INTEGRAL EVALUATION ----------------------------


 * One electron integrals 
 Pre-screening matrix                    ... done
 Shell pair data                         ... done (   0.000 sec)

-------------------------------------------------------------------------------
                                 ORCA SCF
-------------------------------------------------------------------------------

------------
SCF SETTINGS
------------
Hamiltonian:
 Density Functional     Method          .... DFT(GTOs)
 Exchange Functional    Exchange        .... WB97X-D3
 Correlation Functional Correlation     .... WB97X-D3
 Gradients option       PostSCFGGA      .... off
 Hybrid DFT is turned on
   Fraction HF Exchange ScalHFX         ....  0.195728
   Scaling of DF-GGA-X  ScalDFX         ....  0.000000
   Scaling of DF-GGA-C  ScalDFC         ....  1.000000
   Scaling of DF-LDA-C  ScalLDAC        ....  1.000000
   Perturbative correction              ....  0.000000
 Long-range corrected/Screened/Range-Separated Hybrid DFT is turned on
   Amount of maximum screened exact exchange              ....  0.804272
   Range separation parameter mu (erf(mu*r12)/r12)        ....  0.250000


General Settings:
 Integral files         IntName         .... Scan_37
 Hartree-Fock type      HFTyp           .... RHF
 Total Charge           Charge          ....    0
 Multiplicity           Mult            ....    1
 Number of Electrons    NEL             ....   14
 Basis Dimension        Dim             ....   32
 Nuclear Repulsion      ENuc            ....     12.0110237768 Eh

Convergence Acceleration:
 DIIS                   CNVDIIS         .... on
   Start iteration      DIISMaxIt       ....     0
   Startup error        DIISStart       ....  0.200000
   # of expansion vecs  DIISMaxEq       ....     5
   Bias factor          DIISBfac        ....   1.050
   Max. coefficient     DIISMaxC        ....  10.000
 Newton-Raphson         CNVNR           .... off
 SOSCF                  CNVSOSCF        .... off
 Level Shifting         CNVShift        .... off
 Zerner damping         CNVZerner       .... off
 Static damping         CNVDamp         .... off
 Fernandez-Rico         CNVRico         .... off

SCF Procedure:
 Maximum # iterations   MaxIter         ....   999
 SCF integral mode      SCFMode         .... Direct
   Integral package                     .... LIBINT
 Reset frequeny         DirectResetFreq ....    20
 Integral Threshold     Thresh          ....  1.000e-10 Eh
 Primitive CutOff       TCut            ....  1.000e-11 Eh

Convergence Tolerance:
 Convergence Check Mode ConvCheckMode   .... All-Criteria
 Convergence forced     ConvForced      .... 0
 Energy Change          TolE            ....  1.000e-06 Eh
 Max Density Change     TolMaxP         ....  1.000e-05
 RMS Density Change     TolRMSP         ....  1.000e-06
 DIIS Error             TolErr          ....  1.000e-06


Diagonalization of the overlap matrix:
Smallest eigenvalue                        ... 4.837e-02
Time for diagonalization                   ...    0.001 sec
Threshold for overlap eigenvalues          ... 1.000e-08
Number of eigenvalues below threshold      ... 0
Time for construction of square roots      ...    0.007 sec
Total time needed                          ...    0.007 sec

-------------------
DFT GRID GENERATION
-------------------

General Integration Accuracy     IntAcc      ...  4.340
Radial Grid Type                 RadialGrid  ... Gauss-Chebyshev
Angular Grid (max. acc.)         AngularGrid ... Lebedev-110
Angular grid pruning method      GridPruning ... 3 (G Style)
Weight generation scheme         WeightScheme... Becke
Basis function cutoff            BFCut       ...    1.0000e-10
Integration weight cutoff        WCut        ...    1.0000e-14
Grids for H and He will be reduced by one unit

# of grid points (after initial pruning)     ...   4900 (   0.0 sec)
# of grid points (after weights+screening)   ...   4882 (   0.0 sec)
nearest neighbour list constructed           ...    0.0 sec
Grid point re-assignment to atoms done       ...    0.0 sec
Grid point division into batches done        ...    0.0 sec
Reduced shell lists constructed in    0.0 sec

Total number of grid points                  ...     4882
Total number of batches                      ...       78
Average number of points per batch           ...       62
Average number of grid points per atom       ...     1220
Average number of shells per batch           ...    11.73 (73.34%)
Average number of basis functions per batch  ...    23.15 (72.35%)
Average number of large shells per batch     ...     9.95 (84.79%)
Average number of large basis fcns per batch ...    19.49 (84.20%)
Maximum spatial batch extension              ...  20.70, 18.49, 25.60 au
Average spatial batch extension              ...   6.39,  5.50,  6.56 au

Time for grid setup =    0.032 sec

------------------------------
INITIAL GUESS: MODEL POTENTIAL
------------------------------
Loading Hartree-Fock densities                     ... done
Calculating cut-offs                               ... done
Setting up the integral package                    ... done
Initializing the effective Hamiltonian             ... done
Starting the Coulomb interaction                   ... done (   0.0 sec)
Reading the grid                                   ... done
Mapping shells                                     ... done
Starting the XC term evaluation                    ... done (   0.0 sec)
  promolecular density results
     # of electrons  =     13.999351372
     EX              =    -10.514257055
     EC              =     -0.379617260
     EX+EC           =    -10.893874315
Transforming the Hamiltonian                       ... done (   0.0 sec)
Diagonalizing the Hamiltonian                      ... done (   0.0 sec)
Back transforming the eigenvectors                 ... done (   0.0 sec)
Now organizing SCF variables                       ... done
                      ------------------
                      INITIAL GUESS DONE (   0.1 sec)
                      ------------------
--------------
SCF ITERATIONS
--------------
ITER       Energy         Delta-E        Max-DP      RMS-DP      [F,P]   Gradient Norm
               ***  Starting incremental Fock matrix formation  ***
                             ****Resetting KDIIS****
                             ****Turning on KDIIS(Cayley)****
  0    -76.8103871212   0.000000000000 0.00656680  0.00053658  0.0289874   0.025684981
  1    -76.8114550294  -0.001067908151 0.00855519  0.00085446  0.0259839   0.023086054
  2    -76.8129910258  -0.001535996368 0.01506442  0.00150741  0.0212797   0.018590057
  3    -76.8148680396  -0.001877013848 0.02287383  0.00230991  0.0128396   0.011169403
  4    -76.8159358003  -0.001067760668 0.00011853  0.00001654  0.0000485   0.000038811
                          ***Energy convergence achieved***
  5    -76.8159358501  -0.000000049804 0.00003617  0.00000509  0.0000198   0.000009233

            ***Energy convergence in two consecutive cycles with***
                    ***'reasonable' density convergence***
                       *** signaling convergence ***

                    *** KDIIS BlockDiag ( 0.000 sec) ***

               *****************************************************
               *                     SUCCESS                       *
               *           SCF CONVERGED AFTER   6 CYCLES          *
               *****************************************************

Setting up the final grid:

General Integration Accuracy     IntAcc      ...  4.670
Radial Grid Type                 RadialGrid  ... Gauss-Chebyshev
Angular Grid (max. acc.)         AngularGrid ... Lebedev-302
Angular grid pruning method      GridPruning ... 3 (G Style)
Weight generation scheme         WeightScheme... Becke
Basis function cutoff            BFCut       ...    1.0000e-10
Integration weight cutoff        WCut        ...    1.0000e-14
Grids for H and He will be reduced by one unit

# of grid points (after initial pruning)     ...  19212 (   0.0 sec)
# of grid points (after weights+screening)   ...  19078 (   0.0 sec)
nearest neighbour list constructed           ...    0.0 sec
Grid point re-assignment to atoms done       ...    0.0 sec
Grid point division into batches done        ...    0.1 sec
Reduced shell lists constructed in    0.1 sec

Total number of grid points                  ...    19078
Total number of batches                      ...      302
Average number of points per batch           ...       63
Average number of grid points per atom       ...     4770
Average number of shells per batch           ...    10.18 (63.61%)
Average number of basis functions per batch  ...    20.01 (62.54%)
Average number of large shells per batch     ...     8.78 (86.22%)
Average number of large basis fcns per batch ...    17.24 (86.16%)
Maximum spatial batch extension              ...  20.43, 25.11, 24.37 au
Average spatial batch extension              ...   3.87,  3.73,  4.21 au

Final grid set up in    0.1 sec
Final integration                            ... done (   0.1 sec)
Change in XC energy                          ...     0.000239109
Integrated number of electrons               ...    14.000003363
Previous integrated no of electrons          ...    14.002810177

----------------
TOTAL SCF ENERGY
----------------

Total Energy       :          -76.81569675 Eh           -2090.26138 eV

Components:
Nuclear Repulsion  :           12.01102378 Eh             326.83657 eV
Electronic Energy  :          -88.82672052 Eh           -2417.09795 eV
One Electron Energy:         -125.86283174 Eh           -3424.90177 eV
Two Electron Energy:           37.03611122 Eh            1007.80382 eV

Virial components:
Potential Energy   :         -153.25884342 Eh           -4170.38515 eV
Kinetic Energy     :           76.44314667 Eh            2080.12377 eV
Virial Ratio       :            2.00487356


DFT components:
N(Alpha)           :        7.000001681706 electrons
N(Beta)            :        7.000001681706 electrons
N(Total)           :       14.000003363413 electrons
E(XC)              :       -7.587867533976 Eh       

---------------
SCF CONVERGENCE
---------------

  Last Energy change         ...   -5.5612e-09  Tolerance :   1.0000e-06
  Last MAX-Density change    ...    1.5028e-05  Tolerance :   1.0000e-05
  Last RMS-Density change    ...    1.3011e-06  Tolerance :   1.0000e-06
  Last DIIS Error            ...    3.9449e-06  Tolerance :   1.0000e-06

             **** THE GBW FILE WAS UPDATED (Scan_37.gbw) ****
             **** DENSITY FILE WAS UPDATED (Scan_37.scfp.tmp) ****
             **** ENERGY FILE WAS UPDATED (Scan_37.en.tmp) ****
----------------
ORBITAL ENERGIES
----------------

  NO   OCC          E(Eh)            E(eV) 
   0   2.0000     -10.400532      -283.0129 
   1   2.0000     -10.400515      -283.0124 
   2   2.0000      -0.745104       -20.2753 
   3   2.0000      -0.741198       -20.1690 
   4   2.0000      -0.407622       -11.0920 
   5   2.0000      -0.405901       -11.0451 
   6   2.0000      -0.238482        -6.4894 
   7   0.0000      -0.095337        -2.5943 
   8   0.0000      -0.035374        -0.9626 
   9   0.0000      -0.033247        -0.9047 
  10   0.0000       0.220947         6.0123 
  11   0.0000       0.224438         6.1073 
  12   0.0000       0.599675        16.3180 
  13   0.0000       0.646432        17.5903 
  14   0.0000       0.654118        17.7994 
  15   0.0000       0.658772        17.9261 
  16   0.0000       0.660241        17.9661 
  17   0.0000       0.685421        18.6512 
  18   0.0000       0.735455        20.0128 
  19   0.0000       0.778364        21.1804 
  20   0.0000       0.967853        26.3366 
  21   0.0000       0.980934        26.6926 
  22   0.0000       1.749603        47.6091 
  23   0.0000       1.749610        47.6093 
  24   0.0000       1.762887        47.9706 
  25   0.0000       1.763359        47.9834 
  26   0.0000       1.773969        48.2722 
  27   0.0000       1.774666        48.2911 
  28   0.0000       1.778806        48.4038 
  29   0.0000       1.779804        48.4309 
  30   0.0000       2.196148        59.7602 
  31   0.0000       2.207283        60.0632 

                    ********************************
                    * MULLIKEN POPULATION ANALYSIS *
                    ********************************

-----------------------
MULLIKEN ATOMIC CHARGES
-----------------------
   0 C :   -0.158644
   1 C :   -0.158661
   2 H :    0.158651
   3 H :    0.158654
Sum of atomic charges:   -0.0000000

--------------------------------
MULLIKEN REDUCED ORBITAL CHARGES
--------------------------------
  0 C s       :     3.926265  s :     3.926265
      pz      :     0.000000  p :     2.217594
      px      :     1.020670
      py      :     1.196924
      dz2     :     0.003649  d :     0.014785
      dxz     :     0.000000
      dyz     :     0.000000
      dx2y2   :     0.006509
      dxy     :     0.004627
  1 C s       :     3.926265  s :     3.926265
      pz      :     0.000000  p :     2.217611
      px      :     1.020683
      py      :     1.196928
      dz2     :     0.003649  d :     0.014785
      dxz     :     0.000000
      dyz     :     0.000000
      dx2y2   :     0.006509
      dxy     :     0.004627
  2 H s       :     0.841349  s :     0.841349
  3 H s       :     0.841346  s :     0.841346


                     *******************************
                     * LOEWDIN POPULATION ANALYSIS *
                     *******************************

----------------------
LOEWDIN ATOMIC CHARGES
----------------------
   0 C :   -0.110590
   1 C :   -0.110606
   2 H :    0.110597
   3 H :    0.110599

-------------------------------
LOEWDIN REDUCED ORBITAL CHARGES
-------------------------------
  0 C s       :     3.758799  s :     3.758799
      pz      :     0.000000  p :     2.331683
      px      :     1.034867
      py      :     1.296816
      dz2     :     0.005005  d :     0.020107
      dxz     :     0.000000
      dyz     :     0.000000
      dx2y2   :     0.008856
      dxy     :     0.006245
  1 C s       :     3.758800  s :     3.758800
      pz      :     0.000000  p :     2.331700
      px      :     1.034881
      py      :     1.296820
      dz2     :     0.005005  d :     0.020107
      dxz     :     0.000000
      dyz     :     0.000000
      dx2y2   :     0.008856
      dxy     :     0.006245
  2 H s       :     0.889403  s :     0.889403
  3 H s       :     0.889401  s :     0.889401


                      *****************************
                      * MAYER POPULATION ANALYSIS *
                      *****************************

  NA   - Mulliken gross atomic population
  ZA   - Total nuclear charge
  QA   - Mulliken gross atomic charge
  VA   - Mayer's total valence
  BVA  - Mayer's bonded valence
  FA   - Mayer's free valence

  ATOM       NA         ZA         QA         VA         BVA        FA
  0 C      6.1586     6.0000    -0.1586     1.9040     1.9040    -0.0000
  1 C      6.1587     6.0000    -0.1587     1.9040     1.9040     0.0000
  2 H      0.8413     1.0000     0.1587     0.9059     0.9059     0.0000
  3 H      0.8413     1.0000     0.1587     0.9059     0.9059    -0.0000

  Mayer bond orders larger than 0.1
B(  0-C ,  1-C ) :   0.9981 B(  0-C ,  2-H ) :   0.9048 B(  1-C ,  3-H ) :   0.9048 


-------
TIMINGS
-------

Total SCF time: 0 days 0 hours 0 min 2 sec 

Total time                  ....       2.401 sec
Sum of individual times     ....       2.300 sec  ( 95.8%)

Fock matrix formation       ....       1.986 sec  ( 82.7%)
  XC integration            ....       0.481 sec  ( 24.2% of F)
    Basis function eval.    ....       0.142 sec  ( 29.5% of XC)
    Density eval.           ....       0.023 sec  (  4.7% of XC)
    XC-Functional eval.     ....       0.152 sec  ( 31.5% of XC)
    XC-Potential eval.      ....       0.016 sec  (  3.3% of XC)
Diagonalization             ....       0.004 sec  (  0.2%)
Density matrix formation    ....       0.000 sec  (  0.0%)
Population analysis         ....       0.010 sec  (  0.4%)
Initial guess               ....       0.117 sec  (  4.9%)
Orbital Transformation      ....       0.000 sec  (  0.0%)
Orbital Orthonormalization  ....       0.000 sec  (  0.0%)
DIIS solution               ....       0.000 sec  (  0.0%)
Grid generation             ....       0.182 sec  (  7.6%)


-------------------------------------------------------------------------------
                          DFT DISPERSION CORRECTION                            
                                                                               
                              DFTD3 V3.1  Rev 1                                
                              USING zero damping                               
-------------------------------------------------------------------------------
The omegaB97X-D3 functional is recognized. Fit by Chai et al.
Active option DFTDOPT                   ...         3   

molecular C6(AA) [au] = 276.846744 


            DFT-D V3
 parameters
 s6 scaling factor         :     1.0000 
 rs6 scaling factor        :     1.2810 
 s8 scaling factor         :     1.0000 
 rs8 scaling factor        :     1.0940 
 Damping factor alpha6     :    14.0000 
 Damping factor alpha8     :    16.0000 
 ad hoc parameters k1-k3   :    16.0000     1.3333    -4.0000 

 Edisp/kcal,au: -0.206845049170  -0.000329628533 
 E6   /kcal   :  -0.128480840 
 E8   /kcal   :  -0.078364210 
 % E8         :  37.885465406 

-------------------------   ----------------
Dispersion correction           -0.000329629
-------------------------   ----------------


-------------------------   --------------------
FINAL SINGLE POINT ENERGY       -76.816026375413
-------------------------   --------------------


                            ***************************************
                            *     ORCA property calculations      *
                            ***************************************

                                    ---------------------
                                    Active property flags
                                    ---------------------
   (+) Dipole Moment


------------------------------------------------------------------------------
                       ORCA ELECTRIC PROPERTIES CALCULATION
------------------------------------------------------------------------------

Dipole Moment Calculation                       ... on
Quadrupole Moment Calculation                   ... off
Polarizability Calculation                      ... off
GBWName                                         ... Scan_37.gbw
Electron density file                           ... Scan_37.scfp.tmp

-------------
DIPOLE MOMENT
-------------
                                X             Y             Z
Electronic contribution:     -0.00006      -0.00000       0.00000
Nuclear contribution   :      0.00000      -0.00000      -0.00000
                        -----------------------------------------
Total Dipole Moment    :     -0.00006      -0.00000      -0.00000
                        -----------------------------------------
Magnitude (a.u.)       :      0.00006
Magnitude (Debye)      :      0.00015


Timings for individual modules:

Sum of individual times         ...        2.725 sec (=   0.045 min)
GTO integral calculation        ...        0.299 sec (=   0.005 min)  11.0 %
SCF iterations                  ...        2.426 sec (=   0.040 min)  89.0 %
                             ****ORCA TERMINATED NORMALLY****
TOTAL RUN TIME: 0 days 0 hours 0 minutes 3 seconds 83 msec
