
                                 *****************
                                 * O   R   C   A *
                                 *****************

           --- An Ab Initio, DFT and Semiempirical electronic structure package ---

                  #######################################################
                  #                        -***-                        #
                  #  Department of molecular theory and spectroscopy    #
                  #              Directorship: Frank Neese              #
                  # Max Planck Institute for Chemical Energy Conversion #
                  #                  D-45470 Muelheim/Ruhr              #
                  #                       Germany                       #
                  #                                                     #
                  #                  All rights reserved                #
                  #                        -***-                        #
                  #######################################################


                         Program Version 4.0.0.2 - RELEASE -


 With contributions from (in alphabetic order):
   Daniel Aravena         : Magnetic Properties
   Michael Atanasov       : Ab Initio Ligand Field Theory
   Ute Becker             : Parallelization
   Martin Brehm           : Molecular dynamics
   Dmytro Bykov           : SCF Hessian
   Vijay G. Chilkuri      : MRCI spin determinant printing
   Dipayan Datta          : RHF DLPNO-CCSD density
   Achintya Kumar Dutta   : EOM-CC, STEOM-CC
   Dmitry Ganyushin       : Spin-Orbit,Spin-Spin,Magnetic field MRCI
   Yang Guo               : DLPNO-NEVPT2, CIM, IAO-localization
   Andreas Hansen         : Spin unrestricted coupled pair/coupled cluster methods
   Lee Huntington         : MR-EOM, pCC
   Robert Izsak           : Overlap fitted RIJCOSX, COSX-SCS-MP3, EOM
   Christian Kollmar      : KDIIS, OOCD, Brueckner-CCSD(T), CCSD density
   Simone Kossmann        : Meta GGA functionals, TD-DFT gradient, OOMP2, MP2 Hessian
   Martin Krupicka        : AUTO-CI
   Dagmar Lenk            : GEPOL surface
   Dimitrios Liakos       : Extrapolation schemes; parallel MDCI
   Dimitrios Manganas     : ROCIS; embedding schemes
   Dimitrios Pantazis     : SARC Basis sets
   Taras Petrenko         : DFT Hessian,TD-DFT gradient, ASA, ECA, R-Raman, ABS, FL, XAS/XES, NRVS
   Peter Pinski           : DLPNO-MP2
   Christoph Reimann      : Effective Core Potentials
   Marius Retegan         : Local ZFS, SOC
   Christoph Riplinger    : Optimizer, TS searches, QM/MM, DLPNO-CCSD(T), (RO)-DLPNO pert. Triples
   Tobias Risthaus        : Range-separated hybrids, TD-DFT gradient, RPA, STAB
   Michael Roemelt        : Restricted open shell CIS
   Masaaki Saitow         : Open-shell DLPNO
   Barbara Sandhoefer     : DKH picture change effects
   Kantharuban Sivalingam : CASSCF convergence, NEVPT2, FIC-MRCI
   Georgi Stoychev        : AutoAux
   Boris Wezisla          : Elementary symmetry handling
   Frank Wennmohs         : Technical directorship


 We gratefully acknowledge several colleagues who have allowed us to
 interface, adapt or use parts of their codes:
   Stefan Grimme, W. Hujo, H. Kruse,             : VdW corrections, initial TS optimization,
                  C. Bannwarth                     DFT functionals, gCP, sTDA/sTD-DF
   Ed Valeev                                     : LibInt (2-el integral package), F12 methods
   Garnet Chan, S. Sharma, J. Yang, R. Olivares  : DMRG
   Ulf Ekstrom                                   : XCFun DFT Library
   Mihaly Kallay                                 : mrcc  (arbitrary order and MRCC methods)
   Jiri Pittner, Ondrej Demel                    : Mk-CCSD
   Frank Weinhold                                : gennbo (NPA and NBO analysis)
   Christopher J. Cramer and Donald G. Truhlar   : smd solvation model


 Your calculation uses the libint2 library for the computation of 2-el integrals
 For citations please refer to: http://libint.valeyev.net

 This ORCA versions uses:
   CBLAS   interface :  Fast vector & matrix operations
   LAPACKE interface :  Fast linear algebra routines
   SCALAPACK package :  Parallel linear algebra routines


Your calculation utilizes the atom-pairwise dispersion correction
with the zero-damping scheme (D30)
Cite in your paper:
S.Grimme, J.Antony, S.Ehrlich and H.Krieg, J.Chem.Phys., 132, (2010), 154104 
   

XCFun DFT library Copyright 2009-2010 Ulf Ekstrom and contributors.
See http://admol.org/xcfun for more information. This is free soft-
ware; see the source code for copying conditions. There is ABSOLUTELY
NO WARRANTY; not even for MERCHANTABILITY or FITNESS FOR A PARTICULAR
PURPOSE. For details see the documentation. Scientific users of this 
library should cite U. Ekstrom, L. Visscher, R. Bast, A. J. Thorvald-
sen and K. Ruud; J.Chem.Theor.Comp. 2010, DOI: 10.1021/ct100117s
XCFun Version 0.99 
Your calculation utilizes the basis: 6-31G(d)
   H-He, Li-Ne : W. J. Hehre, R. Ditchfield and J.A. Pople, J. Chem. Phys. 56, 2257 (1972).
                 Note: He and Ne are unpublished basis sets taken from the Gaussian program.
                 Note: Li and B from J. D. Dill and J. A. Pople, J. Chem. Phys. 62, 2921 (1975).
   Na - Ar     : M. M. Francl, W. J. Pietro, W. J. Hehre, J. S. Binkley, M. S. Gordon, 
                 D. J. DeFrees and J. A. Pople, J. Chem. Phys. 77, 3654 (1982).
   K - Zn      : V. A. Rassolov, J. A. Pople, M. A. Ratner, and T. L. Windus, J. Chem. Phys. 109, 1223 (1998).

================================================================================
                                        WARNINGS
                       Please study these warnings very carefully!
================================================================================

Warning: TCutStore was < 0. Adjusted to Thresh (uncritical)

INFO   : the flag for use of LIBINT has been found!

================================================================================
                                       INPUT FILE
================================================================================
NAME = initial38.inp
|  1> ! WB97X-D3 6-31G(d) VerySlowConv
|  2> ! KDIIS NOSOSCF
|  3> %base "Scan_38"
|  4> 
|  5> %scf
|  6> maxiter 999
|  7> end
|  8> 
|  9> * xyz 0 1
| 10> C         -4.404377602453    2.628093838332    0.000000028244
| 11> C         -0.120132479114    2.629146202586    0.000000224039
| 12> H         -3.998383406082    3.663218284470   -0.000000191625
| 13> H         -0.526126512351    1.594021674613   -0.000000060658
| 14> **                         ****END OF INPUT****
================================================================================

                       ****************************
                       * Single Point Calculation *
                       ****************************

---------------------------------
CARTESIAN COORDINATES (ANGSTROEM)
---------------------------------
  C     -4.404378    2.628094    0.000000
  C     -0.120132    2.629146    0.000000
  H     -3.998383    3.663218   -0.000000
  H     -0.526127    1.594022   -0.000000

----------------------------
CARTESIAN COORDINATES (A.U.)
----------------------------
  NO LB      ZA    FRAG     MASS         X           Y           Z
   0 C     6.0000    0    12.011   -8.323067    4.966378    0.000000
   1 C     6.0000    0    12.011   -0.227017    4.968366    0.000000
   2 H     1.0000    0     1.008   -7.555850    6.922479   -0.000000
   3 H     1.0000    0     1.008   -0.994235    3.012264   -0.000000

--------------------------------
INTERNAL COORDINATES (ANGSTROEM)
--------------------------------
 C      0   0   0     0.000000000000     0.00000000     0.00000000
 C      1   0   0     4.284245252588     0.00000000     0.00000000
 H      1   2   0     1.111896535870    68.56993237     0.00000000
 H      2   1   3     1.111896552488    68.56994174   180.00002795

---------------------------
INTERNAL COORDINATES (A.U.)
---------------------------
 C      0   0   0     0.000000000000     0.00000000     0.00000000
 C      1   0   0     8.096050217944     0.00000000     0.00000000
 H      1   2   0     2.101179942050    68.56993237     0.00000000
 H      2   1   3     2.101179973454    68.56994174   180.00002795

---------------------
BASIS SET INFORMATION
---------------------
There are 2 groups of distinct atoms

 Group   1 Type C   : 10s4p1d contracted to 3s2p1d pattern {631/31/1}
 Group   2 Type H   : 4s contracted to 2s pattern {31}

Atom   0C    basis set group =>   1
Atom   1C    basis set group =>   1
Atom   2H    basis set group =>   2
Atom   3H    basis set group =>   2
------------------------------------------------------------------------------
                           ORCA GTO INTEGRAL CALCULATION
------------------------------------------------------------------------------

                         BASIS SET STATISTICS AND STARTUP INFO

 # of primitive gaussian shells          ...   38
 # of primitive gaussian functions       ...   62
 # of contracted shells                  ...   16
 # of contracted basis functions         ...   32
 Highest angular momentum                ...    2
 Maximum contraction depth               ...    6
 Integral package used                   ... LIBINT
 Integral threshhold            Thresh   ...  1.000e-10
 Primitive cut-off              TCut     ...  1.000e-11


------------------------------ INTEGRAL EVALUATION ----------------------------


 * One electron integrals 
 Pre-screening matrix                    ... done
 Shell pair data                         ... done (   0.000 sec)

-------------------------------------------------------------------------------
                                 ORCA SCF
-------------------------------------------------------------------------------

------------
SCF SETTINGS
------------
Hamiltonian:
 Density Functional     Method          .... DFT(GTOs)
 Exchange Functional    Exchange        .... WB97X-D3
 Correlation Functional Correlation     .... WB97X-D3
 Gradients option       PostSCFGGA      .... off
 Hybrid DFT is turned on
   Fraction HF Exchange ScalHFX         ....  0.195728
   Scaling of DF-GGA-X  ScalDFX         ....  0.000000
   Scaling of DF-GGA-C  ScalDFC         ....  1.000000
   Scaling of DF-LDA-C  ScalLDAC        ....  1.000000
   Perturbative correction              ....  0.000000
 Long-range corrected/Screened/Range-Separated Hybrid DFT is turned on
   Amount of maximum screened exact exchange              ....  0.804272
   Range separation parameter mu (erf(mu*r12)/r12)        ....  0.250000


General Settings:
 Integral files         IntName         .... Scan_38
 Hartree-Fock type      HFTyp           .... RHF
 Total Charge           Charge          ....    0
 Multiplicity           Mult            ....    1
 Number of Electrons    NEL             ....   14
 Basis Dimension        Dim             ....   32
 Nuclear Repulsion      ENuc            ....     11.8707033949 Eh

Convergence Acceleration:
 DIIS                   CNVDIIS         .... on
   Start iteration      DIISMaxIt       ....     0
   Startup error        DIISStart       ....  0.200000
   # of expansion vecs  DIISMaxEq       ....     5
   Bias factor          DIISBfac        ....   1.050
   Max. coefficient     DIISMaxC        ....  10.000
 Newton-Raphson         CNVNR           .... off
 SOSCF                  CNVSOSCF        .... off
 Level Shifting         CNVShift        .... off
 Zerner damping         CNVZerner       .... off
 Static damping         CNVDamp         .... off
 Fernandez-Rico         CNVRico         .... off

SCF Procedure:
 Maximum # iterations   MaxIter         ....   999
 SCF integral mode      SCFMode         .... Direct
   Integral package                     .... LIBINT
 Reset frequeny         DirectResetFreq ....    20
 Integral Threshold     Thresh          ....  1.000e-10 Eh
 Primitive CutOff       TCut            ....  1.000e-11 Eh

Convergence Tolerance:
 Convergence Check Mode ConvCheckMode   .... All-Criteria
 Convergence forced     ConvForced      .... 0
 Energy Change          TolE            ....  1.000e-06 Eh
 Max Density Change     TolMaxP         ....  1.000e-05
 RMS Density Change     TolRMSP         ....  1.000e-06
 DIIS Error             TolErr          ....  1.000e-06


Diagonalization of the overlap matrix:
Smallest eigenvalue                        ... 4.826e-02
Time for diagonalization                   ...    0.001 sec
Threshold for overlap eigenvalues          ... 1.000e-08
Number of eigenvalues below threshold      ... 0
Time for construction of square roots      ...    0.005 sec
Total time needed                          ...    0.006 sec

-------------------
DFT GRID GENERATION
-------------------

General Integration Accuracy     IntAcc      ...  4.340
Radial Grid Type                 RadialGrid  ... Gauss-Chebyshev
Angular Grid (max. acc.)         AngularGrid ... Lebedev-110
Angular grid pruning method      GridPruning ... 3 (G Style)
Weight generation scheme         WeightScheme... Becke
Basis function cutoff            BFCut       ...    1.0000e-10
Integration weight cutoff        WCut        ...    1.0000e-14
Grids for H and He will be reduced by one unit

# of grid points (after initial pruning)     ...   4900 (   0.0 sec)
# of grid points (after weights+screening)   ...   4884 (   0.0 sec)
nearest neighbour list constructed           ...    0.0 sec
Grid point re-assignment to atoms done       ...    0.0 sec
Grid point division into batches done        ...    0.0 sec
Reduced shell lists constructed in    0.0 sec

Total number of grid points                  ...     4884
Total number of batches                      ...       78
Average number of points per batch           ...       62
Average number of grid points per atom       ...     1221
Average number of shells per batch           ...    11.59 (72.47%)
Average number of basis functions per batch  ...    22.84 (71.36%)
Average number of large shells per batch     ...     9.97 (86.03%)
Average number of large basis fcns per batch ...    19.72 (86.36%)
Maximum spatial batch extension              ...  20.90, 18.49, 25.60 au
Average spatial batch extension              ...   6.42,  5.45,  6.52 au

Time for grid setup =    0.032 sec

------------------------------
INITIAL GUESS: MODEL POTENTIAL
------------------------------
Loading Hartree-Fock densities                     ... done
Calculating cut-offs                               ... done
Setting up the integral package                    ... done
Initializing the effective Hamiltonian             ... done
Starting the Coulomb interaction                   ... done (   0.0 sec)
Reading the grid                                   ... done
Mapping shells                                     ... done
Starting the XC term evaluation                    ... done (   0.0 sec)
  promolecular density results
     # of electrons  =     13.999424584
     EX              =    -10.514282571
     EC              =     -0.379569458
     EX+EC           =    -10.893852029
Transforming the Hamiltonian                       ... done (   0.0 sec)
Diagonalizing the Hamiltonian                      ... done (   0.0 sec)
Back transforming the eigenvectors                 ... done (   0.0 sec)
Now organizing SCF variables                       ... done
                      ------------------
                      INITIAL GUESS DONE (   0.1 sec)
                      ------------------
--------------
SCF ITERATIONS
--------------
ITER       Energy         Delta-E        Max-DP      RMS-DP      [F,P]   Gradient Norm
               ***  Starting incremental Fock matrix formation  ***
                             ****Resetting KDIIS****
                             ****Turning on KDIIS(Cayley)****
  0    -76.8065666077   0.000000000000 0.00670591  0.00054308  0.0288692   0.025745632
  1    -76.8076414583  -0.001074850526 0.00876940  0.00085871  0.0258487   0.023128832
  2    -76.8091745398  -0.001533081551 0.01540444  0.00151338  0.0211587   0.018624302
  3    -76.8110455569  -0.001871017107 0.02342401  0.00232130  0.0127675   0.011190962
  4    -76.8121100340  -0.001064477054 0.00011170  0.00001525  0.0000436   0.000036360
                          ***Energy convergence achieved***
  5    -76.8121100751  -0.000000041092 0.00003306  0.00000469  0.0000182   0.000008582

            ***Energy convergence in two consecutive cycles with***
                    ***'reasonable' density convergence***
                       *** signaling convergence ***

                    *** KDIIS BlockDiag ( 0.000 sec) ***

               *****************************************************
               *                     SUCCESS                       *
               *           SCF CONVERGED AFTER   6 CYCLES          *
               *****************************************************

Setting up the final grid:

General Integration Accuracy     IntAcc      ...  4.670
Radial Grid Type                 RadialGrid  ... Gauss-Chebyshev
Angular Grid (max. acc.)         AngularGrid ... Lebedev-302
Angular grid pruning method      GridPruning ... 3 (G Style)
Weight generation scheme         WeightScheme... Becke
Basis function cutoff            BFCut       ...    1.0000e-10
Integration weight cutoff        WCut        ...    1.0000e-14
Grids for H and He will be reduced by one unit

# of grid points (after initial pruning)     ...  19212 (   0.0 sec)
# of grid points (after weights+screening)   ...  19084 (   0.0 sec)
nearest neighbour list constructed           ...    0.0 sec
Grid point re-assignment to atoms done       ...    0.0 sec
Grid point division into batches done        ...    0.1 sec
Reduced shell lists constructed in    0.1 sec

Total number of grid points                  ...    19084
Total number of batches                      ...      300
Average number of points per batch           ...       63
Average number of grid points per atom       ...     4771
Average number of shells per batch           ...    10.09 (63.08%)
Average number of basis functions per batch  ...    19.81 (61.90%)
Average number of large shells per batch     ...     8.70 (86.21%)
Average number of large basis fcns per batch ...    17.09 (86.26%)
Maximum spatial batch extension              ...  20.12, 25.45, 24.37 au
Average spatial batch extension              ...   3.97,  3.79,  4.20 au

Final grid set up in    0.2 sec
Final integration                            ... done (   0.1 sec)
Change in XC energy                          ...     0.000274915
Integrated number of electrons               ...    14.000003883
Previous integrated no of electrons          ...    14.003013797

----------------
TOTAL SCF ENERGY
----------------

Total Energy       :          -76.81183516 Eh           -2090.15630 eV

Components:
Nuclear Repulsion  :           11.87070339 Eh             323.01826 eV
Electronic Energy  :          -88.68253856 Eh           -2413.17456 eV
One Electron Energy:         -125.58425006 Eh           -3417.32118 eV
Two Electron Energy:           36.90171150 Eh            1004.14662 eV

Virial components:
Potential Energy   :         -153.26392968 Eh           -4170.52355 eV
Kinetic Energy     :           76.45209451 Eh            2080.36726 eV
Virial Ratio       :            2.00470544


DFT components:
N(Alpha)           :        7.000001941479 electrons
N(Beta)            :        7.000001941479 electrons
N(Total)           :       14.000003882959 electrons
E(XC)              :       -7.589032652610 Eh       

---------------
SCF CONVERGENCE
---------------

  Last Energy change         ...   -4.4719e-09  Tolerance :   1.0000e-06
  Last MAX-Density change    ...    1.5096e-05  Tolerance :   1.0000e-05
  Last RMS-Density change    ...    1.0243e-06  Tolerance :   1.0000e-06
  Last DIIS Error            ...    6.1284e-06  Tolerance :   1.0000e-06

             **** THE GBW FILE WAS UPDATED (Scan_38.gbw) ****
             **** DENSITY FILE WAS UPDATED (Scan_38.scfp.tmp) ****
             **** ENERGY FILE WAS UPDATED (Scan_38.en.tmp) ****
----------------
ORBITAL ENERGIES
----------------

  NO   OCC          E(Eh)            E(eV) 
   0   2.0000     -10.399651      -282.9889 
   1   2.0000     -10.399622      -282.9881 
   2   2.0000      -0.744783       -20.2666 
   3   2.0000      -0.741295       -20.1717 
   4   2.0000      -0.407242       -11.0816 
   5   2.0000      -0.405829       -11.0432 
   6   2.0000      -0.235717        -6.4142 
   7   0.0000      -0.097888        -2.6637 
   8   0.0000      -0.035009        -0.9527 
   9   0.0000      -0.033277        -0.9055 
  10   0.0000       0.221067         6.0155 
  11   0.0000       0.223955         6.0941 
  12   0.0000       0.606043        16.4913 
  13   0.0000       0.647744        17.6260 
  14   0.0000       0.654752        17.8167 
  15   0.0000       0.657767        17.8987 
  16   0.0000       0.659601        17.9487 
  17   0.0000       0.682414        18.5694 
  18   0.0000       0.736906        20.0522 
  19   0.0000       0.770252        20.9596 
  20   0.0000       0.967434        26.3252 
  21   0.0000       0.981213        26.7002 
  22   0.0000       1.749835        47.6154 
  23   0.0000       1.749851        47.6159 
  24   0.0000       1.763146        47.9777 
  25   0.0000       1.763561        47.9889 
  26   0.0000       1.774204        48.2786 
  27   0.0000       1.774857        48.2963 
  28   0.0000       1.779067        48.4109 
  29   0.0000       1.779976        48.4356 
  30   0.0000       2.196641        59.7736 
  31   0.0000       2.206746        60.0486 

                    ********************************
                    * MULLIKEN POPULATION ANALYSIS *
                    ********************************

-----------------------
MULLIKEN ATOMIC CHARGES
-----------------------
   0 C :   -0.157532
   1 C :   -0.157494
   2 H :    0.157516
   3 H :    0.157510
Sum of atomic charges:   -0.0000000

--------------------------------
MULLIKEN REDUCED ORBITAL CHARGES
--------------------------------
  0 C s       :     3.926462  s :     3.926462
      pz      :     0.000000  p :     2.216288
      px      :     1.023796
      py      :     1.192492
      dz2     :     0.003650  d :     0.014781
      dxz     :     0.000000
      dyz     :     0.000000
      dx2y2   :     0.005969
      dxy     :     0.005163
  1 C s       :     3.926462  s :     3.926462
      pz      :     0.000000  p :     2.216251
      px      :     1.023768
      py      :     1.192483
      dz2     :     0.003650  d :     0.014781
      dxz     :     0.000000
      dyz     :     0.000000
      dx2y2   :     0.005969
      dxy     :     0.005163
  2 H s       :     0.842484  s :     0.842484
  3 H s       :     0.842490  s :     0.842490


                     *******************************
                     * LOEWDIN POPULATION ANALYSIS *
                     *******************************

----------------------
LOEWDIN ATOMIC CHARGES
----------------------
   0 C :   -0.109896
   1 C :   -0.109860
   2 H :    0.109880
   3 H :    0.109876

-------------------------------
LOEWDIN REDUCED ORBITAL CHARGES
-------------------------------
  0 C s       :     3.758922  s :     3.758922
      pz      :     0.000000  p :     2.330854
      px      :     1.040203
      py      :     1.290651
      dz2     :     0.005010  d :     0.020120
      dxz     :     0.000000
      dyz     :     0.000000
      dx2y2   :     0.008113
      dxy     :     0.006997
  1 C s       :     3.758922  s :     3.758922
      pz      :     0.000000  p :     2.330818
      px      :     1.040174
      py      :     1.290644
      dz2     :     0.005010  d :     0.020120
      dxz     :     0.000000
      dyz     :     0.000000
      dx2y2   :     0.008113
      dxy     :     0.006997
  2 H s       :     0.890120  s :     0.890120
  3 H s       :     0.890124  s :     0.890124


                      *****************************
                      * MAYER POPULATION ANALYSIS *
                      *****************************

  NA   - Mulliken gross atomic population
  ZA   - Total nuclear charge
  QA   - Mulliken gross atomic charge
  VA   - Mayer's total valence
  BVA  - Mayer's bonded valence
  FA   - Mayer's free valence

  ATOM       NA         ZA         QA         VA         BVA        FA
  0 C      6.1575     6.0000    -0.1575     1.9042     1.9042    -0.0000
  1 C      6.1575     6.0000    -0.1575     1.9042     1.9042     0.0000
  2 H      0.8425     1.0000     0.1575     0.9059     0.9059     0.0000
  3 H      0.8425     1.0000     0.1575     0.9059     0.9059    -0.0000

  Mayer bond orders larger than 0.1
B(  0-C ,  1-C ) :   0.9983 B(  0-C ,  2-H ) :   0.9049 B(  1-C ,  3-H ) :   0.9049 


-------
TIMINGS
-------

Total SCF time: 0 days 0 hours 0 min 2 sec 

Total time                  ....       2.531 sec
Sum of individual times     ....       2.430 sec  ( 96.0%)

Fock matrix formation       ....       2.104 sec  ( 83.1%)
  XC integration            ....       0.519 sec  ( 24.7% of F)
    Basis function eval.    ....       0.152 sec  ( 29.2% of XC)
    Density eval.           ....       0.024 sec  (  4.7% of XC)
    XC-Functional eval.     ....       0.164 sec  ( 31.5% of XC)
    XC-Potential eval.      ....       0.016 sec  (  3.1% of XC)
Diagonalization             ....       0.005 sec  (  0.2%)
Density matrix formation    ....       0.000 sec  (  0.0%)
Population analysis         ....       0.010 sec  (  0.4%)
Initial guess               ....       0.119 sec  (  4.7%)
Orbital Transformation      ....       0.000 sec  (  0.0%)
Orbital Orthonormalization  ....       0.000 sec  (  0.0%)
DIIS solution               ....       0.000 sec  (  0.0%)
Grid generation             ....       0.192 sec  (  7.6%)


-------------------------------------------------------------------------------
                          DFT DISPERSION CORRECTION                            
                                                                               
                              DFTD3 V3.1  Rev 1                                
                              USING zero damping                               
-------------------------------------------------------------------------------
The omegaB97X-D3 functional is recognized. Fit by Chai et al.
Active option DFTDOPT                   ...         3   

molecular C6(AA) [au] = 276.847447 


            DFT-D V3
 parameters
 s6 scaling factor         :     1.0000 
 rs6 scaling factor        :     1.2810 
 s8 scaling factor         :     1.0000 
 rs8 scaling factor        :     1.0940 
 Damping factor alpha6     :    14.0000 
 Damping factor alpha8     :    16.0000 
 ad hoc parameters k1-k3   :    16.0000     1.3333    -4.0000 

 Edisp/kcal,au: -0.191727861156  -0.000305537763 
 E6   /kcal   :  -0.124902352 
 E8   /kcal   :  -0.066825509 
 % E8         :  34.854354941 

-------------------------   ----------------
Dispersion correction           -0.000305538
-------------------------   ----------------


-------------------------   --------------------
FINAL SINGLE POINT ENERGY       -76.812140702098
-------------------------   --------------------


                            ***************************************
                            *     ORCA property calculations      *
                            ***************************************

                                    ---------------------
                                    Active property flags
                                    ---------------------
   (+) Dipole Moment


------------------------------------------------------------------------------
                       ORCA ELECTRIC PROPERTIES CALCULATION
------------------------------------------------------------------------------

Dipole Moment Calculation                       ... on
Quadrupole Moment Calculation                   ... off
Polarizability Calculation                      ... off
GBWName                                         ... Scan_38.gbw
Electron density file                           ... Scan_38.scfp.tmp

-------------
DIPOLE MOMENT
-------------
                                X             Y             Z
Electronic contribution:      0.00013       0.00001       0.00000
Nuclear contribution   :      0.00000      -0.00000      -0.00000
                        -----------------------------------------
Total Dipole Moment    :      0.00013       0.00001      -0.00000
                        -----------------------------------------
Magnitude (a.u.)       :      0.00013
Magnitude (Debye)      :      0.00034


Timings for individual modules:

Sum of individual times         ...        2.871 sec (=   0.048 min)
GTO integral calculation        ...        0.317 sec (=   0.005 min)  11.0 %
SCF iterations                  ...        2.554 sec (=   0.043 min)  89.0 %
                             ****ORCA TERMINATED NORMALLY****
TOTAL RUN TIME: 0 days 0 hours 0 minutes 3 seconds 232 msec
