
                                 *****************
                                 * O   R   C   A *
                                 *****************

           --- An Ab Initio, DFT and Semiempirical electronic structure package ---

                  #######################################################
                  #                        -***-                        #
                  #  Department of molecular theory and spectroscopy    #
                  #              Directorship: Frank Neese              #
                  # Max Planck Institute for Chemical Energy Conversion #
                  #                  D-45470 Muelheim/Ruhr              #
                  #                       Germany                       #
                  #                                                     #
                  #                  All rights reserved                #
                  #                        -***-                        #
                  #######################################################


                         Program Version 4.0.0.2 - RELEASE -


 With contributions from (in alphabetic order):
   Daniel Aravena         : Magnetic Properties
   Michael Atanasov       : Ab Initio Ligand Field Theory
   Ute Becker             : Parallelization
   Martin Brehm           : Molecular dynamics
   Dmytro Bykov           : SCF Hessian
   Vijay G. Chilkuri      : MRCI spin determinant printing
   Dipayan Datta          : RHF DLPNO-CCSD density
   Achintya Kumar Dutta   : EOM-CC, STEOM-CC
   Dmitry Ganyushin       : Spin-Orbit,Spin-Spin,Magnetic field MRCI
   Yang Guo               : DLPNO-NEVPT2, CIM, IAO-localization
   Andreas Hansen         : Spin unrestricted coupled pair/coupled cluster methods
   Lee Huntington         : MR-EOM, pCC
   Robert Izsak           : Overlap fitted RIJCOSX, COSX-SCS-MP3, EOM
   Christian Kollmar      : KDIIS, OOCD, Brueckner-CCSD(T), CCSD density
   Simone Kossmann        : Meta GGA functionals, TD-DFT gradient, OOMP2, MP2 Hessian
   Martin Krupicka        : AUTO-CI
   Dagmar Lenk            : GEPOL surface
   Dimitrios Liakos       : Extrapolation schemes; parallel MDCI
   Dimitrios Manganas     : ROCIS; embedding schemes
   Dimitrios Pantazis     : SARC Basis sets
   Taras Petrenko         : DFT Hessian,TD-DFT gradient, ASA, ECA, R-Raman, ABS, FL, XAS/XES, NRVS
   Peter Pinski           : DLPNO-MP2
   Christoph Reimann      : Effective Core Potentials
   Marius Retegan         : Local ZFS, SOC
   Christoph Riplinger    : Optimizer, TS searches, QM/MM, DLPNO-CCSD(T), (RO)-DLPNO pert. Triples
   Tobias Risthaus        : Range-separated hybrids, TD-DFT gradient, RPA, STAB
   Michael Roemelt        : Restricted open shell CIS
   Masaaki Saitow         : Open-shell DLPNO
   Barbara Sandhoefer     : DKH picture change effects
   Kantharuban Sivalingam : CASSCF convergence, NEVPT2, FIC-MRCI
   Georgi Stoychev        : AutoAux
   Boris Wezisla          : Elementary symmetry handling
   Frank Wennmohs         : Technical directorship


 We gratefully acknowledge several colleagues who have allowed us to
 interface, adapt or use parts of their codes:
   Stefan Grimme, W. Hujo, H. Kruse,             : VdW corrections, initial TS optimization,
                  C. Bannwarth                     DFT functionals, gCP, sTDA/sTD-DF
   Ed Valeev                                     : LibInt (2-el integral package), F12 methods
   Garnet Chan, S. Sharma, J. Yang, R. Olivares  : DMRG
   Ulf Ekstrom                                   : XCFun DFT Library
   Mihaly Kallay                                 : mrcc  (arbitrary order and MRCC methods)
   Jiri Pittner, Ondrej Demel                    : Mk-CCSD
   Frank Weinhold                                : gennbo (NPA and NBO analysis)
   Christopher J. Cramer and Donald G. Truhlar   : smd solvation model


 Your calculation uses the libint2 library for the computation of 2-el integrals
 For citations please refer to: http://libint.valeyev.net

 This ORCA versions uses:
   CBLAS   interface :  Fast vector & matrix operations
   LAPACKE interface :  Fast linear algebra routines
   SCALAPACK package :  Parallel linear algebra routines


Your calculation utilizes the atom-pairwise dispersion correction
with the zero-damping scheme (D30)
Cite in your paper:
S.Grimme, J.Antony, S.Ehrlich and H.Krieg, J.Chem.Phys., 132, (2010), 154104 
   

XCFun DFT library Copyright 2009-2010 Ulf Ekstrom and contributors.
See http://admol.org/xcfun for more information. This is free soft-
ware; see the source code for copying conditions. There is ABSOLUTELY
NO WARRANTY; not even for MERCHANTABILITY or FITNESS FOR A PARTICULAR
PURPOSE. For details see the documentation. Scientific users of this 
library should cite U. Ekstrom, L. Visscher, R. Bast, A. J. Thorvald-
sen and K. Ruud; J.Chem.Theor.Comp. 2010, DOI: 10.1021/ct100117s
XCFun Version 0.99 
Your calculation utilizes the basis: 6-31G(d)
   H-He, Li-Ne : W. J. Hehre, R. Ditchfield and J.A. Pople, J. Chem. Phys. 56, 2257 (1972).
                 Note: He and Ne are unpublished basis sets taken from the Gaussian program.
                 Note: Li and B from J. D. Dill and J. A. Pople, J. Chem. Phys. 62, 2921 (1975).
   Na - Ar     : M. M. Francl, W. J. Pietro, W. J. Hehre, J. S. Binkley, M. S. Gordon, 
                 D. J. DeFrees and J. A. Pople, J. Chem. Phys. 77, 3654 (1982).
   K - Zn      : V. A. Rassolov, J. A. Pople, M. A. Ratner, and T. L. Windus, J. Chem. Phys. 109, 1223 (1998).

================================================================================
                                        WARNINGS
                       Please study these warnings very carefully!
================================================================================

Warning: TCutStore was < 0. Adjusted to Thresh (uncritical)

INFO   : the flag for use of LIBINT has been found!

================================================================================
                                       INPUT FILE
================================================================================
NAME = initial40.inp
|  1> ! WB97X-D3 6-31G(d) VerySlowConv
|  2> ! KDIIS NOSOSCF
|  3> %base "Scan_40"
|  4> 
|  5> %scf
|  6> maxiter 999
|  7> end
|  8> 
|  9> * xyz 0 1
| 10> C         -4.506472727665    2.652437147540   -0.000000565580
| 11> C         -0.018037845852    2.604803113663   -0.000000361106
| 12> H         -4.066135413368    3.673516259714    0.000000394901
| 13> H         -0.458374013115    1.583723479082    0.000000531785
| 14> **                         ****END OF INPUT****
================================================================================

                       ****************************
                       * Single Point Calculation *
                       ****************************

---------------------------------
CARTESIAN COORDINATES (ANGSTROEM)
---------------------------------
  C     -4.506473    2.652437   -0.000001
  C     -0.018038    2.604803   -0.000000
  H     -4.066135    3.673516    0.000000
  H     -0.458374    1.583723    0.000001

----------------------------
CARTESIAN COORDINATES (A.U.)
----------------------------
  NO LB      ZA    FRAG     MASS         X           Y           Z
   0 C     6.0000    0    12.011   -8.515999    5.012380   -0.000001
   1 C     6.0000    0    12.011   -0.034087    4.922365   -0.000001
   2 H     1.0000    0     1.008   -7.683882    6.941940    0.000001
   3 H     1.0000    0     1.008   -0.866201    2.992804    0.000001

--------------------------------
INTERNAL COORDINATES (ANGSTROEM)
--------------------------------
 C      0   0   0     0.000000000000     0.00000000     0.00000000
 C      1   0   0     4.488687635541     0.00000000     0.00000000
 H      1   2   0     1.111979992482    67.28005863     0.00000000
 H      2   1   3     1.111980017966    67.28012356   179.99989647

---------------------------
INTERNAL COORDINATES (A.U.)
---------------------------
 C      0   0   0     0.000000000000     0.00000000     0.00000000
 C      1   0   0     8.482390331891     0.00000000     0.00000000
 H      1   2   0     2.101337652192    67.28005863     0.00000000
 H      2   1   3     2.101337700349    67.28012356   179.99989647

---------------------
BASIS SET INFORMATION
---------------------
There are 2 groups of distinct atoms

 Group   1 Type C   : 10s4p1d contracted to 3s2p1d pattern {631/31/1}
 Group   2 Type H   : 4s contracted to 2s pattern {31}

Atom   0C    basis set group =>   1
Atom   1C    basis set group =>   1
Atom   2H    basis set group =>   2
Atom   3H    basis set group =>   2
------------------------------------------------------------------------------
                           ORCA GTO INTEGRAL CALCULATION
------------------------------------------------------------------------------

                         BASIS SET STATISTICS AND STARTUP INFO

 # of primitive gaussian shells          ...   38
 # of primitive gaussian functions       ...   62
 # of contracted shells                  ...   16
 # of contracted basis functions         ...   32
 Highest angular momentum                ...    2
 Maximum contraction depth               ...    6
 Integral package used                   ... LIBINT
 Integral threshhold            Thresh   ...  1.000e-10
 Primitive cut-off              TCut     ...  1.000e-11


------------------------------ INTEGRAL EVALUATION ----------------------------


 * One electron integrals 
 Pre-screening matrix                    ... done
 Shell pair data                         ... done (   0.000 sec)

-------------------------------------------------------------------------------
                                 ORCA SCF
-------------------------------------------------------------------------------

------------
SCF SETTINGS
------------
Hamiltonian:
 Density Functional     Method          .... DFT(GTOs)
 Exchange Functional    Exchange        .... WB97X-D3
 Correlation Functional Correlation     .... WB97X-D3
 Gradients option       PostSCFGGA      .... off
 Hybrid DFT is turned on
   Fraction HF Exchange ScalHFX         ....  0.195728
   Scaling of DF-GGA-X  ScalDFX         ....  0.000000
   Scaling of DF-GGA-C  ScalDFC         ....  1.000000
   Scaling of DF-LDA-C  ScalLDAC        ....  1.000000
   Perturbative correction              ....  0.000000
 Long-range corrected/Screened/Range-Separated Hybrid DFT is turned on
   Amount of maximum screened exact exchange              ....  0.804272
   Range separation parameter mu (erf(mu*r12)/r12)        ....  0.250000


General Settings:
 Integral files         IntName         .... Scan_40
 Hartree-Fock type      HFTyp           .... RHF
 Total Charge           Charge          ....    0
 Multiplicity           Mult            ....    1
 Number of Electrons    NEL             ....   14
 Basis Dimension        Dim             ....   32
 Nuclear Repulsion      ENuc            ....     11.5983604022 Eh

Convergence Acceleration:
 DIIS                   CNVDIIS         .... on
   Start iteration      DIISMaxIt       ....     0
   Startup error        DIISStart       ....  0.200000
   # of expansion vecs  DIISMaxEq       ....     5
   Bias factor          DIISBfac        ....   1.050
   Max. coefficient     DIISMaxC        ....  10.000
 Newton-Raphson         CNVNR           .... off
 SOSCF                  CNVSOSCF        .... off
 Level Shifting         CNVShift        .... off
 Zerner damping         CNVZerner       .... off
 Static damping         CNVDamp         .... off
 Fernandez-Rico         CNVRico         .... off

SCF Procedure:
 Maximum # iterations   MaxIter         ....   999
 SCF integral mode      SCFMode         .... Direct
   Integral package                     .... LIBINT
 Reset frequeny         DirectResetFreq ....    20
 Integral Threshold     Thresh          ....  1.000e-10 Eh
 Primitive CutOff       TCut            ....  1.000e-11 Eh

Convergence Tolerance:
 Convergence Check Mode ConvCheckMode   .... All-Criteria
 Convergence forced     ConvForced      .... 0
 Energy Change          TolE            ....  1.000e-06 Eh
 Max Density Change     TolMaxP         ....  1.000e-05
 RMS Density Change     TolRMSP         ....  1.000e-06
 DIIS Error             TolErr          ....  1.000e-06


Diagonalization of the overlap matrix:
Smallest eigenvalue                        ... 4.827e-02
Time for diagonalization                   ...    0.001 sec
Threshold for overlap eigenvalues          ... 1.000e-08
Number of eigenvalues below threshold      ... 0
Time for construction of square roots      ...    0.005 sec
Total time needed                          ...    0.006 sec

-------------------
DFT GRID GENERATION
-------------------

General Integration Accuracy     IntAcc      ...  4.340
Radial Grid Type                 RadialGrid  ... Gauss-Chebyshev
Angular Grid (max. acc.)         AngularGrid ... Lebedev-110
Angular grid pruning method      GridPruning ... 3 (G Style)
Weight generation scheme         WeightScheme... Becke
Basis function cutoff            BFCut       ...    1.0000e-10
Integration weight cutoff        WCut        ...    1.0000e-14
Grids for H and He will be reduced by one unit

# of grid points (after initial pruning)     ...   4900 (   0.0 sec)
# of grid points (after weights+screening)   ...   4884 (   0.0 sec)
nearest neighbour list constructed           ...    0.0 sec
Grid point re-assignment to atoms done       ...    0.0 sec
Grid point division into batches done        ...    0.0 sec
Reduced shell lists constructed in    0.0 sec

Total number of grid points                  ...     4884
Total number of batches                      ...       78
Average number of points per batch           ...       62
Average number of grid points per atom       ...     1221
Average number of shells per batch           ...    11.41 (71.28%)
Average number of basis functions per batch  ...    22.42 (70.06%)
Average number of large shells per batch     ...     9.53 (83.57%)
Average number of large basis fcns per batch ...    18.82 (83.96%)
Maximum spatial batch extension              ...  21.28, 18.49, 31.36 au
Average spatial batch extension              ...   6.31,  5.28,  6.21 au

Time for grid setup =    0.032 sec

------------------------------
INITIAL GUESS: MODEL POTENTIAL
------------------------------
Loading Hartree-Fock densities                     ... done
Calculating cut-offs                               ... done
Setting up the integral package                    ... done
Initializing the effective Hamiltonian             ... done
Starting the Coulomb interaction                   ... done (   0.0 sec)
Reading the grid                                   ... done
Mapping shells                                     ... done
Starting the XC term evaluation                    ... done (   0.0 sec)
  promolecular density results
     # of electrons  =     13.999501350
     EX              =    -10.514243200
     EC              =     -0.379511157
     EX+EC           =    -10.893754357
Transforming the Hamiltonian                       ... done (   0.0 sec)
Diagonalizing the Hamiltonian                      ... done (   0.0 sec)
Back transforming the eigenvectors                 ... done (   0.0 sec)
Now organizing SCF variables                       ... done
                      ------------------
                      INITIAL GUESS DONE (   0.2 sec)
                      ------------------
--------------
SCF ITERATIONS
--------------
ITER       Energy         Delta-E        Max-DP      RMS-DP      [F,P]   Gradient Norm
               ***  Starting incremental Fock matrix formation  ***
                             ****Resetting KDIIS****
                             ****Turning on KDIIS(Cayley)****
  0    -76.8001434541   0.000000000000 0.00696074  0.00055553  0.0287281   0.025843848
  1    -76.8012315221  -0.001088068008 0.00918060  0.00086993  0.0256685   0.023196486
  2    -76.8027617003  -0.001530178118 0.01607620  0.00153113  0.0209912   0.018678017
  3    -76.8046250520  -0.001863351709 0.02451651  0.00235380  0.0126648   0.011224635
  4    -76.8056853836  -0.001060331630 0.00010336  0.00001439  0.0000409   0.000035367
                          ***Energy convergence achieved***
  5    -76.8056854222  -0.000000038572 0.00003564  0.00000463  0.0000179   0.000008770

            ***Energy convergence in two consecutive cycles with***
                    ***'reasonable' density convergence***
                       *** signaling convergence ***

                    *** KDIIS BlockDiag ( 0.000 sec) ***

               *****************************************************
               *                     SUCCESS                       *
               *           SCF CONVERGED AFTER   6 CYCLES          *
               *****************************************************

Setting up the final grid:

General Integration Accuracy     IntAcc      ...  4.670
Radial Grid Type                 RadialGrid  ... Gauss-Chebyshev
Angular Grid (max. acc.)         AngularGrid ... Lebedev-302
Angular grid pruning method      GridPruning ... 3 (G Style)
Weight generation scheme         WeightScheme... Becke
Basis function cutoff            BFCut       ...    1.0000e-10
Integration weight cutoff        WCut        ...    1.0000e-14
Grids for H and He will be reduced by one unit

# of grid points (after initial pruning)     ...  19212 (   0.0 sec)
# of grid points (after weights+screening)   ...  19088 (   0.0 sec)
nearest neighbour list constructed           ...    0.0 sec
Grid point re-assignment to atoms done       ...    0.0 sec
Grid point division into batches done        ...    0.1 sec
Reduced shell lists constructed in    0.1 sec

Total number of grid points                  ...    19088
Total number of batches                      ...      300
Average number of points per batch           ...       63
Average number of grid points per atom       ...     4772
Average number of shells per batch           ...     9.96 (62.25%)
Average number of basis functions per batch  ...    19.49 (60.90%)
Average number of large shells per batch     ...     8.45 (84.79%)
Average number of large basis fcns per batch ...    16.68 (85.58%)
Maximum spatial batch extension              ...  19.00, 25.45, 24.37 au
Average spatial batch extension              ...   3.88,  3.87,  4.19 au

Final grid set up in    0.2 sec
Final integration                            ... done (   0.1 sec)
Change in XC energy                          ...     0.000320547
Integrated number of electrons               ...    14.000004381
Previous integrated no of electrons          ...    14.003274195

----------------
TOTAL SCF ENERGY
----------------

Total Energy       :          -76.80536488 Eh           -2089.98023 eV

Components:
Nuclear Repulsion  :           11.59836040 Eh             315.60743 eV
Electronic Energy  :          -88.40372528 Eh           -2405.58766 eV
One Electron Energy:         -125.04599722 Eh           -3402.67457 eV
Two Electron Energy:           36.64227193 Eh             997.08691 eV

Virial components:
Potential Energy   :         -153.27212636 Eh           -4170.74659 eV
Kinetic Energy     :           76.46676148 Eh            2080.76636 eV
Virial Ratio       :            2.00442811


DFT components:
N(Alpha)           :        7.000002190367 electrons
N(Beta)            :        7.000002190367 electrons
N(Total)           :       14.000004380734 electrons
E(XC)              :       -7.591016338576 Eh       

---------------
SCF CONVERGENCE
---------------

  Last Energy change         ...   -4.1886e-09  Tolerance :   1.0000e-06
  Last MAX-Density change    ...    1.9538e-05  Tolerance :   1.0000e-05
  Last RMS-Density change    ...    1.2357e-06  Tolerance :   1.0000e-06
  Last DIIS Error            ...    1.1135e-05  Tolerance :   1.0000e-06

             **** THE GBW FILE WAS UPDATED (Scan_40.gbw) ****
             **** DENSITY FILE WAS UPDATED (Scan_40.scfp.tmp) ****
             **** ENERGY FILE WAS UPDATED (Scan_40.en.tmp) ****
----------------
ORBITAL ENERGIES
----------------

  NO   OCC          E(Eh)            E(eV) 
   0   2.0000     -10.397981      -282.9435 
   1   2.0000     -10.397931      -282.9421 
   2   2.0000      -0.744030       -20.2461 
   3   2.0000      -0.741257       -20.1706 
   4   2.0000      -0.406430       -11.0595 
   5   2.0000      -0.405553       -11.0357 
   6   2.0000      -0.230702        -6.2777 
   7   0.0000      -0.102064        -2.7773 
   8   0.0000      -0.034244        -0.9318 
   9   0.0000      -0.033109        -0.9009 
  10   0.0000       0.221254         6.0206 
  11   0.0000       0.223387         6.0787 
  12   0.0000       0.617538        16.8041 
  13   0.0000       0.649989        17.6871 
  14   0.0000       0.655527        17.8378 
  15   0.0000       0.656435        17.8625 
  16   0.0000       0.659270        17.9397 
  17   0.0000       0.675710        18.3870 
  18   0.0000       0.739691        20.1280 
  19   0.0000       0.759719        20.6730 
  20   0.0000       0.967974        26.3399 
  21   0.0000       0.980160        26.6715 
  22   0.0000       1.750407        47.6310 
  23   0.0000       1.750436        47.6318 
  24   0.0000       1.763761        47.9944 
  25   0.0000       1.764100        48.0036 
  26   0.0000       1.774854        48.2962 
  27   0.0000       1.775430        48.3119 
  28   0.0000       1.779710        48.4284 
  29   0.0000       1.780499        48.4499 
  30   0.0000       2.198143        59.8145 
  31   0.0000       2.205570        60.0166 

                    ********************************
                    * MULLIKEN POPULATION ANALYSIS *
                    ********************************

-----------------------
MULLIKEN ATOMIC CHARGES
-----------------------
   0 C :   -0.155437
   1 C :   -0.155369
   2 H :    0.155408
   3 H :    0.155398
Sum of atomic charges:    0.0000000

--------------------------------
MULLIKEN REDUCED ORBITAL CHARGES
--------------------------------
  0 C s       :     3.926688  s :     3.926688
      pz      :     0.000000  p :     2.213977
      px      :     1.029412
      py      :     1.184564
      dz2     :     0.003650  d :     0.014773
      dxz     :     0.000000
      dyz     :     0.000000
      dx2y2   :     0.005283
      dxy     :     0.005840
  1 C s       :     3.926687  s :     3.926687
      pz      :     0.000000  p :     2.213909
      px      :     1.029362
      py      :     1.184547
      dz2     :     0.003650  d :     0.014773
      dxz     :     0.000000
      dyz     :     0.000000
      dx2y2   :     0.005283
      dxy     :     0.005840
  2 H s       :     0.844592  s :     0.844592
  3 H s       :     0.844602  s :     0.844602


                     *******************************
                     * LOEWDIN POPULATION ANALYSIS *
                     *******************************

----------------------
LOEWDIN ATOMIC CHARGES
----------------------
   0 C :   -0.108645
   1 C :   -0.108580
   2 H :    0.108616
   3 H :    0.108609

-------------------------------
LOEWDIN REDUCED ORBITAL CHARGES
-------------------------------
  0 C s       :     3.759106  s :     3.759106
      pz      :     0.000000  p :     2.329397
      px      :     1.048627
      py      :     1.280769
      dz2     :     0.005018  d :     0.020142
      dxz     :     0.000000
      dyz     :     0.000000
      dx2y2   :     0.007174
      dxy     :     0.007951
  1 C s       :     3.759106  s :     3.759106
      pz      :     0.000000  p :     2.329332
      px      :     1.048577
      py      :     1.280755
      dz2     :     0.005018  d :     0.020142
      dxz     :     0.000000
      dyz     :     0.000000
      dx2y2   :     0.007174
      dxy     :     0.007951
  2 H s       :     0.891384  s :     0.891384
  3 H s       :     0.891391  s :     0.891391


                      *****************************
                      * MAYER POPULATION ANALYSIS *
                      *****************************

  NA   - Mulliken gross atomic population
  ZA   - Total nuclear charge
  QA   - Mulliken gross atomic charge
  VA   - Mayer's total valence
  BVA  - Mayer's bonded valence
  FA   - Mayer's free valence

  ATOM       NA         ZA         QA         VA         BVA        FA
  0 C      6.1554     6.0000    -0.1554     1.9046     1.9046     0.0000
  1 C      6.1554     6.0000    -0.1554     1.9046     1.9046    -0.0000
  2 H      0.8446     1.0000     0.1554     0.9057     0.9057     0.0000
  3 H      0.8446     1.0000     0.1554     0.9057     0.9057    -0.0000

  Mayer bond orders larger than 0.1
B(  0-C ,  1-C ) :   0.9989 B(  0-C ,  2-H ) :   0.9051 B(  1-C ,  3-H ) :   0.9051 


-------
TIMINGS
-------

Total SCF time: 0 days 0 hours 0 min 3 sec 

Total time                  ....       3.038 sec
Sum of individual times     ....       2.930 sec  ( 96.5%)

Fock matrix formation       ....       2.584 sec  ( 85.1%)
  XC integration            ....       0.505 sec  ( 19.5% of F)
    Basis function eval.    ....       0.141 sec  ( 28.0% of XC)
    Density eval.           ....       0.024 sec  (  4.7% of XC)
    XC-Functional eval.     ....       0.164 sec  ( 32.4% of XC)
    XC-Potential eval.      ....       0.015 sec  (  3.0% of XC)
Diagonalization             ....       0.016 sec  (  0.5%)
Density matrix formation    ....       0.000 sec  (  0.0%)
Population analysis         ....       0.010 sec  (  0.3%)
Initial guess               ....       0.136 sec  (  4.5%)
Orbital Transformation      ....       0.000 sec  (  0.0%)
Orbital Orthonormalization  ....       0.000 sec  (  0.0%)
DIIS solution               ....       0.000 sec  (  0.0%)
Grid generation             ....       0.184 sec  (  6.1%)


-------------------------------------------------------------------------------
                          DFT DISPERSION CORRECTION                            
                                                                               
                              DFTD3 V3.1  Rev 1                                
                              USING zero damping                               
-------------------------------------------------------------------------------
The omegaB97X-D3 functional is recognized. Fit by Chai et al.
Active option DFTDOPT                   ...         3   

molecular C6(AA) [au] = 276.848849 


            DFT-D V3
 parameters
 s6 scaling factor         :     1.0000 
 rs6 scaling factor        :     1.2810 
 s8 scaling factor         :     1.0000 
 rs8 scaling factor        :     1.0940 
 Damping factor alpha6     :    14.0000 
 Damping factor alpha8     :    16.0000 
 ad hoc parameters k1-k3   :    16.0000     1.3333    -4.0000 

 Edisp/kcal,au: -0.159088550348  -0.000253523716 
 E6   /kcal   :  -0.111427671 
 E8   /kcal   :  -0.047660879 
 % E8         :  29.958710922 

-------------------------   ----------------
Dispersion correction           -0.000253524
-------------------------   ----------------


-------------------------   --------------------
FINAL SINGLE POINT ENERGY       -76.805618403080
-------------------------   --------------------


                            ***************************************
                            *     ORCA property calculations      *
                            ***************************************

                                    ---------------------
                                    Active property flags
                                    ---------------------
   (+) Dipole Moment


------------------------------------------------------------------------------
                       ORCA ELECTRIC PROPERTIES CALCULATION
------------------------------------------------------------------------------

Dipole Moment Calculation                       ... on
Quadrupole Moment Calculation                   ... off
Polarizability Calculation                      ... off
GBWName                                         ... Scan_40.gbw
Electron density file                           ... Scan_40.scfp.tmp

-------------
DIPOLE MOMENT
-------------
                                X             Y             Z
Electronic contribution:      0.00025       0.00001      -0.00000
Nuclear contribution   :      0.00000      -0.00000       0.00000
                        -----------------------------------------
Total Dipole Moment    :      0.00025       0.00001       0.00000
                        -----------------------------------------
Magnitude (a.u.)       :      0.00025
Magnitude (Debye)      :      0.00065


Timings for individual modules:

Sum of individual times         ...        3.482 sec (=   0.058 min)
GTO integral calculation        ...        0.416 sec (=   0.007 min)  12.0 %
SCF iterations                  ...        3.065 sec (=   0.051 min)  88.0 %
                             ****ORCA TERMINATED NORMALLY****
TOTAL RUN TIME: 0 days 0 hours 0 minutes 3 seconds 863 msec
