
                                 *****************
                                 * O   R   C   A *
                                 *****************

           --- An Ab Initio, DFT and Semiempirical electronic structure package ---

                  #######################################################
                  #                        -***-                        #
                  #  Department of molecular theory and spectroscopy    #
                  #              Directorship: Frank Neese              #
                  # Max Planck Institute for Chemical Energy Conversion #
                  #                  D-45470 Muelheim/Ruhr              #
                  #                       Germany                       #
                  #                                                     #
                  #                  All rights reserved                #
                  #                        -***-                        #
                  #######################################################


                         Program Version 4.0.0.2 - RELEASE -


 With contributions from (in alphabetic order):
   Daniel Aravena         : Magnetic Properties
   Michael Atanasov       : Ab Initio Ligand Field Theory
   Ute Becker             : Parallelization
   Martin Brehm           : Molecular dynamics
   Dmytro Bykov           : SCF Hessian
   Vijay G. Chilkuri      : MRCI spin determinant printing
   Dipayan Datta          : RHF DLPNO-CCSD density
   Achintya Kumar Dutta   : EOM-CC, STEOM-CC
   Dmitry Ganyushin       : Spin-Orbit,Spin-Spin,Magnetic field MRCI
   Yang Guo               : DLPNO-NEVPT2, CIM, IAO-localization
   Andreas Hansen         : Spin unrestricted coupled pair/coupled cluster methods
   Lee Huntington         : MR-EOM, pCC
   Robert Izsak           : Overlap fitted RIJCOSX, COSX-SCS-MP3, EOM
   Christian Kollmar      : KDIIS, OOCD, Brueckner-CCSD(T), CCSD density
   Simone Kossmann        : Meta GGA functionals, TD-DFT gradient, OOMP2, MP2 Hessian
   Martin Krupicka        : AUTO-CI
   Dagmar Lenk            : GEPOL surface
   Dimitrios Liakos       : Extrapolation schemes; parallel MDCI
   Dimitrios Manganas     : ROCIS; embedding schemes
   Dimitrios Pantazis     : SARC Basis sets
   Taras Petrenko         : DFT Hessian,TD-DFT gradient, ASA, ECA, R-Raman, ABS, FL, XAS/XES, NRVS
   Peter Pinski           : DLPNO-MP2
   Christoph Reimann      : Effective Core Potentials
   Marius Retegan         : Local ZFS, SOC
   Christoph Riplinger    : Optimizer, TS searches, QM/MM, DLPNO-CCSD(T), (RO)-DLPNO pert. Triples
   Tobias Risthaus        : Range-separated hybrids, TD-DFT gradient, RPA, STAB
   Michael Roemelt        : Restricted open shell CIS
   Masaaki Saitow         : Open-shell DLPNO
   Barbara Sandhoefer     : DKH picture change effects
   Kantharuban Sivalingam : CASSCF convergence, NEVPT2, FIC-MRCI
   Georgi Stoychev        : AutoAux
   Boris Wezisla          : Elementary symmetry handling
   Frank Wennmohs         : Technical directorship


 We gratefully acknowledge several colleagues who have allowed us to
 interface, adapt or use parts of their codes:
   Stefan Grimme, W. Hujo, H. Kruse,             : VdW corrections, initial TS optimization,
                  C. Bannwarth                     DFT functionals, gCP, sTDA/sTD-DF
   Ed Valeev                                     : LibInt (2-el integral package), F12 methods
   Garnet Chan, S. Sharma, J. Yang, R. Olivares  : DMRG
   Ulf Ekstrom                                   : XCFun DFT Library
   Mihaly Kallay                                 : mrcc  (arbitrary order and MRCC methods)
   Jiri Pittner, Ondrej Demel                    : Mk-CCSD
   Frank Weinhold                                : gennbo (NPA and NBO analysis)
   Christopher J. Cramer and Donald G. Truhlar   : smd solvation model


 Your calculation uses the libint2 library for the computation of 2-el integrals
 For citations please refer to: http://libint.valeyev.net

 This ORCA versions uses:
   CBLAS   interface :  Fast vector & matrix operations
   LAPACKE interface :  Fast linear algebra routines
   SCALAPACK package :  Parallel linear algebra routines


Your calculation utilizes the atom-pairwise dispersion correction
with the zero-damping scheme (D30)
Cite in your paper:
S.Grimme, J.Antony, S.Ehrlich and H.Krieg, J.Chem.Phys., 132, (2010), 154104 
   

XCFun DFT library Copyright 2009-2010 Ulf Ekstrom and contributors.
See http://admol.org/xcfun for more information. This is free soft-
ware; see the source code for copying conditions. There is ABSOLUTELY
NO WARRANTY; not even for MERCHANTABILITY or FITNESS FOR A PARTICULAR
PURPOSE. For details see the documentation. Scientific users of this 
library should cite U. Ekstrom, L. Visscher, R. Bast, A. J. Thorvald-
sen and K. Ruud; J.Chem.Theor.Comp. 2010, DOI: 10.1021/ct100117s
XCFun Version 0.99 
Your calculation utilizes the basis: 6-31G(d)
   H-He, Li-Ne : W. J. Hehre, R. Ditchfield and J.A. Pople, J. Chem. Phys. 56, 2257 (1972).
                 Note: He and Ne are unpublished basis sets taken from the Gaussian program.
                 Note: Li and B from J. D. Dill and J. A. Pople, J. Chem. Phys. 62, 2921 (1975).
   Na - Ar     : M. M. Francl, W. J. Pietro, W. J. Hehre, J. S. Binkley, M. S. Gordon, 
                 D. J. DeFrees and J. A. Pople, J. Chem. Phys. 77, 3654 (1982).
   K - Zn      : V. A. Rassolov, J. A. Pople, M. A. Ratner, and T. L. Windus, J. Chem. Phys. 109, 1223 (1998).

================================================================================
                                        WARNINGS
                       Please study these warnings very carefully!
================================================================================

Warning: TCutStore was < 0. Adjusted to Thresh (uncritical)

INFO   : the flag for use of LIBINT has been found!

================================================================================
                                       INPUT FILE
================================================================================
NAME = initial43.inp
|  1> ! WB97X-D3 6-31G(d) VerySlowConv
|  2> ! KDIIS NOSOSCF
|  3> %base "Scan_43"
|  4> 
|  5> %scf
|  6> maxiter 999
|  7> end
|  8> 
|  9> * xyz 0 1
| 10> C         -4.659221001129    2.691297591838   -0.000000129588
| 11> C          0.134710184797    2.565942600494    0.000000087806
| 12> H         -4.190112847607    3.699513426851   -0.000000052869
| 13> H         -0.334396336062    1.557726380818    0.000000094650
| 14> **                         ****END OF INPUT****
================================================================================

                       ****************************
                       * Single Point Calculation *
                       ****************************

---------------------------------
CARTESIAN COORDINATES (ANGSTROEM)
---------------------------------
  C     -4.659221    2.691298   -0.000000
  C      0.134710    2.565943    0.000000
  H     -4.190113    3.699513   -0.000000
  H     -0.334396    1.557726    0.000000

----------------------------
CARTESIAN COORDINATES (A.U.)
----------------------------
  NO LB      ZA    FRAG     MASS         X           Y           Z
   0 C     6.0000    0    12.011   -8.804652    5.085815   -0.000000
   1 C     6.0000    0    12.011    0.254565    4.848929    0.000000
   2 H     1.0000    0     1.008   -7.918166    6.991067   -0.000000
   3 H     1.0000    0     1.008   -0.631917    2.943676    0.000000

--------------------------------
INTERNAL COORDINATES (ANGSTROEM)
--------------------------------
 C      0   0   0     0.000000000000     0.00000000     0.00000000
 C      1   0   0     4.795569839889     0.00000000     0.00000000
 H      1   2   0     1.112007926982    66.54599453     0.00000000
 H      2   1   3     1.112007586993    66.54607916   179.99999525

---------------------------
INTERNAL COORDINATES (A.U.)
---------------------------
 C      0   0   0     0.000000000000     0.00000000     0.00000000
 C      1   0   0     9.062313653482     0.00000000     0.00000000
 H      1   2   0     2.101390440746    66.54599453     0.00000000
 H      2   1   3     2.101389798260    66.54607916   179.99999525

---------------------
BASIS SET INFORMATION
---------------------
There are 2 groups of distinct atoms

 Group   1 Type C   : 10s4p1d contracted to 3s2p1d pattern {631/31/1}
 Group   2 Type H   : 4s contracted to 2s pattern {31}

Atom   0C    basis set group =>   1
Atom   1C    basis set group =>   1
Atom   2H    basis set group =>   2
Atom   3H    basis set group =>   2
------------------------------------------------------------------------------
                           ORCA GTO INTEGRAL CALCULATION
------------------------------------------------------------------------------

                         BASIS SET STATISTICS AND STARTUP INFO

 # of primitive gaussian shells          ...   38
 # of primitive gaussian functions       ...   62
 # of contracted shells                  ...   16
 # of contracted basis functions         ...   32
 Highest angular momentum                ...    2
 Maximum contraction depth               ...    6
 Integral package used                   ... LIBINT
 Integral threshhold            Thresh   ...  1.000e-10
 Primitive cut-off              TCut     ...  1.000e-11


------------------------------ INTEGRAL EVALUATION ----------------------------


 * One electron integrals 
 Pre-screening matrix                    ... done
 Shell pair data                         ... done (   0.000 sec)

-------------------------------------------------------------------------------
                                 ORCA SCF
-------------------------------------------------------------------------------

------------
SCF SETTINGS
------------
Hamiltonian:
 Density Functional     Method          .... DFT(GTOs)
 Exchange Functional    Exchange        .... WB97X-D3
 Correlation Functional Correlation     .... WB97X-D3
 Gradients option       PostSCFGGA      .... off
 Hybrid DFT is turned on
   Fraction HF Exchange ScalHFX         ....  0.195728
   Scaling of DF-GGA-X  ScalDFX         ....  0.000000
   Scaling of DF-GGA-C  ScalDFC         ....  1.000000
   Scaling of DF-LDA-C  ScalLDAC        ....  1.000000
   Perturbative correction              ....  0.000000
 Long-range corrected/Screened/Range-Separated Hybrid DFT is turned on
   Amount of maximum screened exact exchange              ....  0.804272
   Range separation parameter mu (erf(mu*r12)/r12)        ....  0.250000


General Settings:
 Integral files         IntName         .... Scan_43
 Hartree-Fock type      HFTyp           .... RHF
 Total Charge           Charge          ....    0
 Multiplicity           Mult            ....    1
 Number of Electrons    NEL             ....   14
 Basis Dimension        Dim             ....   32
 Nuclear Repulsion      ENuc            ....     11.2232973912 Eh

Convergence Acceleration:
 DIIS                   CNVDIIS         .... on
   Start iteration      DIISMaxIt       ....     0
   Startup error        DIISStart       ....  0.200000
   # of expansion vecs  DIISMaxEq       ....     5
   Bias factor          DIISBfac        ....   1.050
   Max. coefficient     DIISMaxC        ....  10.000
 Newton-Raphson         CNVNR           .... off
 SOSCF                  CNVSOSCF        .... off
 Level Shifting         CNVShift        .... off
 Zerner damping         CNVZerner       .... off
 Static damping         CNVDamp         .... off
 Fernandez-Rico         CNVRico         .... off

SCF Procedure:
 Maximum # iterations   MaxIter         ....   999
 SCF integral mode      SCFMode         .... Direct
   Integral package                     .... LIBINT
 Reset frequeny         DirectResetFreq ....    20
 Integral Threshold     Thresh          ....  1.000e-10 Eh
 Primitive CutOff       TCut            ....  1.000e-11 Eh

Convergence Tolerance:
 Convergence Check Mode ConvCheckMode   .... All-Criteria
 Convergence forced     ConvForced      .... 0
 Energy Change          TolE            ....  1.000e-06 Eh
 Max Density Change     TolMaxP         ....  1.000e-05
 RMS Density Change     TolRMSP         ....  1.000e-06
 DIIS Error             TolErr          ....  1.000e-06


Diagonalization of the overlap matrix:
Smallest eigenvalue                        ... 4.842e-02
Time for diagonalization                   ...    0.001 sec
Threshold for overlap eigenvalues          ... 1.000e-08
Number of eigenvalues below threshold      ... 0
Time for construction of square roots      ...    0.011 sec
Total time needed                          ...    0.012 sec

-------------------
DFT GRID GENERATION
-------------------

General Integration Accuracy     IntAcc      ...  4.340
Radial Grid Type                 RadialGrid  ... Gauss-Chebyshev
Angular Grid (max. acc.)         AngularGrid ... Lebedev-110
Angular grid pruning method      GridPruning ... 3 (G Style)
Weight generation scheme         WeightScheme... Becke
Basis function cutoff            BFCut       ...    1.0000e-10
Integration weight cutoff        WCut        ...    1.0000e-14
Grids for H and He will be reduced by one unit

# of grid points (after initial pruning)     ...   4900 (   0.0 sec)
# of grid points (after weights+screening)   ...   4882 (   0.0 sec)
nearest neighbour list constructed           ...    0.0 sec
Grid point re-assignment to atoms done       ...    0.0 sec
Grid point division into batches done        ...    0.0 sec
Reduced shell lists constructed in    0.1 sec

Total number of grid points                  ...     4882
Total number of batches                      ...       78
Average number of points per batch           ...       62
Average number of grid points per atom       ...     1220
Average number of shells per batch           ...    11.09 (69.30%)
Average number of basis functions per batch  ...    21.59 (67.48%)
Average number of large shells per batch     ...     8.92 (80.48%)
Average number of large basis fcns per batch ...    17.94 (83.06%)
Maximum spatial batch extension              ...  19.07, 18.49, 25.60 au
Average spatial batch extension              ...   6.13,  5.63,  6.16 au

Time for grid setup =    0.086 sec

------------------------------
INITIAL GUESS: MODEL POTENTIAL
------------------------------
Loading Hartree-Fock densities                     ... done
Calculating cut-offs                               ... done
Setting up the integral package                    ... done
Initializing the effective Hamiltonian             ... done
Starting the Coulomb interaction                   ... done (   0.0 sec)
Reading the grid                                   ... done
Mapping shells                                     ... done
Starting the XC term evaluation                    ... done (   0.0 sec)
  promolecular density results
     # of electrons  =     13.999578841
     EX              =    -10.514196761
     EC              =     -0.379471243
     EX+EC           =    -10.893668005
Transforming the Hamiltonian                       ... done (   0.0 sec)
Diagonalizing the Hamiltonian                      ... done (   0.0 sec)
Back transforming the eigenvectors                 ... done (   0.0 sec)
Now organizing SCF variables                       ... done
                      ------------------
                      INITIAL GUESS DONE (   0.5 sec)
                      ------------------
--------------
SCF ITERATIONS
--------------
ITER       Energy         Delta-E        Max-DP      RMS-DP      [F,P]   Gradient Norm
               ***  Starting incremental Fock matrix formation  ***
                             ****Resetting KDIIS****
                             ****Turning on KDIIS(Cayley)****
  0    -76.7927016159   0.000000000000 0.00724979  0.00057080  0.0287673   0.025957642
  1    -76.7938083368  -0.001106720989 0.00965224  0.00088642  0.0256409   0.023275344
  2    -76.7953413357  -0.001532998904 0.01686531  0.00155877  0.0209445   0.018740750
  3    -76.7972041008  -0.001862765064 0.02583119  0.00240323  0.0126320   0.011263634
  4    -76.7982643591  -0.001060258334 0.00018457  0.00001374  0.0000451   0.000045229
                          ***Energy convergence achieved***
  5    -76.7982643800  -0.000000020887 0.00010426  0.00000803  0.0000794   0.000049104

            ***Energy convergence in two consecutive cycles with***
                    ***'reasonable' density convergence***
                       *** signaling convergence ***

                    *** KDIIS BlockDiag ( 0.000 sec) ***

               *****************************************************
               *                     SUCCESS                       *
               *           SCF CONVERGED AFTER   6 CYCLES          *
               *****************************************************

Setting up the final grid:

General Integration Accuracy     IntAcc      ...  4.670
Radial Grid Type                 RadialGrid  ... Gauss-Chebyshev
Angular Grid (max. acc.)         AngularGrid ... Lebedev-302
Angular grid pruning method      GridPruning ... 3 (G Style)
Weight generation scheme         WeightScheme... Becke
Basis function cutoff            BFCut       ...    1.0000e-10
Integration weight cutoff        WCut        ...    1.0000e-14
Grids for H and He will be reduced by one unit

# of grid points (after initial pruning)     ...  19212 (   0.0 sec)
# of grid points (after weights+screening)   ...  19094 (   0.0 sec)
nearest neighbour list constructed           ...    0.0 sec
Grid point re-assignment to atoms done       ...    0.0 sec
Grid point division into batches done        ...    0.1 sec
Reduced shell lists constructed in    0.1 sec

Total number of grid points                  ...    19094
Total number of batches                      ...      300
Average number of points per batch           ...       63
Average number of grid points per atom       ...     4774
Average number of shells per batch           ...     9.74 (60.90%)
Average number of basis functions per batch  ...    19.01 (59.40%)
Average number of large shells per batch     ...     7.82 (80.26%)
Average number of large basis fcns per batch ...    15.55 (81.84%)
Maximum spatial batch extension              ...  18.36, 24.43, 32.81 au
Average spatial batch extension              ...   4.04,  3.87,  4.21 au

Final grid set up in    0.3 sec
Final integration                            ... done (   0.5 sec)
Change in XC energy                          ...     0.000333600
Integrated number of electrons               ...    14.000002487
Previous integrated no of electrons          ...    14.003448371

----------------
TOTAL SCF ENERGY
----------------

Total Energy       :          -76.79793081 Eh           -2089.77794 eV

Components:
Nuclear Repulsion  :           11.22329739 Eh             305.40145 eV
Electronic Energy  :          -88.02122820 Eh           -2395.17939 eV
One Electron Energy:         -124.30568741 Eh           -3382.52972 eV
Two Electron Energy:           36.28445921 Eh             987.35033 eV

Virial components:
Potential Energy   :         -153.28042183 Eh           -4170.97233 eV
Kinetic Energy     :           76.48249102 Eh            2081.19439 eV
Virial Ratio       :            2.00412434


DFT components:
N(Alpha)           :        7.000001243730 electrons
N(Beta)            :        7.000001243730 electrons
N(Total)           :       14.000002487459 electrons
E(XC)              :       -7.593258028080 Eh       

---------------
SCF CONVERGENCE
---------------

  Last Energy change         ...   -3.0458e-08  Tolerance :   1.0000e-06
  Last MAX-Density change    ...    5.8345e-05  Tolerance :   1.0000e-05
  Last RMS-Density change    ...    5.9638e-06  Tolerance :   1.0000e-06
  Last DIIS Error            ...    1.5873e-05  Tolerance :   1.0000e-06

             **** THE GBW FILE WAS UPDATED (Scan_43.gbw) ****
             **** DENSITY FILE WAS UPDATED (Scan_43.scfp.tmp) ****
             **** ENERGY FILE WAS UPDATED (Scan_43.en.tmp) ****
----------------
ORBITAL ENERGIES
----------------

  NO   OCC          E(Eh)            E(eV) 
   0   2.0000     -10.395963      -282.8885 
   1   2.0000     -10.395926      -282.8875 
   2   2.0000      -0.743037       -20.2191 
   3   2.0000      -0.741019       -20.1641 
   4   2.0000      -0.405413       -11.0319 
   5   2.0000      -0.405061       -11.0223 
   6   2.0000      -0.224464        -6.1080 
   7   0.0000      -0.106961        -2.9106 
   8   0.0000      -0.033279        -0.9056 
   9   0.0000      -0.032692        -0.8896 
  10   0.0000       0.221596         6.0299 
  11   0.0000       0.223031         6.0690 
  12   0.0000       0.630498        17.1567 
  13   0.0000       0.652329        17.7508 
  14   0.0000       0.655217        17.8294 
  15   0.0000       0.655465        17.8361 
  16   0.0000       0.659691        17.9511 
  17   0.0000       0.667222        18.1560 
  18   0.0000       0.743070        20.2200 
  19   0.0000       0.752442        20.4750 
  20   0.0000       0.969966        26.3941 
  21   0.0000       0.977800        26.6073 
  22   0.0000       1.751214        47.6529 
  23   0.0000       1.751235        47.6535 
  24   0.0000       1.764613        48.0176 
  25   0.0000       1.764879        48.0248 
  26   0.0000       1.775802        48.3220 
  27   0.0000       1.776281        48.3351 
  28   0.0000       1.780622        48.4532 
  29   0.0000       1.781293        48.4714 
  30   0.0000       2.200414        59.8763 
  31   0.0000       2.204441        59.9859 

                    ********************************
                    * MULLIKEN POPULATION ANALYSIS *
                    ********************************

-----------------------
MULLIKEN ATOMIC CHARGES
-----------------------
   0 C :   -0.152982
   1 C :   -0.153032
   2 H :    0.153004
   3 H :    0.153011
Sum of atomic charges:    0.0000000

--------------------------------
MULLIKEN REDUCED ORBITAL CHARGES
--------------------------------
  0 C s       :     3.926854  s :     3.926854
      pz      :     0.000000  p :     2.211362
      px      :     1.036142
      py      :     1.175220
      dz2     :     0.003651  d :     0.014767
      dxz     :     0.000000
      dyz     :     0.000000
      dx2y2   :     0.004706
      dxy     :     0.006409
  1 C s       :     3.926854  s :     3.926854
      pz      :     0.000000  p :     2.211411
      px      :     1.036178
      py      :     1.175233
      dz2     :     0.003651  d :     0.014767
      dxz     :     0.000000
      dyz     :     0.000000
      dx2y2   :     0.004706
      dxy     :     0.006409
  2 H s       :     0.846996  s :     0.846996
  3 H s       :     0.846989  s :     0.846989


                     *******************************
                     * LOEWDIN POPULATION ANALYSIS *
                     *******************************

----------------------
LOEWDIN ATOMIC CHARGES
----------------------
   0 C :   -0.107176
   1 C :   -0.107224
   2 H :    0.107198
   3 H :    0.107203

-------------------------------
LOEWDIN REDUCED ORBITAL CHARGES
-------------------------------
  0 C s       :     3.759244  s :     3.759244
      pz      :     0.000000  p :     2.327762
      px      :     1.057633
      py      :     1.270129
      dz2     :     0.005027  d :     0.020171
      dxz     :     0.000000
      dyz     :     0.000000
      dx2y2   :     0.006382
      dxy     :     0.008761
  1 C s       :     3.759244  s :     3.759244
      pz      :     0.000000  p :     2.327809
      px      :     1.057669
      py      :     1.270141
      dz2     :     0.005027  d :     0.020171
      dxz     :     0.000000
      dyz     :     0.000000
      dx2y2   :     0.006382
      dxy     :     0.008761
  2 H s       :     0.892802  s :     0.892802
  3 H s       :     0.892797  s :     0.892797


                      *****************************
                      * MAYER POPULATION ANALYSIS *
                      *****************************

  NA   - Mulliken gross atomic population
  ZA   - Total nuclear charge
  QA   - Mulliken gross atomic charge
  VA   - Mayer's total valence
  BVA  - Mayer's bonded valence
  FA   - Mayer's free valence

  ATOM       NA         ZA         QA         VA         BVA        FA
  0 C      6.1530     6.0000    -0.1530     1.9051     1.9051    -0.0000
  1 C      6.1530     6.0000    -0.1530     1.9051     1.9051     0.0000
  2 H      0.8470     1.0000     0.1530     0.9056     0.9056    -0.0000
  3 H      0.8470     1.0000     0.1530     0.9056     0.9056     0.0000

  Mayer bond orders larger than 0.1
B(  0-C ,  1-C ) :   0.9995 B(  0-C ,  2-H ) :   0.9053 B(  1-C ,  3-H ) :   0.9053 


-------
TIMINGS
-------

Total SCF time: 0 days 0 hours 0 min 8 sec 

Total time                  ....       8.424 sec
Sum of individual times     ....       8.094 sec  ( 96.1%)

Fock matrix formation       ....       7.114 sec  ( 84.5%)
  XC integration            ....       1.536 sec  ( 21.6% of F)
    Basis function eval.    ....       0.309 sec  ( 20.1% of XC)
    Density eval.           ....       0.051 sec  (  3.3% of XC)
    XC-Functional eval.     ....       0.333 sec  ( 21.7% of XC)
    XC-Potential eval.      ....       0.020 sec  (  1.3% of XC)
Diagonalization             ....       0.138 sec  (  1.6%)
Density matrix formation    ....       0.000 sec  (  0.0%)
Population analysis         ....       0.061 sec  (  0.7%)
Initial guess               ....       0.405 sec  (  4.8%)
Orbital Transformation      ....       0.000 sec  (  0.0%)
Orbital Orthonormalization  ....       0.000 sec  (  0.0%)
DIIS solution               ....       0.000 sec  (  0.0%)
Grid generation             ....       0.375 sec  (  4.5%)


-------------------------------------------------------------------------------
                          DFT DISPERSION CORRECTION                            
                                                                               
                              DFTD3 V3.1  Rev 1                                
                              USING zero damping                               
-------------------------------------------------------------------------------
The omegaB97X-D3 functional is recognized. Fit by Chai et al.
Active option DFTDOPT                   ...         3   

molecular C6(AA) [au] = 276.849926 


            DFT-D V3
 parameters
 s6 scaling factor         :     1.0000 
 rs6 scaling factor        :     1.2810 
 s8 scaling factor         :     1.0000 
 rs8 scaling factor        :     1.0940 
 Damping factor alpha6     :    14.0000 
 Damping factor alpha8     :    16.0000 
 ad hoc parameters k1-k3   :    16.0000     1.3333    -4.0000 

 Edisp/kcal,au: -0.113882302365  -0.000181482981 
 E6   /kcal   :  -0.085348975 
 E8   /kcal   :  -0.028533327 
 % E8         :  25.055102268 

-------------------------   ----------------
Dispersion correction           -0.000181483
-------------------------   ----------------


-------------------------   --------------------
FINAL SINGLE POINT ENERGY       -76.798112293330
-------------------------   --------------------


                            ***************************************
                            *     ORCA property calculations      *
                            ***************************************

                                    ---------------------
                                    Active property flags
                                    ---------------------
   (+) Dipole Moment


------------------------------------------------------------------------------
                       ORCA ELECTRIC PROPERTIES CALCULATION
------------------------------------------------------------------------------

Dipole Moment Calculation                       ... on
Quadrupole Moment Calculation                   ... off
Polarizability Calculation                      ... off
GBWName                                         ... Scan_43.gbw
Electron density file                           ... Scan_43.scfp.tmp

-------------
DIPOLE MOMENT
-------------
                                X             Y             Z
Electronic contribution:     -0.00020      -0.00000      -0.00000
Nuclear contribution   :      0.00000      -0.00000       0.00000
                        -----------------------------------------
Total Dipole Moment    :     -0.00020      -0.00000       0.00000
                        -----------------------------------------
Magnitude (a.u.)       :      0.00020
Magnitude (Debye)      :      0.00050


Timings for individual modules:

Sum of individual times         ...        9.719 sec (=   0.162 min)
GTO integral calculation        ...        1.005 sec (=   0.017 min)  10.3 %
SCF iterations                  ...        8.715 sec (=   0.145 min)  89.7 %
                             ****ORCA TERMINATED NORMALLY****
TOTAL RUN TIME: 0 days 0 hours 0 minutes 10 seconds 976 msec
