
                                 *****************
                                 * O   R   C   A *
                                 *****************

           --- An Ab Initio, DFT and Semiempirical electronic structure package ---

                  #######################################################
                  #                        -***-                        #
                  #  Department of molecular theory and spectroscopy    #
                  #              Directorship: Frank Neese              #
                  # Max Planck Institute for Chemical Energy Conversion #
                  #                  D-45470 Muelheim/Ruhr              #
                  #                       Germany                       #
                  #                                                     #
                  #                  All rights reserved                #
                  #                        -***-                        #
                  #######################################################


                         Program Version 4.0.0.2 - RELEASE -


 With contributions from (in alphabetic order):
   Daniel Aravena         : Magnetic Properties
   Michael Atanasov       : Ab Initio Ligand Field Theory
   Ute Becker             : Parallelization
   Martin Brehm           : Molecular dynamics
   Dmytro Bykov           : SCF Hessian
   Vijay G. Chilkuri      : MRCI spin determinant printing
   Dipayan Datta          : RHF DLPNO-CCSD density
   Achintya Kumar Dutta   : EOM-CC, STEOM-CC
   Dmitry Ganyushin       : Spin-Orbit,Spin-Spin,Magnetic field MRCI
   Yang Guo               : DLPNO-NEVPT2, CIM, IAO-localization
   Andreas Hansen         : Spin unrestricted coupled pair/coupled cluster methods
   Lee Huntington         : MR-EOM, pCC
   Robert Izsak           : Overlap fitted RIJCOSX, COSX-SCS-MP3, EOM
   Christian Kollmar      : KDIIS, OOCD, Brueckner-CCSD(T), CCSD density
   Simone Kossmann        : Meta GGA functionals, TD-DFT gradient, OOMP2, MP2 Hessian
   Martin Krupicka        : AUTO-CI
   Dagmar Lenk            : GEPOL surface
   Dimitrios Liakos       : Extrapolation schemes; parallel MDCI
   Dimitrios Manganas     : ROCIS; embedding schemes
   Dimitrios Pantazis     : SARC Basis sets
   Taras Petrenko         : DFT Hessian,TD-DFT gradient, ASA, ECA, R-Raman, ABS, FL, XAS/XES, NRVS
   Peter Pinski           : DLPNO-MP2
   Christoph Reimann      : Effective Core Potentials
   Marius Retegan         : Local ZFS, SOC
   Christoph Riplinger    : Optimizer, TS searches, QM/MM, DLPNO-CCSD(T), (RO)-DLPNO pert. Triples
   Tobias Risthaus        : Range-separated hybrids, TD-DFT gradient, RPA, STAB
   Michael Roemelt        : Restricted open shell CIS
   Masaaki Saitow         : Open-shell DLPNO
   Barbara Sandhoefer     : DKH picture change effects
   Kantharuban Sivalingam : CASSCF convergence, NEVPT2, FIC-MRCI
   Georgi Stoychev        : AutoAux
   Boris Wezisla          : Elementary symmetry handling
   Frank Wennmohs         : Technical directorship


 We gratefully acknowledge several colleagues who have allowed us to
 interface, adapt or use parts of their codes:
   Stefan Grimme, W. Hujo, H. Kruse,             : VdW corrections, initial TS optimization,
                  C. Bannwarth                     DFT functionals, gCP, sTDA/sTD-DF
   Ed Valeev                                     : LibInt (2-el integral package), F12 methods
   Garnet Chan, S. Sharma, J. Yang, R. Olivares  : DMRG
   Ulf Ekstrom                                   : XCFun DFT Library
   Mihaly Kallay                                 : mrcc  (arbitrary order and MRCC methods)
   Jiri Pittner, Ondrej Demel                    : Mk-CCSD
   Frank Weinhold                                : gennbo (NPA and NBO analysis)
   Christopher J. Cramer and Donald G. Truhlar   : smd solvation model


 Your calculation uses the libint2 library for the computation of 2-el integrals
 For citations please refer to: http://libint.valeyev.net

 This ORCA versions uses:
   CBLAS   interface :  Fast vector & matrix operations
   LAPACKE interface :  Fast linear algebra routines
   SCALAPACK package :  Parallel linear algebra routines


Your calculation utilizes the atom-pairwise dispersion correction
with the zero-damping scheme (D30)
Cite in your paper:
S.Grimme, J.Antony, S.Ehrlich and H.Krieg, J.Chem.Phys., 132, (2010), 154104 
   

XCFun DFT library Copyright 2009-2010 Ulf Ekstrom and contributors.
See http://admol.org/xcfun for more information. This is free soft-
ware; see the source code for copying conditions. There is ABSOLUTELY
NO WARRANTY; not even for MERCHANTABILITY or FITNESS FOR A PARTICULAR
PURPOSE. For details see the documentation. Scientific users of this 
library should cite U. Ekstrom, L. Visscher, R. Bast, A. J. Thorvald-
sen and K. Ruud; J.Chem.Theor.Comp. 2010, DOI: 10.1021/ct100117s
XCFun Version 0.99 
Your calculation utilizes the basis: 6-31G(d)
   H-He, Li-Ne : W. J. Hehre, R. Ditchfield and J.A. Pople, J. Chem. Phys. 56, 2257 (1972).
                 Note: He and Ne are unpublished basis sets taken from the Gaussian program.
                 Note: Li and B from J. D. Dill and J. A. Pople, J. Chem. Phys. 62, 2921 (1975).
   Na - Ar     : M. M. Francl, W. J. Pietro, W. J. Hehre, J. S. Binkley, M. S. Gordon, 
                 D. J. DeFrees and J. A. Pople, J. Chem. Phys. 77, 3654 (1982).
   K - Zn      : V. A. Rassolov, J. A. Pople, M. A. Ratner, and T. L. Windus, J. Chem. Phys. 109, 1223 (1998).

================================================================================
                                        WARNINGS
                       Please study these warnings very carefully!
================================================================================

Warning: TCutStore was < 0. Adjusted to Thresh (uncritical)

INFO   : the flag for use of LIBINT has been found!

================================================================================
                                       INPUT FILE
================================================================================
NAME = initial45.inp
|  1> ! WB97X-D3 6-31G(d) VerySlowConv
|  2> ! KDIIS NOSOSCF
|  3> %base "Scan_45"
|  4> 
|  5> %scf
|  6> maxiter 999
|  7> end
|  8> 
|  9> * xyz 0 1
| 10> C         -4.760801526511    2.717665078203    0.000000414340
| 11> C          0.236292181827    2.539574610742    0.000000640312
| 12> H         -4.279421533365    3.719932807042   -0.000000604889
| 13> H         -0.245089121946    1.537307504005   -0.000000449758
| 14> **                         ****END OF INPUT****
================================================================================

                       ****************************
                       * Single Point Calculation *
                       ****************************

---------------------------------
CARTESIAN COORDINATES (ANGSTROEM)
---------------------------------
  C     -4.760802    2.717665    0.000000
  C      0.236292    2.539575    0.000001
  H     -4.279422    3.719933   -0.000001
  H     -0.245089    1.537308   -0.000000

----------------------------
CARTESIAN COORDINATES (A.U.)
----------------------------
  NO LB      ZA    FRAG     MASS         X           Y           Z
   0 C     6.0000    0    12.011   -8.996611    5.135643    0.000001
   1 C     6.0000    0    12.011    0.446528    4.799101    0.000001
   2 H     1.0000    0     1.008   -8.086935    7.029654   -0.000001
   3 H     1.0000    0     1.008   -0.463151    2.905090   -0.000001

--------------------------------
INTERNAL COORDINATES (ANGSTROEM)
--------------------------------
 C      0   0   0     0.000000000000     0.00000000     0.00000000
 C      1   0   0     5.000266167367     0.00000000     0.00000000
 H      1   2   0     1.111875576706    66.38654246     0.00000000
 H      2   1   3     1.111875583359    66.38646770   180.00011863

---------------------------
INTERNAL COORDINATES (A.U.)
---------------------------
 C      0   0   0     0.000000000000     0.00000000     0.00000000
 C      1   0   0     9.449133653035     0.00000000     0.00000000
 H      1   2   0     2.101140334969    66.38654246     0.00000000
 H      2   1   3     2.101140347543    66.38646770   180.00011863

---------------------
BASIS SET INFORMATION
---------------------
There are 2 groups of distinct atoms

 Group   1 Type C   : 10s4p1d contracted to 3s2p1d pattern {631/31/1}
 Group   2 Type H   : 4s contracted to 2s pattern {31}

Atom   0C    basis set group =>   1
Atom   1C    basis set group =>   1
Atom   2H    basis set group =>   2
Atom   3H    basis set group =>   2
------------------------------------------------------------------------------
                           ORCA GTO INTEGRAL CALCULATION
------------------------------------------------------------------------------

                         BASIS SET STATISTICS AND STARTUP INFO

 # of primitive gaussian shells          ...   38
 # of primitive gaussian functions       ...   62
 # of contracted shells                  ...   16
 # of contracted basis functions         ...   32
 Highest angular momentum                ...    2
 Maximum contraction depth               ...    6
 Integral package used                   ... LIBINT
 Integral threshhold            Thresh   ...  1.000e-10
 Primitive cut-off              TCut     ...  1.000e-11


------------------------------ INTEGRAL EVALUATION ----------------------------


 * One electron integrals 
 Pre-screening matrix                    ... done
 Shell pair data                         ... done (   0.000 sec)

-------------------------------------------------------------------------------
                                 ORCA SCF
-------------------------------------------------------------------------------

------------
SCF SETTINGS
------------
Hamiltonian:
 Density Functional     Method          .... DFT(GTOs)
 Exchange Functional    Exchange        .... WB97X-D3
 Correlation Functional Correlation     .... WB97X-D3
 Gradients option       PostSCFGGA      .... off
 Hybrid DFT is turned on
   Fraction HF Exchange ScalHFX         ....  0.195728
   Scaling of DF-GGA-X  ScalDFX         ....  0.000000
   Scaling of DF-GGA-C  ScalDFC         ....  1.000000
   Scaling of DF-LDA-C  ScalLDAC        ....  1.000000
   Perturbative correction              ....  0.000000
 Long-range corrected/Screened/Range-Separated Hybrid DFT is turned on
   Amount of maximum screened exact exchange              ....  0.804272
   Range separation parameter mu (erf(mu*r12)/r12)        ....  0.250000


General Settings:
 Integral files         IntName         .... Scan_45
 Hartree-Fock type      HFTyp           .... RHF
 Total Charge           Charge          ....    0
 Multiplicity           Mult            ....    1
 Number of Electrons    NEL             ....   14
 Basis Dimension        Dim             ....   32
 Nuclear Repulsion      ENuc            ....     10.9969431280 Eh

Convergence Acceleration:
 DIIS                   CNVDIIS         .... on
   Start iteration      DIISMaxIt       ....     0
   Startup error        DIISStart       ....  0.200000
   # of expansion vecs  DIISMaxEq       ....     5
   Bias factor          DIISBfac        ....   1.050
   Max. coefficient     DIISMaxC        ....  10.000
 Newton-Raphson         CNVNR           .... off
 SOSCF                  CNVSOSCF        .... off
 Level Shifting         CNVShift        .... off
 Zerner damping         CNVZerner       .... off
 Static damping         CNVDamp         .... off
 Fernandez-Rico         CNVRico         .... off

SCF Procedure:
 Maximum # iterations   MaxIter         ....   999
 SCF integral mode      SCFMode         .... Direct
   Integral package                     .... LIBINT
 Reset frequeny         DirectResetFreq ....    20
 Integral Threshold     Thresh          ....  1.000e-10 Eh
 Primitive CutOff       TCut            ....  1.000e-11 Eh

Convergence Tolerance:
 Convergence Check Mode ConvCheckMode   .... All-Criteria
 Convergence forced     ConvForced      .... 0
 Energy Change          TolE            ....  1.000e-06 Eh
 Max Density Change     TolMaxP         ....  1.000e-05
 RMS Density Change     TolRMSP         ....  1.000e-06
 DIIS Error             TolErr          ....  1.000e-06


Diagonalization of the overlap matrix:
Smallest eigenvalue                        ... 4.850e-02
Time for diagonalization                   ...    0.001 sec
Threshold for overlap eigenvalues          ... 1.000e-08
Number of eigenvalues below threshold      ... 0
Time for construction of square roots      ...    0.007 sec
Total time needed                          ...    0.007 sec

-------------------
DFT GRID GENERATION
-------------------

General Integration Accuracy     IntAcc      ...  4.340
Radial Grid Type                 RadialGrid  ... Gauss-Chebyshev
Angular Grid (max. acc.)         AngularGrid ... Lebedev-110
Angular grid pruning method      GridPruning ... 3 (G Style)
Weight generation scheme         WeightScheme... Becke
Basis function cutoff            BFCut       ...    1.0000e-10
Integration weight cutoff        WCut        ...    1.0000e-14
Grids for H and He will be reduced by one unit

# of grid points (after initial pruning)     ...   4900 (   0.0 sec)
# of grid points (after weights+screening)   ...   4884 (   0.0 sec)
nearest neighbour list constructed           ...    0.0 sec
Grid point re-assignment to atoms done       ...    0.0 sec
Grid point division into batches done        ...    0.0 sec
Reduced shell lists constructed in    0.0 sec

Total number of grid points                  ...     4884
Total number of batches                      ...       78
Average number of points per batch           ...       62
Average number of grid points per atom       ...     1221
Average number of shells per batch           ...    11.09 (69.30%)
Average number of basis functions per batch  ...    21.59 (67.48%)
Average number of large shells per batch     ...     8.44 (76.14%)
Average number of large basis fcns per batch ...    16.85 (78.02%)
Maximum spatial batch extension              ...  19.49, 18.49, 25.60 au
Average spatial batch extension              ...   6.29,  5.71,  6.53 au

Time for grid setup =    0.032 sec

------------------------------
INITIAL GUESS: MODEL POTENTIAL
------------------------------
Loading Hartree-Fock densities                     ... done
Calculating cut-offs                               ... done
Setting up the integral package                    ... done
Initializing the effective Hamiltonian             ... done
Starting the Coulomb interaction                   ... done (   0.0 sec)
Reading the grid                                   ... done
Mapping shells                                     ... done
Starting the XC term evaluation                    ... done (   0.0 sec)
  promolecular density results
     # of electrons  =     13.999611375
     EX              =    -10.514208663
     EC              =     -0.379459602
     EX+EC           =    -10.893668265
Transforming the Hamiltonian                       ... done (   0.0 sec)
Diagonalizing the Hamiltonian                      ... done (   0.0 sec)
Back transforming the eigenvectors                 ... done (   0.0 sec)
Now organizing SCF variables                       ... done
                      ------------------
                      INITIAL GUESS DONE (   0.1 sec)
                      ------------------
--------------
SCF ITERATIONS
--------------
ITER       Energy         Delta-E        Max-DP      RMS-DP      [F,P]   Gradient Norm
               ***  Starting incremental Fock matrix formation  ***
                             ****Resetting KDIIS****
                             ****Turning on KDIIS(Cayley)****
  0    -76.7887998654   0.000000000000 0.00739524  0.00057914  0.0288901   0.026019300
  1    -76.7899180978  -0.001118232392 0.00988793  0.00089640  0.0257199   0.023319099
  2    -76.7914558852  -0.001537787348 0.01726259  0.00157608  0.0209973   0.018775802
  3    -76.7933228507  -0.001866965580 0.02646256  0.00243384  0.0126614   0.011285338
  4    -76.7943856956  -0.001062844819 0.00012464  0.00001582  0.0000440   0.000037514
                          ***Energy convergence achieved***
  5    -76.7943857408  -0.000000045286 0.00006072  0.00000546  0.0000190   0.000014082

            ***Energy convergence in two consecutive cycles with***
                    ***'reasonable' density convergence***
                       *** signaling convergence ***

                    *** KDIIS BlockDiag ( 0.000 sec) ***

               *****************************************************
               *                     SUCCESS                       *
               *           SCF CONVERGED AFTER   6 CYCLES          *
               *****************************************************

Setting up the final grid:

General Integration Accuracy     IntAcc      ...  4.670
Radial Grid Type                 RadialGrid  ... Gauss-Chebyshev
Angular Grid (max. acc.)         AngularGrid ... Lebedev-302
Angular grid pruning method      GridPruning ... 3 (G Style)
Weight generation scheme         WeightScheme... Becke
Basis function cutoff            BFCut       ...    1.0000e-10
Integration weight cutoff        WCut        ...    1.0000e-14
Grids for H and He will be reduced by one unit

# of grid points (after initial pruning)     ...  19212 (   0.0 sec)
# of grid points (after weights+screening)   ...  19098 (   0.0 sec)
nearest neighbour list constructed           ...    0.0 sec
Grid point re-assignment to atoms done       ...    0.0 sec
Grid point division into batches done        ...    0.1 sec
Reduced shell lists constructed in    0.1 sec

Total number of grid points                  ...    19098
Total number of batches                      ...      300
Average number of points per batch           ...       63
Average number of grid points per atom       ...     4774
Average number of shells per batch           ...     9.69 (60.55%)
Average number of basis functions per batch  ...    18.88 (58.99%)
Average number of large shells per batch     ...     7.53 (77.78%)
Average number of large basis fcns per batch ...    15.05 (79.73%)
Maximum spatial batch extension              ...  18.31, 22.87, 28.59 au
Average spatial batch extension              ...   4.02,  3.96,  4.21 au

Final grid set up in    0.2 sec
Final integration                            ... done (   0.1 sec)
Change in XC energy                          ...     0.000326726
Integrated number of electrons               ...    14.000001072
Previous integrated no of electrons          ...    14.003460794

----------------
TOTAL SCF ENERGY
----------------

Total Energy       :          -76.79405902 Eh           -2089.67258 eV

Components:
Nuclear Repulsion  :           10.99694313 Eh             299.24204 eV
Electronic Energy  :          -87.79100214 Eh           -2388.91462 eV
One Electron Energy:         -123.85834026 Eh           -3370.35678 eV
Two Electron Energy:           36.06733812 Eh             981.44217 eV

Virial components:
Potential Energy   :         -153.28409446 Eh           -4171.07226 eV
Kinetic Energy     :           76.49003544 Eh            2081.39968 eV
Virial Ratio       :            2.00397468


DFT components:
N(Alpha)           :        7.000000535779 electrons
N(Beta)            :        7.000000535779 electrons
N(Total)           :       14.000001071559 electrons
E(XC)              :       -7.594359330233 Eh       

---------------
SCF CONVERGENCE
---------------

  Last Energy change         ...   -2.4770e-09  Tolerance :   1.0000e-06
  Last MAX-Density change    ...    5.4395e-05  Tolerance :   1.0000e-05
  Last RMS-Density change    ...    3.5734e-06  Tolerance :   1.0000e-06
  Last DIIS Error            ...    2.9258e-05  Tolerance :   1.0000e-06

             **** THE GBW FILE WAS UPDATED (Scan_45.gbw) ****
             **** DENSITY FILE WAS UPDATED (Scan_45.scfp.tmp) ****
             **** ENERGY FILE WAS UPDATED (Scan_45.en.tmp) ****
----------------
ORBITAL ENERGIES
----------------

  NO   OCC          E(Eh)            E(eV) 
   0   2.0000     -10.394999      -282.8623 
   1   2.0000     -10.394871      -282.8588 
   2   2.0000      -0.742553       -20.2059 
   3   2.0000      -0.740881       -20.1604 
   4   2.0000      -0.404919       -11.0184 
   5   2.0000      -0.404756       -11.0140 
   6   2.0000      -0.221025        -6.0144 
   7   0.0000      -0.109642        -2.9835 
   8   0.0000      -0.032796        -0.8924 
   9   0.0000      -0.032416        -0.8821 
  10   0.0000       0.221783         6.0350 
  11   0.0000       0.222885         6.0650 
  12   0.0000       0.636385        17.3169 
  13   0.0000       0.653342        17.7784 
  14   0.0000       0.653827        17.7915 
  15   0.0000       0.655216        17.8293 
  16   0.0000       0.660149        17.9636 
  17   0.0000       0.664127        18.0718 
  18   0.0000       0.744693        20.2641 
  19   0.0000       0.750382        20.4189 
  20   0.0000       0.971311        26.4307 
  21   0.0000       0.976570        26.5738 
  22   0.0000       1.751602        47.6635 
  23   0.0000       1.751678        47.6656 
  24   0.0000       1.765050        48.0295 
  25   0.0000       1.765295        48.0361 
  26   0.0000       1.776315        48.3360 
  27   0.0000       1.776746        48.3477 
  28   0.0000       1.781115        48.4666 
  29   0.0000       1.781729        48.4833 
  30   0.0000       2.201701        59.9113 
  31   0.0000       2.204206        59.9795 

                    ********************************
                    * MULLIKEN POPULATION ANALYSIS *
                    ********************************

-----------------------
MULLIKEN ATOMIC CHARGES
-----------------------
   0 C :   -0.151896
   1 C :   -0.151719
   2 H :    0.151820
   3 H :    0.151795
Sum of atomic charges:   -0.0000000

--------------------------------
MULLIKEN REDUCED ORBITAL CHARGES
--------------------------------
  0 C s       :     3.926879  s :     3.926879
      pz      :     0.000000  p :     2.210251
      px      :     1.039747
      py      :     1.170504
      dz2     :     0.003652  d :     0.014766
      dxz     :     0.000000
      dyz     :     0.000000
      dx2y2   :     0.004462
      dxy     :     0.006652
  1 C s       :     3.926878  s :     3.926878
      pz      :     0.000000  p :     2.210076
      px      :     1.039620
      py      :     1.170456
      dz2     :     0.003652  d :     0.014766
      dxz     :     0.000000
      dyz     :     0.000000
      dx2y2   :     0.004462
      dxy     :     0.006652
  2 H s       :     0.848180  s :     0.848180
  3 H s       :     0.848205  s :     0.848205


                     *******************************
                     * LOEWDIN POPULATION ANALYSIS *
                     *******************************

----------------------
LOEWDIN ATOMIC CHARGES
----------------------
   0 C :   -0.106595
   1 C :   -0.106426
   2 H :    0.106519
   3 H :    0.106502

-------------------------------
LOEWDIN REDUCED ORBITAL CHARGES
-------------------------------
  0 C s       :     3.759239  s :     3.759239
      pz      :     0.000000  p :     2.327168
      px      :     1.062183
      py      :     1.264985
      dz2     :     0.005033  d :     0.020188
      dxz     :     0.000000
      dyz     :     0.000000
      dx2y2   :     0.006047
      dxy     :     0.009109
  1 C s       :     3.759237  s :     3.759237
      pz      :     0.000000  p :     2.327001
      px      :     1.062057
      py      :     1.264943
      dz2     :     0.005033  d :     0.020188
      dxz     :     0.000000
      dyz     :     0.000000
      dx2y2   :     0.006047
      dxy     :     0.009109
  2 H s       :     0.893481  s :     0.893481
  3 H s       :     0.893498  s :     0.893498


                      *****************************
                      * MAYER POPULATION ANALYSIS *
                      *****************************

  NA   - Mulliken gross atomic population
  ZA   - Total nuclear charge
  QA   - Mulliken gross atomic charge
  VA   - Mayer's total valence
  BVA  - Mayer's bonded valence
  FA   - Mayer's free valence

  ATOM       NA         ZA         QA         VA         BVA        FA
  0 C      6.1519     6.0000    -0.1519     1.9054     1.9054     0.0000
  1 C      6.1517     6.0000    -0.1517     1.9054     1.9054    -0.0000
  2 H      0.8482     1.0000     0.1518     0.9056     0.9056    -0.0000
  3 H      0.8482     1.0000     0.1518     0.9056     0.9056    -0.0000

  Mayer bond orders larger than 0.1
B(  0-C ,  1-C ) :   0.9998 B(  0-C ,  2-H ) :   0.9055 B(  1-C ,  3-H ) :   0.9055 


-------
TIMINGS
-------

Total SCF time: 0 days 0 hours 0 min 2 sec 

Total time                  ....       2.573 sec
Sum of individual times     ....       2.437 sec  ( 94.7%)

Fock matrix formation       ....       2.110 sec  ( 82.0%)
  XC integration            ....       0.506 sec  ( 24.0% of F)
    Basis function eval.    ....       0.136 sec  ( 26.8% of XC)
    Density eval.           ....       0.022 sec  (  4.4% of XC)
    XC-Functional eval.     ....       0.155 sec  ( 30.6% of XC)
    XC-Potential eval.      ....       0.014 sec  (  2.7% of XC)
Diagonalization             ....       0.010 sec  (  0.4%)
Density matrix formation    ....       0.000 sec  (  0.0%)
Population analysis         ....       0.012 sec  (  0.5%)
Initial guess               ....       0.121 sec  (  4.7%)
Orbital Transformation      ....       0.000 sec  (  0.0%)
Orbital Orthonormalization  ....       0.000 sec  (  0.0%)
DIIS solution               ....       0.000 sec  (  0.0%)
Grid generation             ....       0.185 sec  (  7.2%)


-------------------------------------------------------------------------------
                          DFT DISPERSION CORRECTION                            
                                                                               
                              DFTD3 V3.1  Rev 1                                
                              USING zero damping                               
-------------------------------------------------------------------------------
The omegaB97X-D3 functional is recognized. Fit by Chai et al.
Active option DFTDOPT                   ...         3   

molecular C6(AA) [au] = 276.849702 


            DFT-D V3
 parameters
 s6 scaling factor         :     1.0000 
 rs6 scaling factor        :     1.2810 
 s8 scaling factor         :     1.0000 
 rs8 scaling factor        :     1.0940 
 Damping factor alpha6     :    14.0000 
 Damping factor alpha8     :    16.0000 
 ad hoc parameters k1-k3   :    16.0000     1.3333    -4.0000 

 Edisp/kcal,au: -0.089593325150  -0.000142776037 
 E6   /kcal   :  -0.069143824 
 E8   /kcal   :  -0.020449501 
 % E8         :  22.824804003 

-------------------------   ----------------
Dispersion correction           -0.000142776
-------------------------   ----------------


-------------------------   --------------------
FINAL SINGLE POINT ENERGY       -76.794201792913
-------------------------   --------------------


                            ***************************************
                            *     ORCA property calculations      *
                            ***************************************

                                    ---------------------
                                    Active property flags
                                    ---------------------
   (+) Dipole Moment


------------------------------------------------------------------------------
                       ORCA ELECTRIC PROPERTIES CALCULATION
------------------------------------------------------------------------------

Dipole Moment Calculation                       ... on
Quadrupole Moment Calculation                   ... off
Polarizability Calculation                      ... off
GBWName                                         ... Scan_45.gbw
Electron density file                           ... Scan_45.scfp.tmp

-------------
DIPOLE MOMENT
-------------
                                X             Y             Z
Electronic contribution:      0.00073       0.00001       0.00000
Nuclear contribution   :     -0.00000       0.00000      -0.00000
                        -----------------------------------------
Total Dipole Moment    :      0.00073       0.00001      -0.00000
                        -----------------------------------------
Magnitude (a.u.)       :      0.00073
Magnitude (Debye)      :      0.00186


Timings for individual modules:

Sum of individual times         ...        2.923 sec (=   0.049 min)
GTO integral calculation        ...        0.327 sec (=   0.005 min)  11.2 %
SCF iterations                  ...        2.596 sec (=   0.043 min)  88.8 %
                             ****ORCA TERMINATED NORMALLY****
TOTAL RUN TIME: 0 days 0 hours 0 minutes 3 seconds 255 msec
