
                                 *****************
                                 * O   R   C   A *
                                 *****************

           --- An Ab Initio, DFT and Semiempirical electronic structure package ---

                  #######################################################
                  #                        -***-                        #
                  #  Department of molecular theory and spectroscopy    #
                  #              Directorship: Frank Neese              #
                  # Max Planck Institute for Chemical Energy Conversion #
                  #                  D-45470 Muelheim/Ruhr              #
                  #                       Germany                       #
                  #                                                     #
                  #                  All rights reserved                #
                  #                        -***-                        #
                  #######################################################


                         Program Version 4.0.0.2 - RELEASE -


 With contributions from (in alphabetic order):
   Daniel Aravena         : Magnetic Properties
   Michael Atanasov       : Ab Initio Ligand Field Theory
   Ute Becker             : Parallelization
   Martin Brehm           : Molecular dynamics
   Dmytro Bykov           : SCF Hessian
   Vijay G. Chilkuri      : MRCI spin determinant printing
   Dipayan Datta          : RHF DLPNO-CCSD density
   Achintya Kumar Dutta   : EOM-CC, STEOM-CC
   Dmitry Ganyushin       : Spin-Orbit,Spin-Spin,Magnetic field MRCI
   Yang Guo               : DLPNO-NEVPT2, CIM, IAO-localization
   Andreas Hansen         : Spin unrestricted coupled pair/coupled cluster methods
   Lee Huntington         : MR-EOM, pCC
   Robert Izsak           : Overlap fitted RIJCOSX, COSX-SCS-MP3, EOM
   Christian Kollmar      : KDIIS, OOCD, Brueckner-CCSD(T), CCSD density
   Simone Kossmann        : Meta GGA functionals, TD-DFT gradient, OOMP2, MP2 Hessian
   Martin Krupicka        : AUTO-CI
   Dagmar Lenk            : GEPOL surface
   Dimitrios Liakos       : Extrapolation schemes; parallel MDCI
   Dimitrios Manganas     : ROCIS; embedding schemes
   Dimitrios Pantazis     : SARC Basis sets
   Taras Petrenko         : DFT Hessian,TD-DFT gradient, ASA, ECA, R-Raman, ABS, FL, XAS/XES, NRVS
   Peter Pinski           : DLPNO-MP2
   Christoph Reimann      : Effective Core Potentials
   Marius Retegan         : Local ZFS, SOC
   Christoph Riplinger    : Optimizer, TS searches, QM/MM, DLPNO-CCSD(T), (RO)-DLPNO pert. Triples
   Tobias Risthaus        : Range-separated hybrids, TD-DFT gradient, RPA, STAB
   Michael Roemelt        : Restricted open shell CIS
   Masaaki Saitow         : Open-shell DLPNO
   Barbara Sandhoefer     : DKH picture change effects
   Kantharuban Sivalingam : CASSCF convergence, NEVPT2, FIC-MRCI
   Georgi Stoychev        : AutoAux
   Boris Wezisla          : Elementary symmetry handling
   Frank Wennmohs         : Technical directorship


 We gratefully acknowledge several colleagues who have allowed us to
 interface, adapt or use parts of their codes:
   Stefan Grimme, W. Hujo, H. Kruse,             : VdW corrections, initial TS optimization,
                  C. Bannwarth                     DFT functionals, gCP, sTDA/sTD-DF
   Ed Valeev                                     : LibInt (2-el integral package), F12 methods
   Garnet Chan, S. Sharma, J. Yang, R. Olivares  : DMRG
   Ulf Ekstrom                                   : XCFun DFT Library
   Mihaly Kallay                                 : mrcc  (arbitrary order and MRCC methods)
   Jiri Pittner, Ondrej Demel                    : Mk-CCSD
   Frank Weinhold                                : gennbo (NPA and NBO analysis)
   Christopher J. Cramer and Donald G. Truhlar   : smd solvation model


 Your calculation uses the libint2 library for the computation of 2-el integrals
 For citations please refer to: http://libint.valeyev.net

 This ORCA versions uses:
   CBLAS   interface :  Fast vector & matrix operations
   LAPACKE interface :  Fast linear algebra routines
   SCALAPACK package :  Parallel linear algebra routines


Your calculation utilizes the atom-pairwise dispersion correction
with the zero-damping scheme (D30)
Cite in your paper:
S.Grimme, J.Antony, S.Ehrlich and H.Krieg, J.Chem.Phys., 132, (2010), 154104 
   

XCFun DFT library Copyright 2009-2010 Ulf Ekstrom and contributors.
See http://admol.org/xcfun for more information. This is free soft-
ware; see the source code for copying conditions. There is ABSOLUTELY
NO WARRANTY; not even for MERCHANTABILITY or FITNESS FOR A PARTICULAR
PURPOSE. For details see the documentation. Scientific users of this 
library should cite U. Ekstrom, L. Visscher, R. Bast, A. J. Thorvald-
sen and K. Ruud; J.Chem.Theor.Comp. 2010, DOI: 10.1021/ct100117s
XCFun Version 0.99 
Your calculation utilizes the basis: 6-31G(d)
   H-He, Li-Ne : W. J. Hehre, R. Ditchfield and J.A. Pople, J. Chem. Phys. 56, 2257 (1972).
                 Note: He and Ne are unpublished basis sets taken from the Gaussian program.
                 Note: Li and B from J. D. Dill and J. A. Pople, J. Chem. Phys. 62, 2921 (1975).
   Na - Ar     : M. M. Francl, W. J. Pietro, W. J. Hehre, J. S. Binkley, M. S. Gordon, 
                 D. J. DeFrees and J. A. Pople, J. Chem. Phys. 77, 3654 (1982).
   K - Zn      : V. A. Rassolov, J. A. Pople, M. A. Ratner, and T. L. Windus, J. Chem. Phys. 109, 1223 (1998).

================================================================================
                                        WARNINGS
                       Please study these warnings very carefully!
================================================================================

Warning: TCutStore was < 0. Adjusted to Thresh (uncritical)

INFO   : the flag for use of LIBINT has been found!

================================================================================
                                       INPUT FILE
================================================================================
NAME = initial6.inp
|  1> ! WB97X-D3 6-31G(d) VerySlowConv
|  2> ! KDIIS NOSOSCF
|  3> %base "Scan_6"
|  4> 
|  5> %scf
|  6> maxiter 999
|  7> end
|  8> 
|  9> * xyz 0 1
| 10> C         -2.834928124607    2.625590033370    0.000000000000
| 11> C         -1.689581875392    2.631649966630   -0.000000000000
| 12> H         -3.886541855255    2.620027753773    0.000000000000
| 13> H         -0.637968144747    2.637212246227   -0.000000000000
| 14> **                         ****END OF INPUT****
================================================================================

                       ****************************
                       * Single Point Calculation *
                       ****************************

---------------------------------
CARTESIAN COORDINATES (ANGSTROEM)
---------------------------------
  C     -2.834928    2.625590    0.000000
  C     -1.689582    2.631650   -0.000000
  H     -3.886542    2.620028    0.000000
  H     -0.637968    2.637212   -0.000000

----------------------------
CARTESIAN COORDINATES (A.U.)
----------------------------
  NO LB      ZA    FRAG     MASS         X           Y           Z
   0 C     6.0000    0    12.011   -5.357238    4.961646    0.000000
   1 C     6.0000    0    12.011   -3.192847    4.973098   -0.000000
   2 H     1.0000    0     1.008   -7.344500    4.951135    0.000000
   3 H     1.0000    0     1.008   -1.205585    4.983609   -0.000000

--------------------------------
INTERNAL COORDINATES (ANGSTROEM)
--------------------------------
 C      0   0   0     0.000000000000     0.00000000     0.00000000
 C      1   0   0     1.145362280408     0.00000000     0.00000000
 H      1   2   0     1.051628440773   179.99990614     0.00000000
 H      2   1   3     1.051628440770   179.99990615   180.00000000

---------------------------
INTERNAL COORDINATES (A.U.)
---------------------------
 C      0   0   0     0.000000000000     0.00000000     0.00000000
 C      1   0   0     2.164421034095     0.00000000     0.00000000
 H      1   2   0     1.987289747703   179.99990614     0.00000000
 H      2   1   3     1.987289747697   179.99990615   180.00000000

---------------------
BASIS SET INFORMATION
---------------------
There are 2 groups of distinct atoms

 Group   1 Type C   : 10s4p1d contracted to 3s2p1d pattern {631/31/1}
 Group   2 Type H   : 4s contracted to 2s pattern {31}

Atom   0C    basis set group =>   1
Atom   1C    basis set group =>   1
Atom   2H    basis set group =>   2
Atom   3H    basis set group =>   2
------------------------------------------------------------------------------
                           ORCA GTO INTEGRAL CALCULATION
------------------------------------------------------------------------------

                         BASIS SET STATISTICS AND STARTUP INFO

 # of primitive gaussian shells          ...   38
 # of primitive gaussian functions       ...   62
 # of contracted shells                  ...   16
 # of contracted basis functions         ...   32
 Highest angular momentum                ...    2
 Maximum contraction depth               ...    6
 Integral package used                   ... LIBINT
 Integral threshhold            Thresh   ...  1.000e-10
 Primitive cut-off              TCut     ...  1.000e-11


------------------------------ INTEGRAL EVALUATION ----------------------------


 * One electron integrals 
 Pre-screening matrix                    ... done
 Shell pair data                         ... done (   0.000 sec)

-------------------------------------------------------------------------------
                                 ORCA SCF
-------------------------------------------------------------------------------

------------
SCF SETTINGS
------------
Hamiltonian:
 Density Functional     Method          .... DFT(GTOs)
 Exchange Functional    Exchange        .... WB97X-D3
 Correlation Functional Correlation     .... WB97X-D3
 Gradients option       PostSCFGGA      .... off
 Hybrid DFT is turned on
   Fraction HF Exchange ScalHFX         ....  0.195728
   Scaling of DF-GGA-X  ScalDFX         ....  0.000000
   Scaling of DF-GGA-C  ScalDFC         ....  1.000000
   Scaling of DF-LDA-C  ScalLDAC        ....  1.000000
   Perturbative correction              ....  0.000000
 Long-range corrected/Screened/Range-Separated Hybrid DFT is turned on
   Amount of maximum screened exact exchange              ....  0.804272
   Range separation parameter mu (erf(mu*r12)/r12)        ....  0.250000


General Settings:
 Integral files         IntName         .... Scan_6
 Hartree-Fock type      HFTyp           .... RHF
 Total Charge           Charge          ....    0
 Multiplicity           Mult            ....    1
 Number of Electrons    NEL             ....   14
 Basis Dimension        Dim             ....   32
 Nuclear Repulsion      ENuc            ....     25.7242657728 Eh

Convergence Acceleration:
 DIIS                   CNVDIIS         .... on
   Start iteration      DIISMaxIt       ....     0
   Startup error        DIISStart       ....  0.200000
   # of expansion vecs  DIISMaxEq       ....     5
   Bias factor          DIISBfac        ....   1.050
   Max. coefficient     DIISMaxC        ....  10.000
 Newton-Raphson         CNVNR           .... off
 SOSCF                  CNVSOSCF        .... off
 Level Shifting         CNVShift        .... off
 Zerner damping         CNVZerner       .... off
 Static damping         CNVDamp         .... off
 Fernandez-Rico         CNVRico         .... off

SCF Procedure:
 Maximum # iterations   MaxIter         ....   999
 SCF integral mode      SCFMode         .... Direct
   Integral package                     .... LIBINT
 Reset frequeny         DirectResetFreq ....    20
 Integral Threshold     Thresh          ....  1.000e-10 Eh
 Primitive CutOff       TCut            ....  1.000e-11 Eh

Convergence Tolerance:
 Convergence Check Mode ConvCheckMode   .... All-Criteria
 Convergence forced     ConvForced      .... 0
 Energy Change          TolE            ....  1.000e-06 Eh
 Max Density Change     TolMaxP         ....  1.000e-05
 RMS Density Change     TolRMSP         ....  1.000e-06
 DIIS Error             TolErr          ....  1.000e-06


Diagonalization of the overlap matrix:
Smallest eigenvalue                        ... 7.412e-04
Time for diagonalization                   ...    0.001 sec
Threshold for overlap eigenvalues          ... 1.000e-08
Number of eigenvalues below threshold      ... 0
Time for construction of square roots      ...    0.005 sec
Total time needed                          ...    0.006 sec

-------------------
DFT GRID GENERATION
-------------------

General Integration Accuracy     IntAcc      ...  4.340
Radial Grid Type                 RadialGrid  ... Gauss-Chebyshev
Angular Grid (max. acc.)         AngularGrid ... Lebedev-110
Angular grid pruning method      GridPruning ... 3 (G Style)
Weight generation scheme         WeightScheme... Becke
Basis function cutoff            BFCut       ...    1.0000e-10
Integration weight cutoff        WCut        ...    1.0000e-14
Grids for H and He will be reduced by one unit

# of grid points (after initial pruning)     ...   4900 (   0.0 sec)
# of grid points (after weights+screening)   ...   4822 (   0.0 sec)
nearest neighbour list constructed           ...    0.0 sec
Grid point re-assignment to atoms done       ...    0.0 sec
Grid point division into batches done        ...    0.0 sec
Reduced shell lists constructed in    0.0 sec

Total number of grid points                  ...     4822
Total number of batches                      ...       78
Average number of points per batch           ...       61
Average number of grid points per atom       ...     1206
Average number of shells per batch           ...    13.92 (87.03%)
Average number of basis functions per batch  ...    28.51 (89.08%)
Average number of large shells per batch     ...    13.09 (94.00%)
Average number of large basis fcns per batch ...    27.27 (95.65%)
Maximum spatial batch extension              ...  18.15, 25.61, 32.37 au
Average spatial batch extension              ...   4.04,  6.79,  7.43 au

Time for grid setup =    0.031 sec

------------------------------
INITIAL GUESS: MODEL POTENTIAL
------------------------------
Loading Hartree-Fock densities                     ... done
Calculating cut-offs                               ... done
Setting up the integral package                    ... done
Initializing the effective Hamiltonian             ... done
Starting the Coulomb interaction                   ... done (   0.0 sec)
Reading the grid                                   ... done
Mapping shells                                     ... done
Starting the XC term evaluation                    ... done (   0.0 sec)
  promolecular density results
     # of electrons  =     14.000904967
     EX              =    -10.753350516
     EC              =     -0.423686837
     EX+EC           =    -11.177037352
Transforming the Hamiltonian                       ... done (   0.0 sec)
Diagonalizing the Hamiltonian                      ... done (   0.0 sec)
Back transforming the eigenvectors                 ... done (   0.0 sec)
Now organizing SCF variables                       ... done
                      ------------------
                      INITIAL GUESS DONE (   0.1 sec)
                      ------------------
--------------
SCF ITERATIONS
--------------
ITER       Energy         Delta-E        Max-DP      RMS-DP      [F,P]   Gradient Norm
               ***  Starting incremental Fock matrix formation  ***
                             ****Resetting KDIIS****
                             ****Turning on KDIIS(Cayley)****
  0    -77.2043260352   0.000000000000 0.01626725  0.00202422  0.1157170   0.100443967
  1    -77.2276330965  -0.023307061239 0.02021722  0.00229853  0.0990291   0.085188119
  2    -77.2480921234  -0.020459026966 0.03008559  0.00363427  0.0806287   0.069179993
  3    -77.2725042476  -0.024412124192 0.03992761  0.00533301  0.0495829   0.042479573
Warning: badly conditioned DIIS matrix, 1 vectors out of 5 destroyed
  4    -77.2870168323  -0.014512584646 0.00052266  0.00006414  0.0006667   0.000572641
  5    -77.2870187648  -0.000001932499 0.00047974  0.00006147  0.0002979   0.000238246
Warning: badly conditioned DIIS matrix, 1 vectors out of 5 destroyed
                          ***Energy convergence achieved***
  6    -77.2870191710  -0.000000406233 0.00010148  0.00001164  0.0000585   0.000049877
Warning: badly conditioned DIIS matrix, 1 vectors out of 5 destroyed
                           ***RMSP convergence achieved***
                           ***MAXP convergence achieved***
                    *** KDIIS BlockDiag ( 0.000 sec) ***

               *****************************************************
               *                     SUCCESS                       *
               *           SCF CONVERGED AFTER   7 CYCLES          *
               *****************************************************

Setting up the final grid:

General Integration Accuracy     IntAcc      ...  4.670
Radial Grid Type                 RadialGrid  ... Gauss-Chebyshev
Angular Grid (max. acc.)         AngularGrid ... Lebedev-302
Angular grid pruning method      GridPruning ... 3 (G Style)
Weight generation scheme         WeightScheme... Becke
Basis function cutoff            BFCut       ...    1.0000e-10
Integration weight cutoff        WCut        ...    1.0000e-14
Grids for H and He will be reduced by one unit

# of grid points (after initial pruning)     ...  19212 (   0.0 sec)
# of grid points (after weights+screening)   ...  18844 (   0.0 sec)
nearest neighbour list constructed           ...    0.0 sec
Grid point re-assignment to atoms done       ...    0.0 sec
Grid point division into batches done        ...    0.1 sec
Reduced shell lists constructed in    0.1 sec

Total number of grid points                  ...    18844
Total number of batches                      ...      296
Average number of points per batch           ...       63
Average number of grid points per atom       ...     4711
Average number of shells per batch           ...    12.84 (80.26%)
Average number of basis functions per batch  ...    26.30 (82.18%)
Average number of large shells per batch     ...    11.67 (90.85%)
Average number of large basis fcns per batch ...    24.18 (91.95%)
Maximum spatial batch extension              ...  18.86, 25.72, 25.71 au
Average spatial batch extension              ...   2.88,  4.33,  4.33 au

Final grid set up in    0.2 sec
Final integration                            ... done (   0.2 sec)
Change in XC energy                          ...    -0.000305774
Integrated number of electrons               ...    14.000001858
Previous integrated no of electrons          ...    13.997256047

----------------
TOTAL SCF ENERGY
----------------

Total Energy       :          -77.28732496 Eh           -2103.09503 eV

Components:
Nuclear Repulsion  :           25.72426577 Eh             699.99286 eV
Electronic Energy  :         -103.01159074 Eh           -2803.08789 eV
One Electron Energy:         -153.84906476 Eh           -4186.44589 eV
Two Electron Energy:           50.83747402 Eh            1383.35800 eV

Virial components:
Potential Energy   :         -154.43347571 Eh           -4202.34852 eV
Kinetic Energy     :           77.14615075 Eh            2099.25349 eV
Virial Ratio       :            2.00182996


DFT components:
N(Alpha)           :        7.000000929241 electrons
N(Beta)            :        7.000000929241 electrons
N(Total)           :       14.000001858482 electrons
E(XC)              :       -7.894720335558 Eh       

---------------
SCF CONVERGENCE
---------------

  Last Energy change         ...   -1.7935e-08  Tolerance :   1.0000e-06
  Last MAX-Density change    ...    5.8305e-06  Tolerance :   1.0000e-05
  Last RMS-Density change    ...    6.3975e-07  Tolerance :   1.0000e-06
  Last DIIS Error            ...    2.0498e-06  Tolerance :   1.0000e-06

             **** THE GBW FILE WAS UPDATED (Scan_6.gbw) ****
             **** DENSITY FILE WAS UPDATED (Scan_6.scfp.tmp) ****
             **** ENERGY FILE WAS UPDATED (Scan_6.en.tmp) ****
----------------
ORBITAL ENERGIES
----------------

  NO   OCC          E(Eh)            E(eV) 
   0   2.0000     -10.272473      -279.5282 
   1   2.0000     -10.268596      -279.4227 
   2   2.0000      -0.867912       -23.6171 
   3   2.0000      -0.665355       -18.1052 
   4   2.0000      -0.592413       -16.1204 
   5   2.0000      -0.386976       -10.5301 
   6   2.0000      -0.386975       -10.5301 
   7   0.0000       0.159966         4.3529 
   8   0.0000       0.159967         4.3529 
   9   0.0000       0.217019         5.9054 
  10   0.0000       0.255334         6.9480 
  11   0.0000       0.551646        15.0110 
  12   0.0000       0.563668        15.3382 
  13   0.0000       0.624538        16.9945 
  14   0.0000       0.624539        16.9946 
  15   0.0000       0.777447        21.1554 
  16   0.0000       0.777448        21.1554 
  17   0.0000       0.857179        23.3250 
  18   0.0000       0.931531        25.3482 
  19   0.0000       1.168265        31.7901 
  20   0.0000       1.451552        39.4987 
  21   0.0000       1.624645        44.2088 
  22   0.0000       1.624899        44.2158 
  23   0.0000       1.634580        44.4792 
  24   0.0000       1.647653        44.8349 
  25   0.0000       1.647653        44.8349 
  26   0.0000       2.075168        56.4682 
  27   0.0000       2.075228        56.4698 
  28   0.0000       2.648171        72.0604 
  29   0.0000       2.651102        72.1402 
  30   0.0000       2.651104        72.1402 
  31   0.0000       3.513368        95.6036 

                    ********************************
                    * MULLIKEN POPULATION ANALYSIS *
                    ********************************

-----------------------
MULLIKEN ATOMIC CHARGES
-----------------------
   0 C :   -0.220661
   1 C :   -0.220661
   2 H :    0.220661
   3 H :    0.220661
Sum of atomic charges:    0.0000000

--------------------------------
MULLIKEN REDUCED ORBITAL CHARGES
--------------------------------
  0 C s       :     3.209707  s :     3.209707
      pz      :     0.992546  p :     2.984820
      px      :     0.999729
      py      :     0.992545
      dz2     :     0.002806  d :     0.026134
      dxz     :     0.007454
      dyz     :     0.000000
      dx2y2   :     0.008419
      dxy     :     0.007454
  1 C s       :     3.209707  s :     3.209707
      pz      :     0.992546  p :     2.984820
      px      :     0.999729
      py      :     0.992545
      dz2     :     0.002806  d :     0.026134
      dxz     :     0.007454
      dyz     :     0.000000
      dx2y2   :     0.008419
      dxy     :     0.007454
  2 H s       :     0.779339  s :     0.779339
  3 H s       :     0.779339  s :     0.779339


                     *******************************
                     * LOEWDIN POPULATION ANALYSIS *
                     *******************************

----------------------
LOEWDIN ATOMIC CHARGES
----------------------
   0 C :   -0.166432
   1 C :   -0.166432
   2 H :    0.166432
   3 H :    0.166432

-------------------------------
LOEWDIN REDUCED ORBITAL CHARGES
-------------------------------
  0 C s       :     2.984453  s :     2.984453
      pz      :     0.984416  p :     3.123539
      px      :     1.154702
      py      :     0.984421
      dz2     :     0.006818  d :     0.058440
      dxz     :     0.015584
      dyz     :     0.000000
      dx2y2   :     0.020454
      dxy     :     0.015584
  1 C s       :     2.984453  s :     2.984453
      pz      :     0.984416  p :     3.123539
      px      :     1.154702
      py      :     0.984421
      dz2     :     0.006818  d :     0.058440
      dxz     :     0.015584
      dyz     :     0.000000
      dx2y2   :     0.020454
      dxy     :     0.015584
  2 H s       :     0.833568  s :     0.833568
  3 H s       :     0.833568  s :     0.833568


                      *****************************
                      * MAYER POPULATION ANALYSIS *
                      *****************************

  NA   - Mulliken gross atomic population
  ZA   - Total nuclear charge
  QA   - Mulliken gross atomic charge
  VA   - Mayer's total valence
  BVA  - Mayer's bonded valence
  FA   - Mayer's free valence

  ATOM       NA         ZA         QA         VA         BVA        FA
  0 C      6.2207     6.0000    -0.2207     3.9858     3.9858     0.0000
  1 C      6.2207     6.0000    -0.2207     3.9858     3.9858    -0.0000
  2 H      0.7793     1.0000     0.2207     0.9203     0.9203     0.0000
  3 H      0.7793     1.0000     0.2207     0.9203     0.9203    -0.0000

  Mayer bond orders larger than 0.1
B(  0-C ,  1-C ) :   3.0682 B(  0-C ,  2-H ) :   0.9053 B(  1-C ,  3-H ) :   0.9053 


-------
TIMINGS
-------

Total SCF time: 0 days 0 hours 0 min 3 sec 

Total time                  ....       3.011 sec
Sum of individual times     ....       2.899 sec  ( 96.3%)

Fock matrix formation       ....       2.564 sec  ( 85.2%)
  XC integration            ....       0.605 sec  ( 23.6% of F)
    Basis function eval.    ....       0.205 sec  ( 33.9% of XC)
    Density eval.           ....       0.028 sec  (  4.7% of XC)
    XC-Functional eval.     ....       0.164 sec  ( 27.1% of XC)
    XC-Potential eval.      ....       0.029 sec  (  4.9% of XC)
Diagonalization             ....       0.018 sec  (  0.6%)
Density matrix formation    ....       0.000 sec  (  0.0%)
Population analysis         ....       0.009 sec  (  0.3%)
Initial guess               ....       0.122 sec  (  4.0%)
Orbital Transformation      ....       0.000 sec  (  0.0%)
Orbital Orthonormalization  ....       0.000 sec  (  0.0%)
DIIS solution               ....       0.000 sec  (  0.0%)
Grid generation             ....       0.187 sec  (  6.2%)


-------------------------------------------------------------------------------
                          DFT DISPERSION CORRECTION                            
                                                                               
                              DFTD3 V3.1  Rev 1                                
                              USING zero damping                               
-------------------------------------------------------------------------------
The omegaB97X-D3 functional is recognized. Fit by Chai et al.
Active option DFTDOPT                   ...         3   

molecular C6(AA) [au] = 206.639247 


            DFT-D V3
 parameters
 s6 scaling factor         :     1.0000 
 rs6 scaling factor        :     1.2810 
 s8 scaling factor         :     1.0000 
 rs8 scaling factor        :     1.0940 
 Damping factor alpha6     :    14.0000 
 Damping factor alpha8     :    16.0000 
 ad hoc parameters k1-k3   :    16.0000     1.3333    -4.0000 

 Edisp/kcal,au: -0.052295000813  -0.000083337380 
 E6   /kcal   :  -0.023572493 
 E8   /kcal   :  -0.028722508 
 % E8         :  54.924003578 

-------------------------   ----------------
Dispersion correction           -0.000083337
-------------------------   ----------------


-------------------------   --------------------
FINAL SINGLE POINT ENERGY       -77.287408299870
-------------------------   --------------------


                            ***************************************
                            *     ORCA property calculations      *
                            ***************************************

                                    ---------------------
                                    Active property flags
                                    ---------------------
   (+) Dipole Moment


------------------------------------------------------------------------------
                       ORCA ELECTRIC PROPERTIES CALCULATION
------------------------------------------------------------------------------

Dipole Moment Calculation                       ... on
Quadrupole Moment Calculation                   ... off
Polarizability Calculation                      ... off
GBWName                                         ... Scan_6.gbw
Electron density file                           ... Scan_6.scfp.tmp

-------------
DIPOLE MOMENT
-------------
                                X             Y             Z
Electronic contribution:      0.00000      -0.00000      -0.00000
Nuclear contribution   :     -0.00000      -0.00000       0.00000
                        -----------------------------------------
Total Dipole Moment    :      0.00000      -0.00000      -0.00000
                        -----------------------------------------
Magnitude (a.u.)       :      0.00000
Magnitude (Debye)      :      0.00000


Timings for individual modules:

Sum of individual times         ...        3.330 sec (=   0.056 min)
GTO integral calculation        ...        0.298 sec (=   0.005 min)   9.0 %
SCF iterations                  ...        3.032 sec (=   0.051 min)  91.0 %
                             ****ORCA TERMINATED NORMALLY****
TOTAL RUN TIME: 0 days 0 hours 0 minutes 3 seconds 641 msec
