
                                 *****************
                                 * O   R   C   A *
                                 *****************

           --- An Ab Initio, DFT and Semiempirical electronic structure package ---

                  #######################################################
                  #                        -***-                        #
                  #  Department of molecular theory and spectroscopy    #
                  #              Directorship: Frank Neese              #
                  # Max Planck Institute for Chemical Energy Conversion #
                  #                  D-45470 Muelheim/Ruhr              #
                  #                       Germany                       #
                  #                                                     #
                  #                  All rights reserved                #
                  #                        -***-                        #
                  #######################################################


                         Program Version 4.0.0.2 - RELEASE -


 With contributions from (in alphabetic order):
   Daniel Aravena         : Magnetic Properties
   Michael Atanasov       : Ab Initio Ligand Field Theory
   Ute Becker             : Parallelization
   Martin Brehm           : Molecular dynamics
   Dmytro Bykov           : SCF Hessian
   Vijay G. Chilkuri      : MRCI spin determinant printing
   Dipayan Datta          : RHF DLPNO-CCSD density
   Achintya Kumar Dutta   : EOM-CC, STEOM-CC
   Dmitry Ganyushin       : Spin-Orbit,Spin-Spin,Magnetic field MRCI
   Yang Guo               : DLPNO-NEVPT2, CIM, IAO-localization
   Andreas Hansen         : Spin unrestricted coupled pair/coupled cluster methods
   Lee Huntington         : MR-EOM, pCC
   Robert Izsak           : Overlap fitted RIJCOSX, COSX-SCS-MP3, EOM
   Christian Kollmar      : KDIIS, OOCD, Brueckner-CCSD(T), CCSD density
   Simone Kossmann        : Meta GGA functionals, TD-DFT gradient, OOMP2, MP2 Hessian
   Martin Krupicka        : AUTO-CI
   Dagmar Lenk            : GEPOL surface
   Dimitrios Liakos       : Extrapolation schemes; parallel MDCI
   Dimitrios Manganas     : ROCIS; embedding schemes
   Dimitrios Pantazis     : SARC Basis sets
   Taras Petrenko         : DFT Hessian,TD-DFT gradient, ASA, ECA, R-Raman, ABS, FL, XAS/XES, NRVS
   Peter Pinski           : DLPNO-MP2
   Christoph Reimann      : Effective Core Potentials
   Marius Retegan         : Local ZFS, SOC
   Christoph Riplinger    : Optimizer, TS searches, QM/MM, DLPNO-CCSD(T), (RO)-DLPNO pert. Triples
   Tobias Risthaus        : Range-separated hybrids, TD-DFT gradient, RPA, STAB
   Michael Roemelt        : Restricted open shell CIS
   Masaaki Saitow         : Open-shell DLPNO
   Barbara Sandhoefer     : DKH picture change effects
   Kantharuban Sivalingam : CASSCF convergence, NEVPT2, FIC-MRCI
   Georgi Stoychev        : AutoAux
   Boris Wezisla          : Elementary symmetry handling
   Frank Wennmohs         : Technical directorship


 We gratefully acknowledge several colleagues who have allowed us to
 interface, adapt or use parts of their codes:
   Stefan Grimme, W. Hujo, H. Kruse,             : VdW corrections, initial TS optimization,
                  C. Bannwarth                     DFT functionals, gCP, sTDA/sTD-DF
   Ed Valeev                                     : LibInt (2-el integral package), F12 methods
   Garnet Chan, S. Sharma, J. Yang, R. Olivares  : DMRG
   Ulf Ekstrom                                   : XCFun DFT Library
   Mihaly Kallay                                 : mrcc  (arbitrary order and MRCC methods)
   Jiri Pittner, Ondrej Demel                    : Mk-CCSD
   Frank Weinhold                                : gennbo (NPA and NBO analysis)
   Christopher J. Cramer and Donald G. Truhlar   : smd solvation model


 Your calculation uses the libint2 library for the computation of 2-el integrals
 For citations please refer to: http://libint.valeyev.net

 This ORCA versions uses:
   CBLAS   interface :  Fast vector & matrix operations
   LAPACKE interface :  Fast linear algebra routines
   SCALAPACK package :  Parallel linear algebra routines


Your calculation utilizes the atom-pairwise dispersion correction
with the zero-damping scheme (D30)
Cite in your paper:
S.Grimme, J.Antony, S.Ehrlich and H.Krieg, J.Chem.Phys., 132, (2010), 154104 
   

XCFun DFT library Copyright 2009-2010 Ulf Ekstrom and contributors.
See http://admol.org/xcfun for more information. This is free soft-
ware; see the source code for copying conditions. There is ABSOLUTELY
NO WARRANTY; not even for MERCHANTABILITY or FITNESS FOR A PARTICULAR
PURPOSE. For details see the documentation. Scientific users of this 
library should cite U. Ekstrom, L. Visscher, R. Bast, A. J. Thorvald-
sen and K. Ruud; J.Chem.Theor.Comp. 2010, DOI: 10.1021/ct100117s
XCFun Version 0.99 
Your calculation utilizes the basis: 6-31G(d)
   H-He, Li-Ne : W. J. Hehre, R. Ditchfield and J.A. Pople, J. Chem. Phys. 56, 2257 (1972).
                 Note: He and Ne are unpublished basis sets taken from the Gaussian program.
                 Note: Li and B from J. D. Dill and J. A. Pople, J. Chem. Phys. 62, 2921 (1975).
   Na - Ar     : M. M. Francl, W. J. Pietro, W. J. Hehre, J. S. Binkley, M. S. Gordon, 
                 D. J. DeFrees and J. A. Pople, J. Chem. Phys. 77, 3654 (1982).
   K - Zn      : V. A. Rassolov, J. A. Pople, M. A. Ratner, and T. L. Windus, J. Chem. Phys. 109, 1223 (1998).

================================================================================
                                        WARNINGS
                       Please study these warnings very carefully!
================================================================================

Warning: TCutStore was < 0. Adjusted to Thresh (uncritical)

INFO   : the flag for use of LIBINT has been found!

================================================================================
                                       INPUT FILE
================================================================================
NAME = initial7.inp
|  1> ! WB97X-D3 6-31G(d) VerySlowConv
|  2> ! KDIIS NOSOSCF
|  3> %base "Scan_7"
|  4> 
|  5> %scf
|  6> maxiter 999
|  7> end
|  8> 
|  9> * xyz 0 1
| 10> C         -2.847797932848    2.625522000717   -0.000000000010
| 11> C         -1.676712067147    2.631717999283    0.000000000010
| 12> H         -3.898293011672    2.619965417516   -0.000000000000
| 13> H         -0.626216988333    2.637274582484    0.000000000000
| 14> **                         ****END OF INPUT****
================================================================================

                       ****************************
                       * Single Point Calculation *
                       ****************************

---------------------------------
CARTESIAN COORDINATES (ANGSTROEM)
---------------------------------
  C     -2.847798    2.625522   -0.000000
  C     -1.676712    2.631718    0.000000
  H     -3.898293    2.619965   -0.000000
  H     -0.626217    2.637275    0.000000

----------------------------
CARTESIAN COORDINATES (A.U.)
----------------------------
  NO LB      ZA    FRAG     MASS         X           Y           Z
   0 C     6.0000    0    12.011   -5.381558    4.961518   -0.000000
   1 C     6.0000    0    12.011   -3.168527    4.973226    0.000000
   2 H     1.0000    0     1.008   -7.366706    4.951017   -0.000000
   3 H     1.0000    0     1.008   -1.183379    4.983727    0.000000

--------------------------------
INTERNAL COORDINATES (ANGSTROEM)
--------------------------------
 C      0   0   0     0.000000000000     0.00000000     0.00000000
 C      1   0   0     1.171102256527     0.00000000     0.00000000
 H      1   2   0     1.050509774467   179.99992410     0.00000000
 H      2   1   3     1.050509774457   179.99992410   180.00000121

---------------------------
INTERNAL COORDINATES (A.U.)
---------------------------
 C      0   0   0     0.000000000000     0.00000000     0.00000000
 C      1   0   0     2.213062539653     0.00000000     0.00000000
 H      1   2   0     1.985175774750   179.99992410     0.00000000
 H      2   1   3     1.985175774731   179.99992410   180.00000121

---------------------
BASIS SET INFORMATION
---------------------
There are 2 groups of distinct atoms

 Group   1 Type C   : 10s4p1d contracted to 3s2p1d pattern {631/31/1}
 Group   2 Type H   : 4s contracted to 2s pattern {31}

Atom   0C    basis set group =>   1
Atom   1C    basis set group =>   1
Atom   2H    basis set group =>   2
Atom   3H    basis set group =>   2
------------------------------------------------------------------------------
                           ORCA GTO INTEGRAL CALCULATION
------------------------------------------------------------------------------

                         BASIS SET STATISTICS AND STARTUP INFO

 # of primitive gaussian shells          ...   38
 # of primitive gaussian functions       ...   62
 # of contracted shells                  ...   16
 # of contracted basis functions         ...   32
 Highest angular momentum                ...    2
 Maximum contraction depth               ...    6
 Integral package used                   ... LIBINT
 Integral threshhold            Thresh   ...  1.000e-10
 Primitive cut-off              TCut     ...  1.000e-11


------------------------------ INTEGRAL EVALUATION ----------------------------


 * One electron integrals 
 Pre-screening matrix                    ... done
 Shell pair data                         ... done (   0.000 sec)

-------------------------------------------------------------------------------
                                 ORCA SCF
-------------------------------------------------------------------------------

------------
SCF SETTINGS
------------
Hamiltonian:
 Density Functional     Method          .... DFT(GTOs)
 Exchange Functional    Exchange        .... WB97X-D3
 Correlation Functional Correlation     .... WB97X-D3
 Gradients option       PostSCFGGA      .... off
 Hybrid DFT is turned on
   Fraction HF Exchange ScalHFX         ....  0.195728
   Scaling of DF-GGA-X  ScalDFX         ....  0.000000
   Scaling of DF-GGA-C  ScalDFC         ....  1.000000
   Scaling of DF-LDA-C  ScalLDAC        ....  1.000000
   Perturbative correction              ....  0.000000
 Long-range corrected/Screened/Range-Separated Hybrid DFT is turned on
   Amount of maximum screened exact exchange              ....  0.804272
   Range separation parameter mu (erf(mu*r12)/r12)        ....  0.250000


General Settings:
 Integral files         IntName         .... Scan_7
 Hartree-Fock type      HFTyp           .... RHF
 Total Charge           Charge          ....    0
 Multiplicity           Mult            ....    1
 Number of Electrons    NEL             ....   14
 Basis Dimension        Dim             ....   32
 Nuclear Repulsion      ENuc            ....     25.3319199730 Eh

Convergence Acceleration:
 DIIS                   CNVDIIS         .... on
   Start iteration      DIISMaxIt       ....     0
   Startup error        DIISStart       ....  0.200000
   # of expansion vecs  DIISMaxEq       ....     5
   Bias factor          DIISBfac        ....   1.050
   Max. coefficient     DIISMaxC        ....  10.000
 Newton-Raphson         CNVNR           .... off
 SOSCF                  CNVSOSCF        .... off
 Level Shifting         CNVShift        .... off
 Zerner damping         CNVZerner       .... off
 Static damping         CNVDamp         .... off
 Fernandez-Rico         CNVRico         .... off

SCF Procedure:
 Maximum # iterations   MaxIter         ....   999
 SCF integral mode      SCFMode         .... Direct
   Integral package                     .... LIBINT
 Reset frequeny         DirectResetFreq ....    20
 Integral Threshold     Thresh          ....  1.000e-10 Eh
 Primitive CutOff       TCut            ....  1.000e-11 Eh

Convergence Tolerance:
 Convergence Check Mode ConvCheckMode   .... All-Criteria
 Convergence forced     ConvForced      .... 0
 Energy Change          TolE            ....  1.000e-06 Eh
 Max Density Change     TolMaxP         ....  1.000e-05
 RMS Density Change     TolRMSP         ....  1.000e-06
 DIIS Error             TolErr          ....  1.000e-06


Diagonalization of the overlap matrix:
Smallest eigenvalue                        ... 8.582e-04
Time for diagonalization                   ...    0.001 sec
Threshold for overlap eigenvalues          ... 1.000e-08
Number of eigenvalues below threshold      ... 0
Time for construction of square roots      ...    0.017 sec
Total time needed                          ...    0.018 sec

-------------------
DFT GRID GENERATION
-------------------

General Integration Accuracy     IntAcc      ...  4.340
Radial Grid Type                 RadialGrid  ... Gauss-Chebyshev
Angular Grid (max. acc.)         AngularGrid ... Lebedev-110
Angular grid pruning method      GridPruning ... 3 (G Style)
Weight generation scheme         WeightScheme... Becke
Basis function cutoff            BFCut       ...    1.0000e-10
Integration weight cutoff        WCut        ...    1.0000e-14
Grids for H and He will be reduced by one unit

# of grid points (after initial pruning)     ...   4900 (   0.0 sec)
# of grid points (after weights+screening)   ...   4822 (   0.0 sec)
nearest neighbour list constructed           ...    0.0 sec
Grid point re-assignment to atoms done       ...    0.0 sec
Grid point division into batches done        ...    0.0 sec
Reduced shell lists constructed in    0.1 sec

Total number of grid points                  ...     4822
Total number of batches                      ...       78
Average number of points per batch           ...       61
Average number of grid points per atom       ...     1206
Average number of shells per batch           ...    13.87 (86.71%)
Average number of basis functions per batch  ...    28.46 (88.92%)
Average number of large shells per batch     ...    13.06 (94.16%)
Average number of large basis fcns per batch ...    27.14 (95.37%)
Maximum spatial batch extension              ...  18.20, 25.61, 31.36 au
Average spatial batch extension              ...   4.01,  6.93,  7.30 au

Time for grid setup =    0.124 sec

------------------------------
INITIAL GUESS: MODEL POTENTIAL
------------------------------
Loading Hartree-Fock densities                     ... done
Calculating cut-offs                               ... done
Setting up the integral package                    ... done
Initializing the effective Hamiltonian             ... done
Starting the Coulomb interaction                   ... done (   0.0 sec)
Reading the grid                                   ... done
Mapping shells                                     ... done
Starting the XC term evaluation                    ... done (   0.0 sec)
  promolecular density results
     # of electrons  =     14.000747736
     EX              =    -10.742815017
     EC              =     -0.422814080
     EX+EC           =    -11.165629096
Transforming the Hamiltonian                       ... done (   0.0 sec)
Diagonalizing the Hamiltonian                      ... done (   0.0 sec)
Back transforming the eigenvectors                 ... done (   0.0 sec)
Now organizing SCF variables                       ... done
                      ------------------
                      INITIAL GUESS DONE (   0.5 sec)
                      ------------------
--------------
SCF ITERATIONS
--------------
ITER       Energy         Delta-E        Max-DP      RMS-DP      [F,P]   Gradient Norm
               ***  Starting incremental Fock matrix formation  ***
                             ****Resetting KDIIS****
                             ****Turning on KDIIS(Cayley)****
  0    -77.2183116016   0.000000000000 0.01509441  0.00190348  0.1094881   0.094737688
  1    -77.2390553794  -0.020743777810 0.01907101  0.00218140  0.0937481   0.080431022
  2    -77.2574868904  -0.018431511044 0.02873116  0.00345870  0.0762122   0.065242399
  3    -77.2794062648  -0.021919374351 0.03873131  0.00508529  0.0467461   0.039979287
Warning: badly conditioned DIIS matrix, 1 vectors out of 5 destroyed
  4    -77.2923667915  -0.012960526663 0.00050976  0.00006439  0.0005544   0.000504049
  5    -77.2923684490  -0.000001657507 0.00039198  0.00005033  0.0002006   0.000168904
Warning: badly conditioned DIIS matrix, 1 vectors out of 5 destroyed
                          ***Energy convergence achieved***
  6    -77.2923686623  -0.000000213295 0.00008484  0.00000967  0.0000480   0.000038945
Warning: badly conditioned DIIS matrix, 1 vectors out of 5 destroyed
                           ***RMSP convergence achieved***
                           ***MAXP convergence achieved***
                    *** KDIIS BlockDiag ( 0.000 sec) ***

               *****************************************************
               *                     SUCCESS                       *
               *           SCF CONVERGED AFTER   7 CYCLES          *
               *****************************************************

Setting up the final grid:

General Integration Accuracy     IntAcc      ...  4.670
Radial Grid Type                 RadialGrid  ... Gauss-Chebyshev
Angular Grid (max. acc.)         AngularGrid ... Lebedev-302
Angular grid pruning method      GridPruning ... 3 (G Style)
Weight generation scheme         WeightScheme... Becke
Basis function cutoff            BFCut       ...    1.0000e-10
Integration weight cutoff        WCut        ...    1.0000e-14
Grids for H and He will be reduced by one unit

# of grid points (after initial pruning)     ...  19212 (   0.0 sec)
# of grid points (after weights+screening)   ...  18850 (   0.0 sec)
nearest neighbour list constructed           ...    0.0 sec
Grid point re-assignment to atoms done       ...    0.0 sec
Grid point division into batches done        ...    0.1 sec
Reduced shell lists constructed in    0.3 sec

Total number of grid points                  ...    18850
Total number of batches                      ...      296
Average number of points per batch           ...       63
Average number of grid points per atom       ...     4712
Average number of shells per batch           ...    12.84 (80.22%)
Average number of basis functions per batch  ...    26.28 (82.11%)
Average number of large shells per batch     ...    11.64 (90.66%)
Average number of large basis fcns per batch ...    24.14 (91.88%)
Maximum spatial batch extension              ...  18.86, 25.72, 25.71 au
Average spatial batch extension              ...   2.90,  4.23,  4.27 au

Final grid set up in    0.4 sec
Final integration                            ... done (   0.5 sec)
Change in XC energy                          ...    -0.000294790
Integrated number of electrons               ...    13.999996167
Previous integrated no of electrons          ...    13.997096661

----------------
TOTAL SCF ENERGY
----------------

Total Energy       :          -77.29266346 Eh           -2103.24030 eV

Components:
Nuclear Repulsion  :           25.33191997 Eh             689.31659 eV
Electronic Energy  :         -102.62458344 Eh           -2792.55689 eV
One Electron Energy:         -153.07949302 Eh           -4165.50478 eV
Two Electron Energy:           50.45490958 Eh            1372.94789 eV

Virial components:
Potential Energy   :         -154.30029484 Eh           -4198.72448 eV
Kinetic Energy     :           77.00763138 Eh            2095.48418 eV
Virial Ratio       :            2.00370135


DFT components:
N(Alpha)           :        6.999998083472 electrons
N(Beta)            :        6.999998083472 electrons
N(Total)           :       13.999996166943 electrons
E(XC)              :       -7.874081507183 Eh       

---------------
SCF CONVERGENCE
---------------

  Last Energy change         ...   -1.1489e-08  Tolerance :   1.0000e-06
  Last MAX-Density change    ...    5.5705e-06  Tolerance :   1.0000e-05
  Last RMS-Density change    ...    5.9342e-07  Tolerance :   1.0000e-06
  Last DIIS Error            ...    2.0320e-06  Tolerance :   1.0000e-06

             **** THE GBW FILE WAS UPDATED (Scan_7.gbw) ****
             **** DENSITY FILE WAS UPDATED (Scan_7.scfp.tmp) ****
             **** ENERGY FILE WAS UPDATED (Scan_7.en.tmp) ****
----------------
ORBITAL ENERGIES
----------------

  NO   OCC          E(Eh)            E(eV) 
   0   2.0000     -10.278903      -279.7032 
   1   2.0000     -10.275786      -279.6184 
   2   2.0000      -0.863706       -23.5026 
   3   2.0000      -0.669136       -18.2081 
   4   2.0000      -0.592677       -16.1275 
   5   2.0000      -0.382486       -10.4080 
   6   2.0000      -0.382485       -10.4080 
   7   0.0000       0.151561         4.1242 
   8   0.0000       0.151562         4.1242 
   9   0.0000       0.213735         5.8160 
  10   0.0000       0.255311         6.9474 
  11   0.0000       0.540900        14.7186 
  12   0.0000       0.566029        15.4024 
  13   0.0000       0.629027        17.1167 
  14   0.0000       0.629028        17.1167 
  15   0.0000       0.770616        20.9695 
  16   0.0000       0.770616        20.9695 
  17   0.0000       0.856331        23.3020 
  18   0.0000       0.934388        25.4260 
  19   0.0000       1.159215        31.5438 
  20   0.0000       1.403973        38.2041 
  21   0.0000       1.627285        44.2807 
  22   0.0000       1.627285        44.2807 
  23   0.0000       1.628244        44.3068 
  24   0.0000       1.631393        44.3925 
  25   0.0000       1.631654        44.3996 
  26   0.0000       2.059525        56.0425 
  27   0.0000       2.059598        56.0445 
  28   0.0000       2.621816        71.3432 
  29   0.0000       2.621818        71.3433 
  30   0.0000       2.631607        71.6097 
  31   0.0000       3.429097        93.3105 

                    ********************************
                    * MULLIKEN POPULATION ANALYSIS *
                    ********************************

-----------------------
MULLIKEN ATOMIC CHARGES
-----------------------
   0 C :   -0.223819
   1 C :   -0.223819
   2 H :    0.223819
   3 H :    0.223819
Sum of atomic charges:    0.0000000

--------------------------------
MULLIKEN REDUCED ORBITAL CHARGES
--------------------------------
  0 C s       :     3.217960  s :     3.217960
      pz      :     0.993061  p :     2.980951
      px      :     0.994830
      py      :     0.993060
      dz2     :     0.002758  d :     0.024908
      dxz     :     0.006939
      dyz     :     0.000000
      dx2y2   :     0.008273
      dxy     :     0.006939
  1 C s       :     3.217960  s :     3.217960
      pz      :     0.993061  p :     2.980951
      px      :     0.994830
      py      :     0.993060
      dz2     :     0.002758  d :     0.024908
      dxz     :     0.006939
      dyz     :     0.000000
      dx2y2   :     0.008273
      dxy     :     0.006939
  2 H s       :     0.776181  s :     0.776181
  3 H s       :     0.776181  s :     0.776181


                     *******************************
                     * LOEWDIN POPULATION ANALYSIS *
                     *******************************

----------------------
LOEWDIN ATOMIC CHARGES
----------------------
   0 C :   -0.168081
   1 C :   -0.168081
   2 H :    0.168081
   3 H :    0.168081

-------------------------------
LOEWDIN REDUCED ORBITAL CHARGES
-------------------------------
  0 C s       :     2.992869  s :     2.992869
      pz      :     0.985598  p :     3.120771
      px      :     1.149570
      py      :     0.985603
      dz2     :     0.006409  d :     0.054442
      dxz     :     0.014402
      dyz     :     0.000000
      dx2y2   :     0.019228
      dxy     :     0.014402
  1 C s       :     2.992869  s :     2.992869
      pz      :     0.985598  p :     3.120771
      px      :     1.149570
      py      :     0.985603
      dz2     :     0.006409  d :     0.054442
      dxz     :     0.014402
      dyz     :     0.000000
      dx2y2   :     0.019228
      dxy     :     0.014402
  2 H s       :     0.831919  s :     0.831919
  3 H s       :     0.831919  s :     0.831919


                      *****************************
                      * MAYER POPULATION ANALYSIS *
                      *****************************

  NA   - Mulliken gross atomic population
  ZA   - Total nuclear charge
  QA   - Mulliken gross atomic charge
  VA   - Mayer's total valence
  BVA  - Mayer's bonded valence
  FA   - Mayer's free valence

  ATOM       NA         ZA         QA         VA         BVA        FA
  0 C      6.2238     6.0000    -0.2238     3.9731     3.9731     0.0000
  1 C      6.2238     6.0000    -0.2238     3.9731     3.9731    -0.0000
  2 H      0.7762     1.0000     0.2238     0.9201     0.9201    -0.0000
  3 H      0.7762     1.0000     0.2238     0.9201     0.9201     0.0000

  Mayer bond orders larger than 0.1
B(  0-C ,  1-C ) :   3.0557 B(  0-C ,  2-H ) :   0.9059 B(  1-C ,  3-H ) :   0.9059 


-------
TIMINGS
-------

Total SCF time: 0 days 0 hours 0 min 11 sec 

Total time                  ....      11.072 sec
Sum of individual times     ....      10.546 sec  ( 95.2%)

Fock matrix formation       ....       9.594 sec  ( 86.7%)
  XC integration            ....       1.926 sec  ( 20.1% of F)
    Basis function eval.    ....       0.446 sec  ( 23.1% of XC)
    Density eval.           ....       0.053 sec  (  2.8% of XC)
    XC-Functional eval.     ....       0.465 sec  ( 24.2% of XC)
    XC-Potential eval.      ....       0.080 sec  (  4.1% of XC)
Diagonalization             ....       0.092 sec  (  0.8%)
Density matrix formation    ....       0.000 sec  (  0.0%)
Population analysis         ....       0.010 sec  (  0.1%)
Initial guess               ....       0.355 sec  (  3.2%)
Orbital Transformation      ....       0.000 sec  (  0.0%)
Orbital Orthonormalization  ....       0.000 sec  (  0.0%)
DIIS solution               ....       0.000 sec  (  0.0%)
Grid generation             ....       0.494 sec  (  4.5%)


-------------------------------------------------------------------------------
                          DFT DISPERSION CORRECTION                            
                                                                               
                              DFTD3 V3.1  Rev 1                                
                              USING zero damping                               
-------------------------------------------------------------------------------
The omegaB97X-D3 functional is recognized. Fit by Chai et al.
Active option DFTDOPT                   ...         3   

molecular C6(AA) [au] = 206.645315 


            DFT-D V3
 parameters
 s6 scaling factor         :     1.0000 
 rs6 scaling factor        :     1.2810 
 s8 scaling factor         :     1.0000 
 rs8 scaling factor        :     1.0940 
 Damping factor alpha6     :    14.0000 
 Damping factor alpha8     :    16.0000 
 ad hoc parameters k1-k3   :    16.0000     1.3333    -4.0000 

 Edisp/kcal,au: -0.053540988090  -0.000085322986 
 E6   /kcal   :  -0.023782840 
 E8   /kcal   :  -0.029758148 
 % E8         :  55.580124546 

-------------------------   ----------------
Dispersion correction           -0.000085323
-------------------------   ----------------


-------------------------   --------------------
FINAL SINGLE POINT ENERGY       -77.292748786506
-------------------------   --------------------


                            ***************************************
                            *     ORCA property calculations      *
                            ***************************************

                                    ---------------------
                                    Active property flags
                                    ---------------------
   (+) Dipole Moment


------------------------------------------------------------------------------
                       ORCA ELECTRIC PROPERTIES CALCULATION
------------------------------------------------------------------------------

Dipole Moment Calculation                       ... on
Quadrupole Moment Calculation                   ... off
Polarizability Calculation                      ... off
GBWName                                         ... Scan_7.gbw
Electron density file                           ... Scan_7.scfp.tmp

-------------
DIPOLE MOMENT
-------------
                                X             Y             Z
Electronic contribution:      0.00000       0.00000      -0.00000
Nuclear contribution   :     -0.00000      -0.00000       0.00000
                        -----------------------------------------
Total Dipole Moment    :      0.00000       0.00000      -0.00000
                        -----------------------------------------
Magnitude (a.u.)       :      0.00000
Magnitude (Debye)      :      0.00000


Timings for individual modules:

Sum of individual times         ...       12.545 sec (=   0.209 min)
GTO integral calculation        ...        1.443 sec (=   0.024 min)  11.5 %
SCF iterations                  ...       11.101 sec (=   0.185 min)  88.5 %
                             ****ORCA TERMINATED NORMALLY****
TOTAL RUN TIME: 0 days 0 hours 0 minutes 14 seconds 165 msec
