
                                 *****************
                                 * O   R   C   A *
                                 *****************

           --- An Ab Initio, DFT and Semiempirical electronic structure package ---

                  #######################################################
                  #                        -***-                        #
                  #  Department of molecular theory and spectroscopy    #
                  #              Directorship: Frank Neese              #
                  # Max Planck Institute for Chemical Energy Conversion #
                  #                  D-45470 Muelheim/Ruhr              #
                  #                       Germany                       #
                  #                                                     #
                  #                  All rights reserved                #
                  #                        -***-                        #
                  #######################################################


                         Program Version 4.0.0.2 - RELEASE -


 With contributions from (in alphabetic order):
   Daniel Aravena         : Magnetic Properties
   Michael Atanasov       : Ab Initio Ligand Field Theory
   Ute Becker             : Parallelization
   Martin Brehm           : Molecular dynamics
   Dmytro Bykov           : SCF Hessian
   Vijay G. Chilkuri      : MRCI spin determinant printing
   Dipayan Datta          : RHF DLPNO-CCSD density
   Achintya Kumar Dutta   : EOM-CC, STEOM-CC
   Dmitry Ganyushin       : Spin-Orbit,Spin-Spin,Magnetic field MRCI
   Yang Guo               : DLPNO-NEVPT2, CIM, IAO-localization
   Andreas Hansen         : Spin unrestricted coupled pair/coupled cluster methods
   Lee Huntington         : MR-EOM, pCC
   Robert Izsak           : Overlap fitted RIJCOSX, COSX-SCS-MP3, EOM
   Christian Kollmar      : KDIIS, OOCD, Brueckner-CCSD(T), CCSD density
   Simone Kossmann        : Meta GGA functionals, TD-DFT gradient, OOMP2, MP2 Hessian
   Martin Krupicka        : AUTO-CI
   Dagmar Lenk            : GEPOL surface
   Dimitrios Liakos       : Extrapolation schemes; parallel MDCI
   Dimitrios Manganas     : ROCIS; embedding schemes
   Dimitrios Pantazis     : SARC Basis sets
   Taras Petrenko         : DFT Hessian,TD-DFT gradient, ASA, ECA, R-Raman, ABS, FL, XAS/XES, NRVS
   Peter Pinski           : DLPNO-MP2
   Christoph Reimann      : Effective Core Potentials
   Marius Retegan         : Local ZFS, SOC
   Christoph Riplinger    : Optimizer, TS searches, QM/MM, DLPNO-CCSD(T), (RO)-DLPNO pert. Triples
   Tobias Risthaus        : Range-separated hybrids, TD-DFT gradient, RPA, STAB
   Michael Roemelt        : Restricted open shell CIS
   Masaaki Saitow         : Open-shell DLPNO
   Barbara Sandhoefer     : DKH picture change effects
   Kantharuban Sivalingam : CASSCF convergence, NEVPT2, FIC-MRCI
   Georgi Stoychev        : AutoAux
   Boris Wezisla          : Elementary symmetry handling
   Frank Wennmohs         : Technical directorship


 We gratefully acknowledge several colleagues who have allowed us to
 interface, adapt or use parts of their codes:
   Stefan Grimme, W. Hujo, H. Kruse,             : VdW corrections, initial TS optimization,
                  C. Bannwarth                     DFT functionals, gCP, sTDA/sTD-DF
   Ed Valeev                                     : LibInt (2-el integral package), F12 methods
   Garnet Chan, S. Sharma, J. Yang, R. Olivares  : DMRG
   Ulf Ekstrom                                   : XCFun DFT Library
   Mihaly Kallay                                 : mrcc  (arbitrary order and MRCC methods)
   Jiri Pittner, Ondrej Demel                    : Mk-CCSD
   Frank Weinhold                                : gennbo (NPA and NBO analysis)
   Christopher J. Cramer and Donald G. Truhlar   : smd solvation model


 Your calculation uses the libint2 library for the computation of 2-el integrals
 For citations please refer to: http://libint.valeyev.net

 This ORCA versions uses:
   CBLAS   interface :  Fast vector & matrix operations
   LAPACKE interface :  Fast linear algebra routines
   SCALAPACK package :  Parallel linear algebra routines


Your calculation utilizes the atom-pairwise dispersion correction
with the zero-damping scheme (D30)
Cite in your paper:
S.Grimme, J.Antony, S.Ehrlich and H.Krieg, J.Chem.Phys., 132, (2010), 154104 
   

XCFun DFT library Copyright 2009-2010 Ulf Ekstrom and contributors.
See http://admol.org/xcfun for more information. This is free soft-
ware; see the source code for copying conditions. There is ABSOLUTELY
NO WARRANTY; not even for MERCHANTABILITY or FITNESS FOR A PARTICULAR
PURPOSE. For details see the documentation. Scientific users of this 
library should cite U. Ekstrom, L. Visscher, R. Bast, A. J. Thorvald-
sen and K. Ruud; J.Chem.Theor.Comp. 2010, DOI: 10.1021/ct100117s
XCFun Version 0.99 
Your calculation utilizes the basis: 6-31G(d)
   H-He, Li-Ne : W. J. Hehre, R. Ditchfield and J.A. Pople, J. Chem. Phys. 56, 2257 (1972).
                 Note: He and Ne are unpublished basis sets taken from the Gaussian program.
                 Note: Li and B from J. D. Dill and J. A. Pople, J. Chem. Phys. 62, 2921 (1975).
   Na - Ar     : M. M. Francl, W. J. Pietro, W. J. Hehre, J. S. Binkley, M. S. Gordon, 
                 D. J. DeFrees and J. A. Pople, J. Chem. Phys. 77, 3654 (1982).
   K - Zn      : V. A. Rassolov, J. A. Pople, M. A. Ratner, and T. L. Windus, J. Chem. Phys. 109, 1223 (1998).

================================================================================
                                        WARNINGS
                       Please study these warnings very carefully!
================================================================================

Warning: TCutStore was < 0. Adjusted to Thresh (uncritical)

INFO   : the flag for use of LIBINT has been found!

================================================================================
                                       INPUT FILE
================================================================================
NAME = initial9.inp
|  1> ! WB97X-D3 6-31G(d) VerySlowConv
|  2> ! KDIIS NOSOSCF
|  3> %base "Scan_9"
|  4> 
|  5> %scf
|  6> maxiter 999
|  7> end
|  8> 
|  9> * xyz 0 1
| 10> C         -2.879138673831    2.625356303334   -0.000000000008
| 11> C         -1.645371326168    2.631883696666    0.000000000008
| 12> H         -3.926929814464    2.619813882903   -0.000000000005
| 13> H         -0.597580185536    2.637426117098    0.000000000005
| 14> **                         ****END OF INPUT****
================================================================================

                       ****************************
                       * Single Point Calculation *
                       ****************************

---------------------------------
CARTESIAN COORDINATES (ANGSTROEM)
---------------------------------
  C     -2.879139    2.625356   -0.000000
  C     -1.645371    2.631884    0.000000
  H     -3.926930    2.619814   -0.000000
  H     -0.597580    2.637426    0.000000

----------------------------
CARTESIAN COORDINATES (A.U.)
----------------------------
  NO LB      ZA    FRAG     MASS         X           Y           Z
   0 C     6.0000    0    12.011   -5.440784    4.961204   -0.000000
   1 C     6.0000    0    12.011   -3.109301    4.973539    0.000000
   2 H     1.0000    0     1.008   -7.420822    4.950731   -0.000000
   3 H     1.0000    0     1.008   -1.129263    4.984013    0.000000

--------------------------------
INTERNAL COORDINATES (ANGSTROEM)
--------------------------------
 C      0   0   0     0.000000000000     0.00000000     0.00000000
 C      1   0   0     1.233784614519     0.00000000     0.00000000
 H      1   2   0     1.047805799189   179.99994290     0.00000000
 H      2   1   3     1.047805799188   179.99994294   180.00000000

---------------------------
INTERNAL COORDINATES (A.U.)
---------------------------
 C      0   0   0     0.000000000000     0.00000000     0.00000000
 C      1   0   0     2.331515029686     0.00000000     0.00000000
 H      1   2   0     1.980066002001   179.99994290     0.00000000
 H      2   1   3     1.980066001999   179.99994294   180.00000000

---------------------
BASIS SET INFORMATION
---------------------
There are 2 groups of distinct atoms

 Group   1 Type C   : 10s4p1d contracted to 3s2p1d pattern {631/31/1}
 Group   2 Type H   : 4s contracted to 2s pattern {31}

Atom   0C    basis set group =>   1
Atom   1C    basis set group =>   1
Atom   2H    basis set group =>   2
Atom   3H    basis set group =>   2
------------------------------------------------------------------------------
                           ORCA GTO INTEGRAL CALCULATION
------------------------------------------------------------------------------

                         BASIS SET STATISTICS AND STARTUP INFO

 # of primitive gaussian shells          ...   38
 # of primitive gaussian functions       ...   62
 # of contracted shells                  ...   16
 # of contracted basis functions         ...   32
 Highest angular momentum                ...    2
 Maximum contraction depth               ...    6
 Integral package used                   ... LIBINT
 Integral threshhold            Thresh   ...  1.000e-10
 Primitive cut-off              TCut     ...  1.000e-11


------------------------------ INTEGRAL EVALUATION ----------------------------


 * One electron integrals 
 Pre-screening matrix                    ... done
 Shell pair data                         ... done (   0.000 sec)

-------------------------------------------------------------------------------
                                 ORCA SCF
-------------------------------------------------------------------------------

------------
SCF SETTINGS
------------
Hamiltonian:
 Density Functional     Method          .... DFT(GTOs)
 Exchange Functional    Exchange        .... WB97X-D3
 Correlation Functional Correlation     .... WB97X-D3
 Gradients option       PostSCFGGA      .... off
 Hybrid DFT is turned on
   Fraction HF Exchange ScalHFX         ....  0.195728
   Scaling of DF-GGA-X  ScalDFX         ....  0.000000
   Scaling of DF-GGA-C  ScalDFC         ....  1.000000
   Scaling of DF-LDA-C  ScalLDAC        ....  1.000000
   Perturbative correction              ....  0.000000
 Long-range corrected/Screened/Range-Separated Hybrid DFT is turned on
   Amount of maximum screened exact exchange              ....  0.804272
   Range separation parameter mu (erf(mu*r12)/r12)        ....  0.250000


General Settings:
 Integral files         IntName         .... Scan_9
 Hartree-Fock type      HFTyp           .... RHF
 Total Charge           Charge          ....    0
 Multiplicity           Mult            ....    1
 Number of Electrons    NEL             ....   14
 Basis Dimension        Dim             ....   32
 Nuclear Repulsion      ENuc            ....     24.4431505880 Eh

Convergence Acceleration:
 DIIS                   CNVDIIS         .... on
   Start iteration      DIISMaxIt       ....     0
   Startup error        DIISStart       ....  0.200000
   # of expansion vecs  DIISMaxEq       ....     5
   Bias factor          DIISBfac        ....   1.050
   Max. coefficient     DIISMaxC        ....  10.000
 Newton-Raphson         CNVNR           .... off
 SOSCF                  CNVSOSCF        .... off
 Level Shifting         CNVShift        .... off
 Zerner damping         CNVZerner       .... off
 Static damping         CNVDamp         .... off
 Fernandez-Rico         CNVRico         .... off

SCF Procedure:
 Maximum # iterations   MaxIter         ....   999
 SCF integral mode      SCFMode         .... Direct
   Integral package                     .... LIBINT
 Reset frequeny         DirectResetFreq ....    20
 Integral Threshold     Thresh          ....  1.000e-10 Eh
 Primitive CutOff       TCut            ....  1.000e-11 Eh

Convergence Tolerance:
 Convergence Check Mode ConvCheckMode   .... All-Criteria
 Convergence forced     ConvForced      .... 0
 Energy Change          TolE            ....  1.000e-06 Eh
 Max Density Change     TolMaxP         ....  1.000e-05
 RMS Density Change     TolRMSP         ....  1.000e-06
 DIIS Error             TolErr          ....  1.000e-06


Diagonalization of the overlap matrix:
Smallest eigenvalue                        ... 1.207e-03
Time for diagonalization                   ...    0.001 sec
Threshold for overlap eigenvalues          ... 1.000e-08
Number of eigenvalues below threshold      ... 0
Time for construction of square roots      ...    0.009 sec
Total time needed                          ...    0.009 sec

-------------------
DFT GRID GENERATION
-------------------

General Integration Accuracy     IntAcc      ...  4.340
Radial Grid Type                 RadialGrid  ... Gauss-Chebyshev
Angular Grid (max. acc.)         AngularGrid ... Lebedev-110
Angular grid pruning method      GridPruning ... 3 (G Style)
Weight generation scheme         WeightScheme... Becke
Basis function cutoff            BFCut       ...    1.0000e-10
Integration weight cutoff        WCut        ...    1.0000e-14
Grids for H and He will be reduced by one unit

# of grid points (after initial pruning)     ...   4900 (   0.0 sec)
# of grid points (after weights+screening)   ...   4820 (   0.0 sec)
nearest neighbour list constructed           ...    0.0 sec
Grid point re-assignment to atoms done       ...    0.0 sec
Grid point division into batches done        ...    0.0 sec
Reduced shell lists constructed in    0.2 sec

Total number of grid points                  ...     4820
Total number of batches                      ...       78
Average number of points per batch           ...       61
Average number of grid points per atom       ...     1205
Average number of shells per batch           ...    13.85 (86.55%)
Average number of basis functions per batch  ...    28.43 (88.84%)
Average number of large shells per batch     ...    12.92 (93.33%)
Average number of large basis fcns per batch ...    26.85 (94.43%)
Maximum spatial batch extension              ...  18.32, 38.86, 44.34 au
Average spatial batch extension              ...   4.06,  6.82,  7.18 au

Time for grid setup =    0.182 sec

------------------------------
INITIAL GUESS: MODEL POTENTIAL
------------------------------
Loading Hartree-Fock densities                     ... done
Calculating cut-offs                               ... done
Setting up the integral package                    ... done
Initializing the effective Hamiltonian             ... done
Starting the Coulomb interaction                   ... done (   0.0 sec)
Reading the grid                                   ... done
Mapping shells                                     ... done
Starting the XC term evaluation                    ... done (   0.0 sec)
  promolecular density results
     # of electrons  =     14.000429465
     EX              =    -10.718905080
     EC              =     -0.420659454
     EX+EC           =    -11.139564534
Transforming the Hamiltonian                       ... done (   0.0 sec)
Diagonalizing the Hamiltonian                      ... done (   0.0 sec)
Back transforming the eigenvectors                 ... done (   0.0 sec)
Now organizing SCF variables                       ... done
                      ------------------
                      INITIAL GUESS DONE (   0.5 sec)
                      ------------------
--------------
SCF ITERATIONS
--------------
ITER       Energy         Delta-E        Max-DP      RMS-DP      [F,P]   Gradient Norm
               ***  Starting incremental Fock matrix formation  ***
                             ****Resetting KDIIS****
                             ****Turning on KDIIS(Cayley)****
  0    -77.2360133737   0.000000000000 0.01258192  0.00163911  0.0953261   0.082029163
  1    -77.2515886439  -0.015575270191 0.01653424  0.00191990  0.0817373   0.069815058
  2    -77.2658079822  -0.014219338242 0.02559674  0.00306383  0.0662445   0.056499388
  3    -77.2826111363  -0.016803154183 0.03555777  0.00452239  0.0404213   0.034471884
Warning: badly conditioned DIIS matrix, 1 vectors out of 5 destroyed
  4    -77.2924386136  -0.009827477216 0.00053641  0.00007326  0.0004651   0.000392260
  5    -77.2924398496  -0.000001236011 0.00017012  0.00002237  0.0000359   0.000039023
Warning: badly conditioned DIIS matrix, 1 vectors out of 5 destroyed
                          ***Energy convergence achieved***
  6    -77.2924398576  -0.000000008042 0.00006428  0.00000755  0.0000388   0.000029809
Warning: badly conditioned DIIS matrix, 1 vectors out of 5 destroyed
                           ***RMSP convergence achieved***
                           ***MAXP convergence achieved***
                    *** KDIIS BlockDiag ( 0.000 sec) ***

               *****************************************************
               *                     SUCCESS                       *
               *           SCF CONVERGED AFTER   7 CYCLES          *
               *****************************************************

Setting up the final grid:

General Integration Accuracy     IntAcc      ...  4.670
Radial Grid Type                 RadialGrid  ... Gauss-Chebyshev
Angular Grid (max. acc.)         AngularGrid ... Lebedev-302
Angular grid pruning method      GridPruning ... 3 (G Style)
Weight generation scheme         WeightScheme... Becke
Basis function cutoff            BFCut       ...    1.0000e-10
Integration weight cutoff        WCut        ...    1.0000e-14
Grids for H and He will be reduced by one unit

# of grid points (after initial pruning)     ...  19212 (   0.0 sec)
# of grid points (after weights+screening)   ...  18858 (   0.0 sec)
nearest neighbour list constructed           ...    0.0 sec
Grid point re-assignment to atoms done       ...    0.0 sec
Grid point division into batches done        ...    0.1 sec
Reduced shell lists constructed in    0.2 sec

Total number of grid points                  ...    18858
Total number of batches                      ...      296
Average number of points per batch           ...       63
Average number of grid points per atom       ...     4714
Average number of shells per batch           ...    12.76 (79.78%)
Average number of basis functions per batch  ...    26.19 (81.85%)
Average number of large shells per batch     ...    11.52 (90.21%)
Average number of large basis fcns per batch ...    23.89 (91.22%)
Maximum spatial batch extension              ...  18.94, 25.72, 25.71 au
Average spatial batch extension              ...   2.91,  4.38,  4.33 au

Final grid set up in    0.3 sec
Final integration                            ... done (   0.3 sec)
Change in XC energy                          ...    -0.000236222
Integrated number of electrons               ...    13.999999420
Previous integrated no of electrons          ...    13.996763288

----------------
TOTAL SCF ENERGY
----------------

Total Energy       :          -77.29267609 Eh           -2103.24064 eV

Components:
Nuclear Repulsion  :           24.44315059 Eh             665.13194 eV
Electronic Energy  :         -101.73582668 Eh           -2768.37259 eV
One Electron Energy:         -151.31153679 Eh           -4117.39624 eV
Two Electron Energy:           49.57571011 Eh            1349.02366 eV

Virial components:
Potential Energy   :         -154.01045055 Eh           -4190.83742 eV
Kinetic Energy     :           76.71777446 Eh            2087.59677 eV
Virial Ratio       :            2.00749372


DFT components:
N(Alpha)           :        6.999999709898 electrons
N(Beta)            :        6.999999709898 electrons
N(Total)           :       13.999999419796 electrons
E(XC)              :       -7.827983521323 Eh       

---------------
SCF CONVERGENCE
---------------

  Last Energy change         ...   -7.3673e-09  Tolerance :   1.0000e-06
  Last MAX-Density change    ...    4.9858e-06  Tolerance :   1.0000e-05
  Last RMS-Density change    ...    5.0223e-07  Tolerance :   1.0000e-06
  Last DIIS Error            ...    1.7545e-06  Tolerance :   1.0000e-06

             **** THE GBW FILE WAS UPDATED (Scan_9.gbw) ****
             **** DENSITY FILE WAS UPDATED (Scan_9.scfp.tmp) ****
             **** ENERGY FILE WAS UPDATED (Scan_9.en.tmp) ****
----------------
ORBITAL ENERGIES
----------------

  NO   OCC          E(Eh)            E(eV) 
   0   2.0000     -10.294517      -280.1281 
   1   2.0000     -10.292671      -280.0778 
   2   2.0000      -0.853141       -23.2152 
   3   2.0000      -0.677906       -18.4468 
   4   2.0000      -0.592426       -16.1207 
   5   2.0000      -0.372359       -10.1324 
   6   2.0000      -0.372359       -10.1324 
   7   0.0000       0.131909         3.5894 
   8   0.0000       0.131909         3.5894 
   9   0.0000       0.205044         5.5795 
  10   0.0000       0.255252         6.9458 
  11   0.0000       0.513625        13.9764 
  12   0.0000       0.572761        15.5856 
  13   0.0000       0.638766        17.3817 
  14   0.0000       0.638766        17.3817 
  15   0.0000       0.756073        20.5738 
  16   0.0000       0.756073        20.5738 
  17   0.0000       0.855199        23.2712 
  18   0.0000       0.941255        25.6129 
  19   0.0000       1.137874        30.9631 
  20   0.0000       1.298163        35.3248 
  21   0.0000       1.583587        43.0916 
  22   0.0000       1.583587        43.0916 
  23   0.0000       1.611381        43.8479 
  24   0.0000       1.648240        44.8509 
  25   0.0000       1.648512        44.8583 
  26   0.0000       2.023590        55.0647 
  27   0.0000       2.023681        55.0672 
  28   0.0000       2.552045        69.4447 
  29   0.0000       2.552046        69.4447 
  30   0.0000       2.580184        70.2104 
  31   0.0000       3.276809        89.1665 

                    ********************************
                    * MULLIKEN POPULATION ANALYSIS *
                    ********************************

-----------------------
MULLIKEN ATOMIC CHARGES
-----------------------
   0 C :   -0.230975
   1 C :   -0.230975
   2 H :    0.230975
   3 H :    0.230975
Sum of atomic charges:    0.0000000

--------------------------------
MULLIKEN REDUCED ORBITAL CHARGES
--------------------------------
  0 C s       :     3.236135  s :     3.236135
      pz      :     0.994234  p :     2.972700
      px      :     0.984234
      py      :     0.994232
      dz2     :     0.002652  d :     0.022140
      dxz     :     0.005766
      dyz     :     0.000000
      dx2y2   :     0.007955
      dxy     :     0.005766
  1 C s       :     3.236135  s :     3.236135
      pz      :     0.994234  p :     2.972700
      px      :     0.984234
      py      :     0.994232
      dz2     :     0.002652  d :     0.022140
      dxz     :     0.005766
      dyz     :     0.000000
      dx2y2   :     0.007955
      dxy     :     0.005766
  2 H s       :     0.769025  s :     0.769025
  3 H s       :     0.769025  s :     0.769025


                     *******************************
                     * LOEWDIN POPULATION ANALYSIS *
                     *******************************

----------------------
LOEWDIN ATOMIC CHARGES
----------------------
   0 C :   -0.171938
   1 C :   -0.171938
   2 H :    0.171938
   3 H :    0.171938

-------------------------------
LOEWDIN REDUCED ORBITAL CHARGES
-------------------------------
  0 C s       :     3.012415  s :     3.012415
      pz      :     0.988200  p :     3.113545
      px      :     1.137141
      py      :     0.988204
      dz2     :     0.005594  d :     0.045978
      dxz     :     0.011800
      dyz     :     0.000000
      dx2y2   :     0.016783
      dxy     :     0.011801
  1 C s       :     3.012415  s :     3.012415
      pz      :     0.988200  p :     3.113545
      px      :     1.137141
      py      :     0.988204
      dz2     :     0.005594  d :     0.045978
      dxz     :     0.011800
      dyz     :     0.000000
      dx2y2   :     0.016783
      dxy     :     0.011801
  2 H s       :     0.828062  s :     0.828062
  3 H s       :     0.828062  s :     0.828062


                      *****************************
                      * MAYER POPULATION ANALYSIS *
                      *****************************

  NA   - Mulliken gross atomic population
  ZA   - Total nuclear charge
  QA   - Mulliken gross atomic charge
  VA   - Mayer's total valence
  BVA  - Mayer's bonded valence
  FA   - Mayer's free valence

  ATOM       NA         ZA         QA         VA         BVA        FA
  0 C      6.2310     6.0000    -0.2310     3.9472     3.9472     0.0000
  1 C      6.2310     6.0000    -0.2310     3.9472     3.9472    -0.0000
  2 H      0.7690     1.0000     0.2310     0.9196     0.9196    -0.0000
  3 H      0.7690     1.0000     0.2310     0.9196     0.9196     0.0000

  Mayer bond orders larger than 0.1
B(  0-C ,  1-C ) :   3.0304 B(  0-C ,  2-H ) :   0.9059 B(  1-C ,  3-H ) :   0.9059 


-------
TIMINGS
-------

Total SCF time: 0 days 0 hours 0 min 8 sec 

Total time                  ....       8.554 sec
Sum of individual times     ....       8.186 sec  ( 95.7%)

Fock matrix formation       ....       7.082 sec  ( 82.8%)
  XC integration            ....       1.967 sec  ( 27.8% of F)
    Basis function eval.    ....       0.496 sec  ( 25.2% of XC)
    Density eval.           ....       0.127 sec  (  6.5% of XC)
    XC-Functional eval.     ....       0.568 sec  ( 28.9% of XC)
    XC-Potential eval.      ....       0.185 sec  (  9.4% of XC)
Diagonalization             ....       0.262 sec  (  3.1%)
Density matrix formation    ....       0.000 sec  (  0.0%)
Population analysis         ....       0.031 sec  (  0.4%)
Initial guess               ....       0.338 sec  (  4.0%)
Orbital Transformation      ....       0.000 sec  (  0.0%)
Orbital Orthonormalization  ....       0.000 sec  (  0.0%)
DIIS solution               ....       0.000 sec  (  0.0%)
Grid generation             ....       0.473 sec  (  5.5%)


-------------------------------------------------------------------------------
                          DFT DISPERSION CORRECTION                            
                                                                               
                              DFTD3 V3.1  Rev 1                                
                              USING zero damping                               
-------------------------------------------------------------------------------
The omegaB97X-D3 functional is recognized. Fit by Chai et al.
Active option DFTDOPT                   ...         3   

molecular C6(AA) [au] = 206.656861 


            DFT-D V3
 parameters
 s6 scaling factor         :     1.0000 
 rs6 scaling factor        :     1.2810 
 s8 scaling factor         :     1.0000 
 rs8 scaling factor        :     1.0940 
 Damping factor alpha6     :    14.0000 
 Damping factor alpha8     :    16.0000 
 ad hoc parameters k1-k3   :    16.0000     1.3333    -4.0000 

 Edisp/kcal,au: -0.057101497495  -0.000090997019 
 E6   /kcal   :  -0.024176972 
 E8   /kcal   :  -0.032924525 
 % E8         :  57.659652829 

-------------------------   ----------------
Dispersion correction           -0.000090997
-------------------------   ----------------


-------------------------   --------------------
FINAL SINGLE POINT ENERGY       -77.292767084406
-------------------------   --------------------


                            ***************************************
                            *     ORCA property calculations      *
                            ***************************************

                                    ---------------------
                                    Active property flags
                                    ---------------------
   (+) Dipole Moment


------------------------------------------------------------------------------
                       ORCA ELECTRIC PROPERTIES CALCULATION
------------------------------------------------------------------------------

Dipole Moment Calculation                       ... on
Quadrupole Moment Calculation                   ... off
Polarizability Calculation                      ... off
GBWName                                         ... Scan_9.gbw
Electron density file                           ... Scan_9.scfp.tmp

-------------
DIPOLE MOMENT
-------------
                                X             Y             Z
Electronic contribution:      0.00000       0.00000       0.00000
Nuclear contribution   :     -0.00000       0.00000       0.00000
                        -----------------------------------------
Total Dipole Moment    :      0.00000       0.00000       0.00000
                        -----------------------------------------
Magnitude (a.u.)       :      0.00000
Magnitude (Debye)      :      0.00000


Timings for individual modules:

Sum of individual times         ...        9.669 sec (=   0.161 min)
GTO integral calculation        ...        1.032 sec (=   0.017 min)  10.7 %
SCF iterations                  ...        8.636 sec (=   0.144 min)  89.3 %
                             ****ORCA TERMINATED NORMALLY****
TOTAL RUN TIME: 0 days 0 hours 0 minutes 11 seconds 90 msec
