6
Point_12/orca12.out	Energy:    -115.6671402
C         -4.06928        2.34984        0.04307
O         -2.52173        2.22572       -0.10200
H         -4.34589        3.37793       -0.16269
H         -4.33932        2.04481        1.04799
H         -4.46075        1.67139       -0.70188
H         -2.15015        2.82194        0.55251
