6
Point_13/orca13.out	Energy:    -115.6555955
C         -4.10774        2.35037        0.04386
O         -2.47652        2.22344       -0.10475
H         -4.35212        3.38200       -0.16505
H         -4.34552        2.04204        1.05184
H         -4.47270        1.66735       -0.70626
H         -2.13251        2.82644        0.55736
