6
Point_14/orca14.out	Energy:    -115.6410559
C         -4.14928        2.35128        0.04509
O         -2.42708        2.22124       -0.10744
H         -4.36133        3.38604       -0.16726
H         -4.35469        2.03939        1.05569
H         -4.48442        1.66317       -0.71079
H         -2.11031        2.83051        0.56173
