6
Point_15/orca15.out	Energy:    -115.6244108
C         -4.19359        2.35093        0.04494
O         -2.37346        2.22072       -0.10831
H         -4.37198        3.38983       -0.16952
H         -4.36532        2.03673        1.05930
H         -4.50074        1.65821       -0.71617
H         -2.08202        2.83522        0.56676
