6
Point_16/orca16.out	Energy:    -115.6064642
C         -4.24105        2.35255        0.04698
O         -2.31655        2.21879       -0.11074
H         -4.38674        3.39353       -0.17156
H         -4.38004        2.03425        1.06286
H         -4.51175        1.65398       -0.72077
H         -2.05099        2.83853        0.57023
