6
Point_17/orca17.out	Energy:    -115.5877676
C         -4.29344        2.35267        0.04740
O         -2.25765        2.21995       -0.10977
H         -4.40360        3.39582       -0.17409
H         -4.39686        2.03143        1.06497
H         -4.52768        1.64937       -0.72576
H         -2.00788        2.84239        0.57425
