6
Point_18/orca18.out	Energy:    -115.5692115
C         -4.34796        2.35341        0.04852
O         -2.19650        2.22077       -0.10920
H         -4.42411        3.39779       -0.17625
H         -4.41737        2.02898        1.06683
H         -4.54118        1.64509       -0.73040
H         -1.96000        2.84559        0.57751
