6
Point_19/orca19.out	Energy:    -115.5514570
C         -4.40474        2.35368        0.04912
O         -2.13517        2.22299       -0.10710
H         -4.44866        3.39877       -0.17830
H         -4.44190        2.02672        1.06773
H         -4.55451        1.64116       -0.73465
H         -1.90213        2.84831        0.58020
