6
Point_2/orca2.out	Energy:    -115.5583503
C         -3.84946        2.34426        0.03573
O         -2.76126        2.24953       -0.07448
H         -4.34241        3.36493       -0.15447
H         -4.33596        2.05426        1.03582
H         -4.40062        1.68855       -0.68330
H         -2.19739        2.79010        0.51770
