6
Point_20/orca20.out	Energy:    -115.5349319
C         -4.46223        2.35331        0.04903
O         -2.07453        2.22685       -0.10318
H         -4.47674        3.39837       -0.18032
H         -4.46997        2.02459        1.06728
H         -4.56937        1.63754       -0.73856
H         -1.83427        2.85097        0.58276
