6
Point_21/orca21.out	Energy:    -115.5198836
C         -4.51821        2.35195        0.04783
O         -2.01440        2.23322       -0.09649
H         -4.51155        3.39660       -0.18252
H         -4.50478        2.02238        1.06548
H         -4.58741        1.63411       -0.74224
H         -1.75076        2.85337        0.58495
