6
Point_24/orca24.out	Energy:    -115.4795928
C         -4.69239        2.34311        0.03904
O         -1.85229        2.28421       -0.04123
H         -4.69058        3.38848       -0.18928
H         -4.68382        2.01546        1.05763
H         -4.61640        1.62587       -0.75116
H         -1.35163        2.83450        0.56200
