6
Point_27/orca27.out	Energy:    -115.3653296
C         -4.85653        2.43524        0.14138
O         -1.70374        2.33145        0.01009
H         -5.39752        3.13941       -0.45784
H         -5.39079        1.76829        0.78740
H         -3.78140        2.39332        0.08941
H         -0.75713        2.42392        0.10656
