6
Point_29/orca29.out	Energy:    -115.4280499
C         -4.92664        2.43236        0.13859
O         -1.56807        2.35738        0.03784
H         -5.46653        3.14009       -0.45699
H         -5.45982        1.76870        0.78849
H         -3.85233        2.39269        0.08913
H         -0.61372        2.40042        0.07994
