6
Point_36/orca36.out	Energy:    -115.3054071
C         -5.16646        2.43718        0.14520
O         -1.09073        2.36924        0.04827
H         -5.70464        3.13653       -0.46078
H         -5.69790        1.76398        0.78576
H         -4.09426        2.41135        0.11096
H         -0.13312        2.37336        0.04758
