6
Point_42/orca42.out	Energy:    -115.2806621
C         -5.37116        2.44041        0.14988
O         -0.68110        2.36685        0.04341
H         -5.90921        3.13755       -0.45838
H         -5.90245        1.76516        0.78802
H         -4.30011        2.41835        0.11978
H          0.27692        2.36330        0.03428
