6
Point_44/orca44.out	Energy:    -115.2745569
C         -5.43936        2.44146        0.15140
O         -0.54464        2.36538        0.04106
H         -5.97738        3.13816       -0.45727
H         -5.97063        1.76583        0.78907
H         -4.36857        2.42013        0.12212
H          0.41346        2.36066        0.03064
