6
Point_6/orca6.out	Energy:    -115.6428261
C         -3.90713        2.34689        0.03895
O         -2.70195        2.24189       -0.08322
H         -4.33968        3.36331       -0.15400
H         -4.33323        2.05490        1.03424
H         -4.41314        1.68631       -0.68570
H         -2.19197        2.79833        0.52674
