6
Point_7/orca7.out	Energy:    -115.6576866
C         -3.92656        2.34757        0.03979
O         -2.68150        2.23940       -0.08607
H         -4.33907        3.36414       -0.15466
H         -4.33261        2.05416        1.03500
H         -4.41800        1.68506       -0.68705
H         -2.18938        2.80130        0.52999
