6
Point_8/orca8.out	Energy:    -115.6688324
C         -3.94872        2.34817        0.04058
O         -2.65784        2.23669       -0.08918
H         -4.33868        3.36563       -0.15561
H         -4.33221        2.05308        1.03639
H         -4.42385        1.68335       -0.68890
H         -2.18581        2.80470        0.53372
