12
Point_10/orca10.out	Energy:    -232.1722537
C          1.52802       -2.85005        0.00000
H          2.60385       -2.93241        0.00000
C          0.92165       -1.58571       -0.00000
H          1.53089       -0.69519       -0.00000
C         -0.47649       -1.47867       -0.00000
H         -0.94308       -0.50579       -0.00000
C         -1.26825       -2.63597        0.00000
H         -2.34408       -2.55361        0.00000
C         -0.66188       -3.90031       -0.00000
H         -1.27112       -4.79083       -0.00000
C          0.73625       -4.00735       -0.00000
H          1.20284       -4.98022       -0.00000
