12
Point_11/orca11.out	Energy:    -232.1512164
C          1.58274       -2.85423        0.00000
H          2.65481       -2.93631        0.00000
C          0.95264       -1.54041       -0.00000
H          1.55975       -0.65301       -0.00000
C         -0.50022       -1.42918       -0.00000
H         -0.96518       -0.45971       -0.00000
C         -1.32297       -2.63178        0.00000
H         -2.39504       -2.54971        0.00000
C         -0.69287       -3.94561       -0.00000
H         -1.29998       -4.83301       -0.00000
C          0.75999       -4.05683       -0.00000
H          1.22495       -5.02631       -0.00000
