12
Point_15/orca15.out	Energy:    -231.6999861
C          1.89034       -2.87776        0.12176
H          2.93521       -2.95778       -0.08072
C          1.12681       -1.28578       -0.12176
H          1.71855       -0.42092        0.08071
C         -0.63364       -1.15102        0.12185
H         -1.08678       -0.20617       -0.08077
C         -1.63057       -2.60821       -0.12185
H         -2.67541       -2.52825        0.08077
C         -0.86709       -4.20021        0.12174
H         -1.45877       -5.06512       -0.08071
C          0.89339       -4.33500       -0.12169
H          1.34658       -5.27989        0.08068
