12
Point_17/orca17.out	Energy:    -231.3428535
C          2.08184       -2.89255        0.24854
H          3.06421       -2.96765       -0.19272
C          1.23525       -1.12730       -0.24817
H          1.79164       -0.31410        0.19285
C         -0.71685       -0.97803        0.24851
H         -1.14273       -0.08946       -0.19281
C         -1.82205       -2.59372       -0.24956
H         -2.80420       -2.51844        0.19282
C         -0.97550       -4.35850        0.24950
H         -1.53171       -5.17174       -0.19241
C          0.97623       -4.50806       -0.24885
H          1.40248       -5.39656        0.19229
