12
Point_18/orca18.out	Energy:    -231.1964148
C          2.20045       -2.90137        0.26670
H          3.13075       -2.97266       -0.29299
C          1.30273       -1.02921       -0.26635
H          1.82942       -0.25907        0.29325
C         -0.76776       -0.86996        0.26529
H         -1.17174       -0.02903       -0.29371
C         -1.94099       -2.58421       -0.26401
H         -2.87178       -2.51329        0.29353
C         -1.04251       -4.45747        0.26448
H         -1.56999       -5.22751       -0.29338
C          1.02854       -4.61550       -0.26611
H          1.43149       -5.45683        0.29330
