12
Point_19/orca19.out	Energy:    -231.0739368
C          2.34536       -2.91280        0.22330
H          3.16064       -2.97507       -0.50525
C          1.38489       -0.90940       -0.22245
H          1.84547       -0.23401        0.50662
C         -0.83119       -0.73940        0.22120
H         -1.18430       -0.00285       -0.50891
C         -2.08666       -2.57369       -0.22149
H         -2.89939       -2.51069        0.51030
C         -1.12494       -4.57725        0.22183
H         -1.58591       -5.25099       -0.50857
C          1.09059       -4.74599       -0.22234
H          1.44404       -5.48396        0.50574
