12
Point_26/orca26.out	Energy:    -230.6640020
C          3.16000       -2.97503       -0.11113
H          3.12778       -2.97251       -1.22194
C          1.84550       -0.23470        0.11356
H          1.82525       -0.26107        1.22434
C         -1.18448       -0.00291       -0.11722
H         -1.17040       -0.03518       -1.22792
C         -2.89988       -2.51095        0.11712
H         -2.86370       -2.51342        1.22780
C         -1.58611       -5.25092       -0.11608
H         -1.56754       -5.22146       -1.22680
C          1.44389       -5.48345        0.11374
H          1.42831       -5.45452        1.22453
