12
Point_28/orca28.out	Energy:    -230.6124700
C          3.37708       -2.99178        0.02838
H          3.35845       -2.99018       -1.08282
C          1.96917       -0.05514       -0.02597
H          1.95559       -0.06967        1.08521
C         -1.27807        0.19404        0.02232
H         -1.27112        0.17409       -1.08884
C         -3.11629       -2.49443       -0.02245
H         -3.09589       -2.49558        1.08872
C         -1.70832       -5.43118        0.02349
H         -1.69888       -5.41288       -1.08768
C          1.53892       -5.68013       -0.02577
H          1.52795       -5.66327        1.08540
