12
Point_29/orca29.out	Energy:    -230.5880488
C          3.47899       -2.99966        0.06722
H          3.47435       -2.99894       -1.04396
C          2.02724        0.02864       -0.06454
H          2.02040        0.02695        1.04663
C         -1.32145        0.28592        0.06046
H         -1.32235        0.27868       -1.05071
C         -3.21701       -2.48677       -0.06048
H         -3.21199       -2.48658        1.05070
C         -1.76506       -5.51538        0.06173
H         -1.76552       -5.50834       -1.04944
C          1.58364       -5.77201       -0.06438
H          1.57738       -5.76860        1.04678
