12
Point_30/orca30.out	Energy:    -230.5649806
C          3.57830       -3.00739        0.11398
H          3.57391       -3.00638       -0.99759
C          2.08399        0.10972       -0.11087
H          2.07527        0.11050        1.00067
C         -1.36310        0.37510        0.10609
H         -1.36715        0.36813       -1.00547
C         -3.31416       -2.47944       -0.10588
H         -3.31175       -2.47874        1.00570
C         -1.81964       -5.59727        0.10748
H         -1.82359       -5.58977       -1.00407
C          1.62748       -5.86111       -0.11079
H          1.61904       -5.85946        1.00075
