12
Point_35/orca35.out	Energy:    -230.4407840
C          4.21369       -2.56303        0.38524
H          3.99858       -3.55758       -0.07303
C          1.95503        0.63337       -0.32094
H          2.68969        0.28541        0.42747
C         -1.99871        0.58858        0.09705
H         -1.17377        0.93186       -0.57796
C         -3.79424       -2.95812        0.01731
H         -3.74392       -1.93272        0.44812
C         -1.66226       -6.31219        0.10053
H         -2.50592       -5.62151       -0.13611
C          2.27906       -5.96789       -0.30810
H          1.30139       -6.44230       -0.05957
