12
Point_38/orca38.out	Energy:    -230.4159878
C          4.43824       -2.50866        0.12842
H          4.34129       -3.61609        0.10388
C          2.07673        1.06042       -0.04723
H          3.00089        0.44417        0.00347
C         -2.19908        0.80986       -0.07193
H         -1.19502        1.28677       -0.09839
C         -4.18847       -2.97832        0.12277
H         -4.09316       -1.87076        0.09477
C         -1.81181       -6.53848       -0.02802
H         -2.73552       -5.92219        0.02827
C          2.46424       -6.30279       -0.10365
H          1.46028       -6.78006       -0.13237
