12
Point_4/orca4.out	Energy:    -231.8287911
C          1.31627       -2.83383       -0.00000
H          2.41951       -2.91829        0.00000
C          0.80173       -1.76099       -0.00000
H          1.42650       -0.84778       -0.00000
C         -0.38465       -1.67016       -0.00000
H         -0.86313       -0.67249       -0.00000
C         -1.05650       -2.65218       -0.00000
H         -2.15974       -2.56772       -0.00000
C         -0.54196       -3.72503       -0.00000
H         -1.16673       -4.63824       -0.00000
C          0.64442       -3.81586       -0.00000
H          1.12290       -4.81353        0.00000
