12
Point_43/orca43.out	Energy:    -230.3815958
C          4.95498       -2.54833        0.14109
H          4.86947       -3.65729        0.11599
C          2.36908        1.48528       -0.04469
H          3.29836        0.87565        0.00530
C         -2.42082        1.27001       -0.08776
H         -1.42052        1.75608       -0.11679
C         -4.70713       -2.93862        0.13933
H         -4.61864       -1.82986        0.11531
C         -2.10341       -6.96150       -0.02934
H         -3.03431       -6.35472        0.02491
C          2.68666       -6.76483       -0.11808
H          1.68488       -7.24797       -0.14528
