12
Point_7/orca7.out	Energy:    -232.0787168
C          1.40319       -2.84049       -0.00000
H          2.49184       -2.92383        0.00000
C          0.85096       -1.68903       -0.00000
H          1.46746       -0.78790       -0.00000
C         -0.42235       -1.59155       -0.00000
H         -0.89450       -0.60708       -0.00000
C         -1.14343       -2.64553       -0.00000
H         -2.23207       -2.56219       -0.00000
C         -0.59119       -3.79699       -0.00000
H         -1.20769       -4.69811       -0.00000
C          0.68212       -3.89447       -0.00000
H          1.15427       -4.87894        0.00000
