12
Point_9/orca9.out	Energy:    -232.1642261
C          1.48083       -2.84643       -0.00000
H          2.56081       -2.92911        0.00000
C          0.89492       -1.62477       -0.00000
H          1.50652       -0.73081       -0.00000
C         -0.45602       -1.52135       -0.00000
H         -0.92441       -0.54471       -0.00000
C         -1.22106       -2.63959       -0.00000
H         -2.30105       -2.55691       -0.00000
C         -0.63516       -3.86125       -0.00000
H         -1.24675       -4.75521       -0.00000
C          0.71579       -3.96467        0.00000
H          1.18418       -4.94131        0.00000
