4
Point_1/orca1.out	Energy:     -77.2276075
C         -2.78616        2.62585       -0.00000
C         -1.73835        2.63139        0.00000
H         -3.84277        2.62026        0.00000
H         -0.68174        2.63698       -0.00000
