4
Point_10/orca10.out	Energy:     -77.2855909
C         -2.89847        2.62525       -0.00000
C         -1.62604        2.63199        0.00000
H         -3.94576        2.61971       -0.00000
H         -0.57875        2.63753        0.00000
