4
Point_11/orca11.out	Energy:     -77.2717033
C         -2.92138        2.62513       -0.00000
C         -1.60313        2.63211        0.00000
H         -3.96774        2.61960       -0.00000
H         -0.55677        2.63764        0.00000
