4
Point_12/orca12.out	Energy:     -77.2490848
C         -2.94904        2.62499       -0.00000
C         -1.57547        2.63225        0.00000
H         -3.99385        2.61946       -0.00000
H         -0.53066        2.63778        0.00000
