4
Point_13/orca13.out	Energy:     -77.2152329
C         -2.98320        2.62481       -0.00000
C         -1.54131        2.63243        0.00000
H         -4.02739        2.61928       -0.00000
H         -0.49712        2.63796        0.00000
