4
Point_14/orca14.out	Energy:     -77.1661490
C         -3.02691        2.62457       -0.00000
C         -1.49760        2.63267        0.00000
H         -4.07031        2.61906       -0.00000
H         -0.45420        2.63818        0.00000
