4
Point_15/orca15.out	Energy:     -77.0986624
C         -3.08350        2.62427       -0.00000
C         -1.44101        2.63297        0.00000
H         -4.12607        2.61876       -0.00000
H         -0.39844        2.63848        0.00000
