4
Point_16/orca16.out	Energy:     -77.0156684
C         -3.15355        2.62390       -0.00000
C         -1.37096        2.63334        0.00000
H         -4.19653        2.61841       -0.00000
H         -0.32798        2.63883        0.00000
