4
Point_17/orca17.out	Energy:     -76.9240165
C         -3.23687        2.62341       -0.00000
C         -1.28764        2.63383        0.00000
H         -4.28474        2.61810        0.00000
H         -0.23977        2.63914       -0.00000
