4
Point_18/orca18.out	Energy:     -76.8078875
C         -3.36200        2.62209       -0.00000
C         -1.16251        2.63515        0.00000
H         -4.45653        2.62119        0.00000
H         -0.06798        2.63605       -0.00000
