4
Point_19/orca19.out	Energy:     -76.9540996
C         -3.39343        2.55754       -0.00000
C         -1.13111        2.69969        0.00000
H         -3.72952        3.60913       -0.00000
H         -0.79497        1.64813        0.00000
