4
Point_2/orca2.out	Energy:     -77.2428617
C         -2.79432        2.62581       -0.00000
C         -1.73019        2.63144        0.00000
H         -3.84998        2.62022        0.00000
H         -0.67453        2.63702       -0.00000
