4
Point_20/orca20.out	Energy:     -76.9429345
C         -3.45193        2.55597       -0.00000
C         -1.07258        2.70127        0.00000
H         -3.75045        3.62148       -0.00000
H         -0.77406        1.63576        0.00000
