4
Point_21/orca21.out	Energy:     -76.9319794
C         -3.50941        2.55604       -0.00000
C         -1.01510        2.70120       -0.00000
H         -3.77147        3.63264        0.00000
H         -0.75304        1.62460        0.00000
