4
Point_22/orca22.out	Energy:     -76.9216821
C         -3.56618        2.55445       -0.00000
C         -0.95833        2.70278        0.00000
H         -3.78752        3.64189        0.00000
H         -0.73699        1.61535        0.00000
