4
Point_23/orca23.out	Energy:     -76.9115566
C         -3.62210        2.55667        0.00000
C         -0.90240        2.70058        0.00000
H         -3.80816        3.65099       -0.00000
H         -0.71636        1.60624       -0.00000
