4
Point_24/orca24.out	Energy:     -76.9020999
C         -3.67706        2.55781        0.00000
C         -0.84745        2.69943        0.00000
H         -3.82474        3.65840       -0.00000
H         -0.69977        1.59884       -0.00000
