4
Point_25/orca25.out	Energy:     -76.8932304
C         -3.73113        2.55864        0.00000
C         -0.79338        2.69860        0.00000
H         -3.83850        3.66427       -0.00000
H         -0.68601        1.59297       -0.00000
