4
Point_26/orca26.out	Energy:     -76.8848584
C         -3.78445        2.55929        0.00000
C         -0.74006        2.69795        0.00000
H         -3.84951        3.66853       -0.00000
H         -0.67500        1.58871       -0.00000
