4
Point_27/orca27.out	Energy:     -76.8768712
C         -3.83716        2.55993       -0.00000
C         -0.68735        2.69731       -0.00000
H         -3.85795        3.67114        0.00000
H         -0.66656        1.58610        0.00000
