4
Point_28/orca28.out	Energy:     -76.8692152
C         -3.88942        2.56088       -0.00000
C         -0.63509        2.69636       -0.00000
H         -3.86446        3.67220        0.00000
H         -0.66005        1.58504        0.00000
