4
Point_29/orca29.out	Energy:     -76.8618692
C         -3.94136        2.56252       -0.00000
C         -0.58315        2.69472       -0.00000
H         -3.87003        3.67197        0.00000
H         -0.65448        1.58527        0.00000
