4
Point_3/orca3.out	Energy:     -77.2567297
C         -2.80316        2.62576       -0.00000
C         -1.72135        2.63148        0.00000
H         -3.85783        2.62018        0.00000
H         -0.66668        2.63706       -0.00000
