4
Point_30/orca30.out	Energy:     -76.8548195
C         -3.99310        2.56519        0.00000
C         -0.53142        2.69205        0.00000
H         -3.87582        3.67081       -0.00000
H         -0.64869        1.58643       -0.00000
