4
Point_31/orca31.out	Energy:     -76.8480867
C         -4.04470        2.56910        0.00000
C         -0.47981        2.68814        0.00000
H         -3.88285        3.66914       -0.00000
H         -0.64165        1.58810       -0.00000
