4
Point_32/orca32.out	Energy:     -76.8417207
C         -4.09623        2.57434        0.00000
C         -0.42828        2.68290        0.00000
H         -3.89193        3.66731       -0.00000
H         -0.63258        1.58993       -0.00000
