4
Point_33/orca33.out	Energy:     -76.8357467
C         -4.14771        2.58086       -0.00000
C         -0.37680        2.67638       -0.00000
H         -3.90347        3.66561        0.00000
H         -0.62104        1.59163        0.00000
