4
Point_34/orca34.out	Energy:     -76.8301766
C         -4.19915        2.58856       -0.00000
C         -0.32536        2.66868       -0.00000
H         -3.91765        3.66423        0.00000
H         -0.60686        1.59301        0.00000
