4
Point_35/orca35.out	Energy:     -76.8250286
C         -4.25054        2.59727       -0.00000
C         -0.27397        2.65997       -0.00000
H         -3.93442        3.66328        0.00000
H         -0.59009        1.59396        0.00000
