4
Point_36/orca36.out	Energy:     -76.8203155
C         -4.30188        2.60686       -0.00000
C         -0.22263        2.65038        0.00000
H         -3.95362        3.66280        0.00000
H         -0.57089        1.59444        0.00000
