4
Point_37/orca37.out	Energy:     -76.8160264
C         -4.35316        2.61717        0.00000
C         -0.17135        2.64007        0.00000
H         -3.97502        3.66279       -0.00000
H         -0.54949        1.59445       -0.00000
