4
Point_38/orca38.out	Energy:     -76.8121407
C         -4.40438        2.62809        0.00000
C         -0.12013        2.62915        0.00000
H         -3.99838        3.66322       -0.00000
H         -0.52613        1.59402       -0.00000
