4
Point_39/orca39.out	Energy:     -76.8087175
C         -4.45542        2.64013       -0.00000
C         -0.06910        2.61711        0.00000
H         -4.03173        3.66823       -0.00000
H         -0.49278        1.58901        0.00000
