4
Point_4/orca4.out	Energy:     -77.2689681
C         -2.81277        2.62571        0.00000
C         -1.71174        2.63153       -0.00000
H         -3.86644        2.62013        0.00000
H         -0.65807        2.63711       -0.00000
