4
Point_40/orca40.out	Energy:     -76.8056184
C         -4.50647        2.65244       -0.00000
C         -0.01804        2.60480       -0.00000
H         -4.06614        3.67352        0.00000
H         -0.45837        1.58372        0.00000
