4
Point_41/orca41.out	Energy:     -76.8030904
C         -4.55702        2.66631        0.00000
C          0.03251        2.59093        0.00000
H         -4.13078        3.69437       -0.00000
H         -0.39373        1.56287       -0.00000
