4
Point_42/orca42.out	Energy:     -76.8004133
C         -4.60842        2.67880        0.00000
C          0.08391        2.57844        0.00000
H         -4.15595        3.69442       -0.00000
H         -0.36856        1.56282       -0.00000
