4
Point_43/orca43.out	Energy:     -76.7981123
C         -4.65922        2.69130       -0.00000
C          0.13471        2.56594        0.00000
H         -4.19011        3.69951       -0.00000
H         -0.33440        1.55773        0.00000
