4
Point_44/orca44.out	Energy:     -76.7962206
C         -4.70959        2.70464        0.00000
C          0.18508        2.55260        0.00000
H         -4.25416        3.72015       -0.00000
H         -0.27035        1.53709       -0.00000
