4
Point_45/orca45.out	Energy:     -76.7942018
C         -4.76080        2.71767        0.00000
C          0.23629        2.53958        0.00000
H         -4.27942        3.71993       -0.00000
H         -0.24509        1.53731       -0.00000
