4
Point_5/orca5.out	Energy:     -77.2793144
C         -2.82330        2.62565       -0.00000
C         -1.70121        2.63159        0.00000
H         -3.87595        2.62008        0.00000
H         -0.64856        2.63716       -0.00000
