4
Point_6/orca6.out	Energy:     -77.2874083
C         -2.83493        2.62559        0.00000
C         -1.68958        2.63165       -0.00000
H         -3.88654        2.62003        0.00000
H         -0.63797        2.63721       -0.00000
