4
Point_7/orca7.out	Energy:     -77.2927488
C         -2.84780        2.62552       -0.00000
C         -1.67671        2.63172        0.00000
H         -3.89829        2.61997       -0.00000
H         -0.62622        2.63727        0.00000
