4
Point_8/orca8.out	Energy:     -77.2948321
C         -2.86243        2.62545       -0.00000
C         -1.66208        2.63179        0.00000
H         -3.91191        2.61989       -0.00000
H         -0.61260        2.63735        0.00000
