4
Point_9/orca9.out	Energy:     -77.2927671
C         -2.87914        2.62536       -0.00000
C         -1.64537        2.63188        0.00000
H         -3.92693        2.61981       -0.00000
H         -0.59758        2.63743        0.00000
