6
Point_12/orca12.out	Energy:     -78.5338115
C         -1.76254        1.27150       -0.00018
C         -0.27521        1.27905        0.00018
H         -2.28965        0.56037       -0.60200
H         -2.29714        1.97660        0.60211
H          0.25938        0.57394       -0.60211
H          0.25190        1.99017        0.60200
