6
Point_18/orca18.out	Energy:     -78.3299013
C         -2.06171        1.14959        0.14134
C          0.02396        1.40095       -0.14134
H         -2.48170        0.58442       -0.66092
H         -2.48934        2.02971        0.56789
H          0.45159        0.52083       -0.56789
H          0.44394        1.96612        0.66092
