6
Point_22/orca22.out	Energy:     -78.2460529
C         -2.28591        1.08269        0.21863
C          0.24814        1.46782       -0.21859
H         -2.64204        0.60859       -0.67680
H         -2.64961        2.04051        0.54064
H          0.61186        0.51003       -0.54068
H          0.60429        1.94198        0.67680
