6
Point_24/orca24.out	Energy:     -78.2286046
C         -2.39318        1.05501        0.25052
C          0.35542        1.49553       -0.25052
H         -2.70207        0.61724       -0.68247
H         -2.70961        2.04435        0.53088
H          0.67185        0.50619       -0.53088
H          0.66431        1.93330        0.68247
