6
Point_27/orca27.out	Energy:     -78.2116734
C         -2.54418        1.01376        0.29810
C          0.50651        1.53684       -0.29816
H         -2.72773        0.62678       -0.69014
H         -2.73526        2.05022        0.52010
H          0.69746        0.50032       -0.52005
H          0.68993        1.92371        0.69015
