6
Point_29/orca29.out	Energy:     -78.2063114
C         -2.64489        0.99568        0.31873
C          0.60716        1.55486       -0.31874
H         -2.73278        0.62788       -0.69028
H         -2.74029        2.05016        0.51897
H          0.70252        0.50038       -0.51897
H          0.69500        1.92267        0.69029
