6
Point_30/orca30.out	Energy:     -78.2052175
C         -2.69608        0.99008        0.32500
C          0.65834        1.56046       -0.32500
H         -2.73678        0.62660       -0.68863
H         -2.74430        2.04870        0.52047
H          0.70652        0.50184       -0.52048
H          0.69901        1.92394        0.68863
