6
Point_31/orca31.out	Energy:     -78.2047054
C         -2.74789        0.98649        0.32891
C          0.71009        1.56402       -0.32887
H         -2.74380        0.62434       -0.68597
H         -2.75132        2.04640        0.52310
H          0.71358        0.50413       -0.52314
H          0.70607        1.92624        0.68597
