6
Point_32/orca32.out	Energy:     -78.2044677
C         -2.80015        0.98458        0.33082
C          0.76241        1.56596       -0.33082
H         -2.75468        0.62125       -0.68251
H         -2.76219        2.04342        0.52665
H          0.72443        0.50713       -0.52665
H          0.71691        1.92929        0.68251
