6
Point_37/orca37.out	Energy:     -78.2043530
C         -3.06049        0.97961        0.33506
C          1.02400        1.57072       -0.33479
H         -2.92689        0.60689       -0.66751
H         -2.93441        2.02987        0.54233
H          0.89602        0.52077       -0.54247
H          0.88849        1.94376        0.66739
