6
Point_4/orca4.out	Energy:     -78.5072662
C         -1.59608        1.27186        0.00075
C         -0.44168        1.27862       -0.00067
H         -2.20989        0.58487       -0.58189
H         -2.21739        1.95338        0.58165
H          0.17964        0.59720       -0.58168
H          0.17214        1.96571        0.58185
