6
Point_41/orca41.out	Energy:     -78.2045896
C         -3.20951        0.96872        0.34694
C          1.28799        1.57879       -0.34265
H         -3.27021        0.60351       -0.66506
H         -3.27773        2.02589        0.54428
H          1.18186        0.52587       -0.54668
H          1.17434        1.94885        0.66317
