6
Point_42/orca42.out	Energy:     -78.2042085
C         -3.25825        0.96562        0.35028
C          1.34407        1.57544       -0.33836
H         -3.28238        0.60122       -0.66318
H         -3.28990        2.02432        0.54677
H          1.19036        0.53085       -0.55283
H          1.18283        1.95417        0.65732
