6
Point_43/orca43.out	Energy:     -78.2040642
C         -3.30872        0.96305        0.35298
C          1.39847        1.57126       -0.33310
H         -3.29657        0.59900       -0.66077
H         -3.30410        2.02222        0.54928
H          1.20259        0.53633       -0.55931
H          1.19507        1.95977        0.65092
