6
Point_44/orca44.out	Energy:     -78.2039291
C         -3.36104        0.96155        0.35443
C          1.45146        1.56648       -0.32715
H         -3.31374        0.59628       -0.65778
H         -3.32127        2.01960        0.55236
H          1.21942        0.54209       -0.56610
H          1.21190        1.96564        0.64424
