6
Point_5/orca5.out	Energy:     -78.5226646
C         -1.60882        1.27201        0.00023
C         -0.42894        1.27817        0.00020
H         -2.21488        0.58289       -0.58346
H         -2.22218        1.95515        0.58327
H          0.18443        0.59557       -0.58349
H          0.17712        1.96784        0.58325
