6
Point_6/orca6.out	Energy:     -78.5359210
C         -1.62308        1.27245       -0.00042
C         -0.41468        1.27883       -0.00044
H         -2.22082        0.58048       -0.58493
H         -2.22810        1.95694        0.58537
H          0.19034        0.59323       -0.58494
H          0.18306        1.96970        0.58536
