6
Point_8/orca8.out	Energy:     -78.5536215
C         -1.65695        1.27198       -0.00009
C         -0.38081        1.27873       -0.00010
H         -2.23521        0.57541       -0.58946
H         -2.24254        1.96215        0.58957
H          0.20478        0.58832       -0.58947
H          0.19745        1.97505        0.58956
