
                                 *****************
                                 * O   R   C   A *
                                 *****************

           --- An Ab Initio, DFT and Semiempirical electronic structure package ---

                  #######################################################
                  #                        -***-                        #
                  #  Department of molecular theory and spectroscopy    #
                  #              Directorship: Frank Neese              #
                  # Max Planck Institute for Chemical Energy Conversion #
                  #                  D-45470 Muelheim/Ruhr              #
                  #                       Germany                       #
                  #                                                     #
                  #                  All rights reserved                #
                  #                        -***-                        #
                  #######################################################


                         Program Version 4.0.0.2 - RELEASE -


 With contributions from (in alphabetic order):
   Daniel Aravena         : Magnetic Properties
   Michael Atanasov       : Ab Initio Ligand Field Theory
   Ute Becker             : Parallelization
   Martin Brehm           : Molecular dynamics
   Dmytro Bykov           : SCF Hessian
   Vijay G. Chilkuri      : MRCI spin determinant printing
   Dipayan Datta          : RHF DLPNO-CCSD density
   Achintya Kumar Dutta   : EOM-CC, STEOM-CC
   Dmitry Ganyushin       : Spin-Orbit,Spin-Spin,Magnetic field MRCI
   Yang Guo               : DLPNO-NEVPT2, CIM, IAO-localization
   Andreas Hansen         : Spin unrestricted coupled pair/coupled cluster methods
   Lee Huntington         : MR-EOM, pCC
   Robert Izsak           : Overlap fitted RIJCOSX, COSX-SCS-MP3, EOM
   Christian Kollmar      : KDIIS, OOCD, Brueckner-CCSD(T), CCSD density
   Simone Kossmann        : Meta GGA functionals, TD-DFT gradient, OOMP2, MP2 Hessian
   Martin Krupicka        : AUTO-CI
   Dagmar Lenk            : GEPOL surface
   Dimitrios Liakos       : Extrapolation schemes; parallel MDCI
   Dimitrios Manganas     : ROCIS; embedding schemes
   Dimitrios Pantazis     : SARC Basis sets
   Taras Petrenko         : DFT Hessian,TD-DFT gradient, ASA, ECA, R-Raman, ABS, FL, XAS/XES, NRVS
   Peter Pinski           : DLPNO-MP2
   Christoph Reimann      : Effective Core Potentials
   Marius Retegan         : Local ZFS, SOC
   Christoph Riplinger    : Optimizer, TS searches, QM/MM, DLPNO-CCSD(T), (RO)-DLPNO pert. Triples
   Tobias Risthaus        : Range-separated hybrids, TD-DFT gradient, RPA, STAB
   Michael Roemelt        : Restricted open shell CIS
   Masaaki Saitow         : Open-shell DLPNO
   Barbara Sandhoefer     : DKH picture change effects
   Kantharuban Sivalingam : CASSCF convergence, NEVPT2, FIC-MRCI
   Georgi Stoychev        : AutoAux
   Boris Wezisla          : Elementary symmetry handling
   Frank Wennmohs         : Technical directorship


 We gratefully acknowledge several colleagues who have allowed us to
 interface, adapt or use parts of their codes:
   Stefan Grimme, W. Hujo, H. Kruse,             : VdW corrections, initial TS optimization,
                  C. Bannwarth                     DFT functionals, gCP, sTDA/sTD-DF
   Ed Valeev                                     : LibInt (2-el integral package), F12 methods
   Garnet Chan, S. Sharma, J. Yang, R. Olivares  : DMRG
   Ulf Ekstrom                                   : XCFun DFT Library
   Mihaly Kallay                                 : mrcc  (arbitrary order and MRCC methods)
   Jiri Pittner, Ondrej Demel                    : Mk-CCSD
   Frank Weinhold                                : gennbo (NPA and NBO analysis)
   Christopher J. Cramer and Donald G. Truhlar   : smd solvation model


 Your calculation uses the libint2 library for the computation of 2-el integrals
 For citations please refer to: http://libint.valeyev.net

 This ORCA versions uses:
   CBLAS   interface :  Fast vector & matrix operations
   LAPACKE interface :  Fast linear algebra routines
   SCALAPACK package :  Parallel linear algebra routines


Your calculation utilizes the atom-pairwise dispersion correction
with the zero-damping scheme (D30)
Cite in your paper:
S.Grimme, J.Antony, S.Ehrlich and H.Krieg, J.Chem.Phys., 132, (2010), 154104 
   

XCFun DFT library Copyright 2009-2010 Ulf Ekstrom and contributors.
See http://admol.org/xcfun for more information. This is free soft-
ware; see the source code for copying conditions. There is ABSOLUTELY
NO WARRANTY; not even for MERCHANTABILITY or FITNESS FOR A PARTICULAR
PURPOSE. For details see the documentation. Scientific users of this 
library should cite U. Ekstrom, L. Visscher, R. Bast, A. J. Thorvald-
sen and K. Ruud; J.Chem.Theor.Comp. 2010, DOI: 10.1021/ct100117s
XCFun Version 0.99 
Your calculation utilizes the basis: 6-31G(d)
   H-He, Li-Ne : W. J. Hehre, R. Ditchfield and J.A. Pople, J. Chem. Phys. 56, 2257 (1972).
                 Note: He and Ne are unpublished basis sets taken from the Gaussian program.
                 Note: Li and B from J. D. Dill and J. A. Pople, J. Chem. Phys. 62, 2921 (1975).
   Na - Ar     : M. M. Francl, W. J. Pietro, W. J. Hehre, J. S. Binkley, M. S. Gordon, 
                 D. J. DeFrees and J. A. Pople, J. Chem. Phys. 77, 3654 (1982).
   K - Zn      : V. A. Rassolov, J. A. Pople, M. A. Ratner, and T. L. Windus, J. Chem. Phys. 109, 1223 (1998).

================================================================================
                                        WARNINGS
                       Please study these warnings very carefully!
================================================================================

Warning: TCutStore was < 0. Adjusted to Thresh (uncritical)

INFO   : the flag for use of LIBINT has been found!

================================================================================
                                       INPUT FILE
================================================================================
NAME = initial1.inp
|  1> ! WB97X-D3 6-31G(d) VerySlowConv
|  2> ! KDIIS NOSOSCF
|  3> %base "Scan_1"
|  4> 
|  5> %scf
|  6> maxiter 999
|  7> end
|  8> 
|  9> * xyz 0 1
| 10> N          0.050426859565    1.295954395043   -0.036224545416
| 11> H          0.829284218462    1.023887878007    0.005258628754
| 12> H         -0.338929414526    1.324361318778   -0.764206241398
| 13> H         -0.338931663501    1.540016408172    0.650212158059
| 14> **                         ****END OF INPUT****
================================================================================

                       ****************************
                       * Single Point Calculation *
                       ****************************

---------------------------------
CARTESIAN COORDINATES (ANGSTROEM)
---------------------------------
  N      0.050427    1.295954   -0.036225
  H      0.829284    1.023888    0.005259
  H     -0.338929    1.324361   -0.764206
  H     -0.338932    1.540016    0.650212

----------------------------
CARTESIAN COORDINATES (A.U.)
----------------------------
  NO LB      ZA    FRAG     MASS         X           Y           Z
   0 N     7.0000    0    14.007    0.095293    2.448999   -0.068454
   1 H     1.0000    0     1.008    1.567120    1.934868    0.009937
   2 H     1.0000    0     1.008   -0.640484    2.502680   -1.444141
   3 H     1.0000    0     1.008   -0.640488    2.910209    1.228723

--------------------------------
INTERNAL COORDINATES (ANGSTROEM)
--------------------------------
 N      0   0   0     0.000000000000     0.00000000     0.00000000
 H      1   0   0     0.826050742351     0.00000000     0.00000000
 H      1   2   0     0.826052426408   119.99999550     0.00000000
 H      1   2   3     0.826051858913   119.99999068   180.03454941

---------------------------
INTERNAL COORDINATES (A.U.)
---------------------------
 N      0   0   0     0.000000000000     0.00000000     0.00000000
 H      1   0   0     1.561009675767     0.00000000     0.00000000
 H      1   2   0     1.561012858173   119.99999550     0.00000000
 H      1   2   3     1.561011785763   119.99999068   180.03454941

---------------------
BASIS SET INFORMATION
---------------------
There are 2 groups of distinct atoms

 Group   1 Type N   : 10s4p1d contracted to 3s2p1d pattern {631/31/1}
 Group   2 Type H   : 4s contracted to 2s pattern {31}

Atom   0N    basis set group =>   1
Atom   1H    basis set group =>   2
Atom   2H    basis set group =>   2
Atom   3H    basis set group =>   2
------------------------------------------------------------------------------
                           ORCA GTO INTEGRAL CALCULATION
------------------------------------------------------------------------------

                         BASIS SET STATISTICS AND STARTUP INFO

 # of primitive gaussian shells          ...   27
 # of primitive gaussian functions       ...   39
 # of contracted shells                  ...   12
 # of contracted basis functions         ...   20
 Highest angular momentum                ...    2
 Maximum contraction depth               ...    6
 Integral package used                   ... LIBINT
 Integral threshhold            Thresh   ...  1.000e-10
 Primitive cut-off              TCut     ...  1.000e-11


------------------------------ INTEGRAL EVALUATION ----------------------------


 * One electron integrals 
 Pre-screening matrix                    ... done
 Shell pair data                         ... done (   0.000 sec)

-------------------------------------------------------------------------------
                                 ORCA SCF
-------------------------------------------------------------------------------

------------
SCF SETTINGS
------------
Hamiltonian:
 Density Functional     Method          .... DFT(GTOs)
 Exchange Functional    Exchange        .... WB97X-D3
 Correlation Functional Correlation     .... WB97X-D3
 Gradients option       PostSCFGGA      .... off
 Hybrid DFT is turned on
   Fraction HF Exchange ScalHFX         ....  0.195728
   Scaling of DF-GGA-X  ScalDFX         ....  0.000000
   Scaling of DF-GGA-C  ScalDFC         ....  1.000000
   Scaling of DF-LDA-C  ScalLDAC        ....  1.000000
   Perturbative correction              ....  0.000000
 Long-range corrected/Screened/Range-Separated Hybrid DFT is turned on
   Amount of maximum screened exact exchange              ....  0.804272
   Range separation parameter mu (erf(mu*r12)/r12)        ....  0.250000


General Settings:
 Integral files         IntName         .... Scan_1
 Hartree-Fock type      HFTyp           .... RHF
 Total Charge           Charge          ....    0
 Multiplicity           Mult            ....    1
 Number of Electrons    NEL             ....   10
 Basis Dimension        Dim             ....   20
 Nuclear Repulsion      ENuc            ....     14.5623858050 Eh

Convergence Acceleration:
 DIIS                   CNVDIIS         .... on
   Start iteration      DIISMaxIt       ....     0
   Startup error        DIISStart       ....  0.200000
   # of expansion vecs  DIISMaxEq       ....     5
   Bias factor          DIISBfac        ....   1.050
   Max. coefficient     DIISMaxC        ....  10.000
 Newton-Raphson         CNVNR           .... off
 SOSCF                  CNVSOSCF        .... off
 Level Shifting         CNVShift        .... off
 Zerner damping         CNVZerner       .... off
 Static damping         CNVDamp         .... off
 Fernandez-Rico         CNVRico         .... off

SCF Procedure:
 Maximum # iterations   MaxIter         ....   999
 SCF integral mode      SCFMode         .... Direct
   Integral package                     .... LIBINT
 Reset frequeny         DirectResetFreq ....    20
 Integral Threshold     Thresh          ....  1.000e-10 Eh
 Primitive CutOff       TCut            ....  1.000e-11 Eh

Convergence Tolerance:
 Convergence Check Mode ConvCheckMode   .... All-Criteria
 Convergence forced     ConvForced      .... 0
 Energy Change          TolE            ....  1.000e-06 Eh
 Max Density Change     TolMaxP         ....  1.000e-05
 RMS Density Change     TolRMSP         ....  1.000e-06
 DIIS Error             TolErr          ....  1.000e-06


Diagonalization of the overlap matrix:
Smallest eigenvalue                        ... 2.735e-02
Time for diagonalization                   ...    0.000 sec
Threshold for overlap eigenvalues          ... 1.000e-08
Number of eigenvalues below threshold      ... 0
Time for construction of square roots      ...    0.004 sec
Total time needed                          ...    0.005 sec

-------------------
DFT GRID GENERATION
-------------------

General Integration Accuracy     IntAcc      ...  4.340
Radial Grid Type                 RadialGrid  ... Gauss-Chebyshev
Angular Grid (max. acc.)         AngularGrid ... Lebedev-110
Angular grid pruning method      GridPruning ... 3 (G Style)
Weight generation scheme         WeightScheme... Becke
Basis function cutoff            BFCut       ...    1.0000e-10
Integration weight cutoff        WCut        ...    1.0000e-14
Grids for H and He will be reduced by one unit

# of grid points (after initial pruning)     ...   4084 (   0.0 sec)
# of grid points (after weights+screening)   ...   4029 (   0.0 sec)
nearest neighbour list constructed           ...    0.0 sec
Grid point re-assignment to atoms done       ...    0.0 sec
Grid point division into batches done        ...    0.0 sec
Reduced shell lists constructed in    0.0 sec

Total number of grid points                  ...     4029
Total number of batches                      ...       65
Average number of points per batch           ...       61
Average number of grid points per atom       ...     1007
Average number of shells per batch           ...    11.36 (94.70%)
Average number of basis functions per batch  ...    19.06 (95.30%)
Average number of large shells per batch     ...    10.86 (95.60%)
Average number of large basis fcns per batch ...    18.29 (95.95%)
Maximum spatial batch extension              ...  18.55, 21.59, 21.59 au
Average spatial batch extension              ...   4.71,  5.44,  4.26 au

Time for grid setup =    0.024 sec

------------------------------
INITIAL GUESS: MODEL POTENTIAL
------------------------------
Loading Hartree-Fock densities                     ... done
Calculating cut-offs                               ... done
Setting up the integral package                    ... done
Initializing the effective Hamiltonian             ... done
Starting the Coulomb interaction                   ... done (   0.0 sec)
Reading the grid                                   ... done
Mapping shells                                     ... done
Starting the XC term evaluation                    ... done (   0.0 sec)
  promolecular density results
     # of electrons  =      9.992486737
     EX              =     -7.524842933
     EC              =     -0.314665023
     EX+EC           =     -7.839507955
Transforming the Hamiltonian                       ... done (   0.0 sec)
Diagonalizing the Hamiltonian                      ... done (   0.0 sec)
Back transforming the eigenvectors                 ... done (   0.0 sec)
Now organizing SCF variables                       ... done
                      ------------------
                      INITIAL GUESS DONE (   0.1 sec)
                      ------------------
--------------
SCF ITERATIONS
--------------
ITER       Energy         Delta-E        Max-DP      RMS-DP      [F,P]   Gradient Norm
               ***  Starting incremental Fock matrix formation  ***
                             ****Resetting KDIIS****
                             ****Turning on KDIIS(Cayley)****
  0    -56.2263734201   0.000000000000 0.05190885  0.00517959  0.2302343   0.202394080
  1    -56.2840416248  -0.057668204693 0.07796231  0.00573333  0.1915980   0.164172779
  2    -56.3273887577  -0.043347132903 0.08781740  0.00715972  0.1431239   0.129531443
  3    -56.3699174558  -0.042528698050 0.11586934  0.01036483  0.0805063   0.080072380
  4    -56.3954064804  -0.025489024580 0.02742786  0.00446139  0.0122655   0.009059805
  5    -56.3958160589  -0.000409578524 0.01934117  0.00141417  0.0155295   0.009727814
Warning: badly conditioned DIIS matrix, 1 vectors out of 5 destroyed
  6    -56.3961554627  -0.000339403843 0.00977739  0.00157398  0.0060655   0.005307769
  7    -56.3963177971  -0.000162334352 0.00005173  0.00000588  0.0000209   0.000025570
                          ***Energy convergence achieved***
                           ***RMSP convergence achieved***
                           ***MAXP convergence achieved***
                    *** KDIIS BlockDiag ( 0.000 sec) ***

               *****************************************************
               *                     SUCCESS                       *
               *           SCF CONVERGED AFTER   8 CYCLES          *
               *****************************************************

Setting up the final grid:

General Integration Accuracy     IntAcc      ...  4.670
Radial Grid Type                 RadialGrid  ... Gauss-Chebyshev
Angular Grid (max. acc.)         AngularGrid ... Lebedev-302
Angular grid pruning method      GridPruning ... 3 (G Style)
Weight generation scheme         WeightScheme... Becke
Basis function cutoff            BFCut       ...    1.0000e-10
Integration weight cutoff        WCut        ...    1.0000e-14
Grids for H and He will be reduced by one unit

# of grid points (after initial pruning)     ...  16394 (   0.0 sec)
# of grid points (after weights+screening)   ...  16100 (   0.0 sec)
nearest neighbour list constructed           ...    0.0 sec
Grid point re-assignment to atoms done       ...    0.0 sec
Grid point division into batches done        ...    0.0 sec
Reduced shell lists constructed in    0.1 sec

Total number of grid points                  ...    16100
Total number of batches                      ...      254
Average number of points per batch           ...       63
Average number of grid points per atom       ...     4025
Average number of shells per batch           ...    10.36 (86.31%)
Average number of basis functions per batch  ...    17.30 (86.49%)
Average number of large shells per batch     ...     9.85 (95.08%)
Average number of large basis fcns per batch ...    16.51 (95.42%)
Maximum spatial batch extension              ...  15.69, 17.29, 15.43 au
Average spatial batch extension              ...   3.02,  3.28,  2.91 au

Final grid set up in    0.1 sec
Final integration                            ... done (   0.1 sec)
Change in XC energy                          ...     0.000214444
Integrated number of electrons               ...    10.000004282
Previous integrated no of electrons          ...     9.994652839

----------------
TOTAL SCF ENERGY
----------------

Total Energy       :          -56.39610336 Eh           -1534.61599 eV

Components:
Nuclear Repulsion  :           14.56238580 Eh             396.26266 eV
Electronic Energy  :          -70.95848916 Eh           -1930.87865 eV
One Electron Energy:         -104.26116818 Eh           -2837.09062 eV
Two Electron Energy:           33.30267902 Eh             906.21197 eV

Virial components:
Potential Energy   :         -113.79557472 Eh           -3096.53501 eV
Kinetic Energy     :           57.39947136 Eh            1561.91902 eV
Virial Ratio       :            1.98251956


DFT components:
N(Alpha)           :        5.000002141115 electrons
N(Beta)            :        5.000002141115 electrons
N(Total)           :       10.000004282230 electrons
E(XC)              :       -5.668589131770 Eh       

---------------
SCF CONVERGENCE
---------------

  Last Energy change         ...   -3.6155e-09  Tolerance :   1.0000e-06
  Last MAX-Density change    ...    7.2409e-06  Tolerance :   1.0000e-05
  Last RMS-Density change    ...    9.5587e-07  Tolerance :   1.0000e-06
  Last DIIS Error            ...    4.0300e-06  Tolerance :   1.0000e-06

             **** THE GBW FILE WAS UPDATED (Scan_1.gbw) ****
             **** DENSITY FILE WAS UPDATED (Scan_1.scfp.tmp) ****
             **** ENERGY FILE WAS UPDATED (Scan_1.en.tmp) ****
----------------
ORBITAL ENERGIES
----------------

  NO   OCC          E(Eh)            E(eV) 
   0   2.0000     -14.329627      -389.9290 
   1   2.0000      -1.015246       -27.6263 
   2   2.0000      -0.634709       -17.2713 
   3   2.0000      -0.634595       -17.2682 
   4   2.0000      -0.327286        -8.9059 
   5   0.0000       0.239545         6.5184 
   6   0.0000       0.324811         8.8386 
   7   0.0000       0.324900         8.8410 
   8   0.0000       0.793434        21.5904 
   9   0.0000       0.794843        21.6288 
  10   0.0000       0.828301        22.5392 
  11   0.0000       1.064103        28.9557 
  12   0.0000       1.244601        33.8673 
  13   0.0000       1.245141        33.8820 
  14   0.0000       1.396756        38.0077 
  15   0.0000       1.759880        47.8888 
  16   0.0000       1.760645        47.9096 
  17   0.0000       2.476129        67.3789 
  18   0.0000       2.698593        73.4324 
  19   0.0000       2.699859        73.4669 

                    ********************************
                    * MULLIKEN POPULATION ANALYSIS *
                    ********************************

-----------------------
MULLIKEN ATOMIC CHARGES
-----------------------
   0 N :   -0.955724
   1 H :    0.318868
   2 H :    0.318633
   3 H :    0.318223
Sum of atomic charges:    0.0000000

--------------------------------
MULLIKEN REDUCED ORBITAL CHARGES
--------------------------------
  0 N s       :     3.434912  s :     3.434912
      pz      :     1.266941  p :     4.503374
      px      :     1.335045
      py      :     1.901389
      dz2     :     0.005483  d :     0.017438
      dxz     :     0.005138
      dyz     :     0.001055
      dx2y2   :     0.003409
      dxy     :     0.002352
  1 H s       :     0.681132  s :     0.681132
  2 H s       :     0.681367  s :     0.681367
  3 H s       :     0.681777  s :     0.681777


                     *******************************
                     * LOEWDIN POPULATION ANALYSIS *
                     *******************************

----------------------
LOEWDIN ATOMIC CHARGES
----------------------
   0 N :   -0.666554
   1 H :    0.222307
   2 H :    0.222186
   3 H :    0.222061

-------------------------------
LOEWDIN REDUCED ORBITAL CHARGES
-------------------------------
  0 N s       :     3.079457  s :     3.079457
      pz      :     1.289881  p :     4.550487
      px      :     1.355909
      py      :     1.904698
      dz2     :     0.012314  d :     0.036610
      dxz     :     0.013235
      dyz     :     0.002285
      dx2y2   :     0.005179
      dxy     :     0.003597
  1 H s       :     0.777693  s :     0.777693
  2 H s       :     0.777814  s :     0.777814
  3 H s       :     0.777939  s :     0.777939


                      *****************************
                      * MAYER POPULATION ANALYSIS *
                      *****************************

  NA   - Mulliken gross atomic population
  ZA   - Total nuclear charge
  QA   - Mulliken gross atomic charge
  VA   - Mayer's total valence
  BVA  - Mayer's bonded valence
  FA   - Mayer's free valence

  ATOM       NA         ZA         QA         VA         BVA        FA
  0 N      7.9557     7.0000    -0.9557     2.6733     2.6733     0.0000
  1 H      0.6811     1.0000     0.3189     0.8649     0.8649     0.0000
  2 H      0.6814     1.0000     0.3186     0.8653     0.8653     0.0000
  3 H      0.6818     1.0000     0.3182     0.8655     0.8655    -0.0000

  Mayer bond orders larger than 0.1
B(  0-N ,  1-H ) :   0.8908 B(  0-N ,  2-H ) :   0.8912 B(  0-N ,  3-H ) :   0.8913 


-------
TIMINGS
-------

Total SCF time: 0 days 0 hours 0 min 3 sec 

Total time                  ....       3.317 sec
Sum of individual times     ....       3.213 sec  ( 96.9%)

Fock matrix formation       ....       2.911 sec  ( 87.8%)
  XC integration            ....       0.560 sec  ( 19.2% of F)
    Basis function eval.    ....       0.173 sec  ( 30.9% of XC)
    Density eval.           ....       0.023 sec  (  4.1% of XC)
    XC-Functional eval.     ....       0.176 sec  ( 31.5% of XC)
    XC-Potential eval.      ....       0.015 sec  (  2.8% of XC)
Diagonalization             ....       0.030 sec  (  0.9%)
Density matrix formation    ....       0.000 sec  (  0.0%)
Population analysis         ....       0.009 sec  (  0.3%)
Initial guess               ....       0.123 sec  (  3.7%)
Orbital Transformation      ....       0.000 sec  (  0.0%)
Orbital Orthonormalization  ....       0.000 sec  (  0.0%)
DIIS solution               ....       0.000 sec  (  0.0%)
Grid generation             ....       0.139 sec  (  4.2%)


-------------------------------------------------------------------------------
                          DFT DISPERSION CORRECTION                            
                                                                               
                              DFTD3 V3.1  Rev 1                                
                              USING zero damping                               
-------------------------------------------------------------------------------
The omegaB97X-D3 functional is recognized. Fit by Chai et al.
Active option DFTDOPT                   ...         3   

molecular C6(AA) [au] = 84.611200 


            DFT-D V3
 parameters
 s6 scaling factor         :     1.0000 
 rs6 scaling factor        :     1.2810 
 s8 scaling factor         :     1.0000 
 rs8 scaling factor        :     1.0940 
 Damping factor alpha6     :    14.0000 
 Damping factor alpha8     :    16.0000 
 ad hoc parameters k1-k3   :    16.0000     1.3333    -4.0000 

 Edisp/kcal,au: -0.001358851179  -0.000002165467 
 E6   /kcal   :  -0.000211782 
 E8   /kcal   :  -0.001147069 
 % E8         :  84.414619198 

-------------------------   ----------------
Dispersion correction           -0.000002165
-------------------------   ----------------


-------------------------   --------------------
FINAL SINGLE POINT ENERGY       -56.396105521943
-------------------------   --------------------


                            ***************************************
                            *     ORCA property calculations      *
                            ***************************************

                                    ---------------------
                                    Active property flags
                                    ---------------------
   (+) Dipole Moment


------------------------------------------------------------------------------
                       ORCA ELECTRIC PROPERTIES CALCULATION
------------------------------------------------------------------------------

Dipole Moment Calculation                       ... on
Quadrupole Moment Calculation                   ... off
Polarizability Calculation                      ... off
GBWName                                         ... Scan_1.gbw
Electron density file                           ... Scan_1.scfp.tmp

-------------
DIPOLE MOMENT
-------------
                                X             Y             Z
Electronic contribution:      0.00009      -0.00002       0.00019
Nuclear contribution   :      0.00011       0.00031      -0.00005
                        -----------------------------------------
Total Dipole Moment    :      0.00020       0.00029       0.00014
                        -----------------------------------------
Magnitude (a.u.)       :      0.00038
Magnitude (Debye)      :      0.00097


Timings for individual modules:

Sum of individual times         ...        3.661 sec (=   0.061 min)
GTO integral calculation        ...        0.322 sec (=   0.005 min)   8.8 %
SCF iterations                  ...        3.339 sec (=   0.056 min)  91.2 %
                             ****ORCA TERMINATED NORMALLY****
TOTAL RUN TIME: 0 days 0 hours 0 minutes 4 seconds 9 msec
