
                                 *****************
                                 * O   R   C   A *
                                 *****************

           --- An Ab Initio, DFT and Semiempirical electronic structure package ---

                  #######################################################
                  #                        -***-                        #
                  #  Department of molecular theory and spectroscopy    #
                  #              Directorship: Frank Neese              #
                  # Max Planck Institute for Chemical Energy Conversion #
                  #                  D-45470 Muelheim/Ruhr              #
                  #                       Germany                       #
                  #                                                     #
                  #                  All rights reserved                #
                  #                        -***-                        #
                  #######################################################


                         Program Version 4.0.0.2 - RELEASE -


 With contributions from (in alphabetic order):
   Daniel Aravena         : Magnetic Properties
   Michael Atanasov       : Ab Initio Ligand Field Theory
   Ute Becker             : Parallelization
   Martin Brehm           : Molecular dynamics
   Dmytro Bykov           : SCF Hessian
   Vijay G. Chilkuri      : MRCI spin determinant printing
   Dipayan Datta          : RHF DLPNO-CCSD density
   Achintya Kumar Dutta   : EOM-CC, STEOM-CC
   Dmitry Ganyushin       : Spin-Orbit,Spin-Spin,Magnetic field MRCI
   Yang Guo               : DLPNO-NEVPT2, CIM, IAO-localization
   Andreas Hansen         : Spin unrestricted coupled pair/coupled cluster methods
   Lee Huntington         : MR-EOM, pCC
   Robert Izsak           : Overlap fitted RIJCOSX, COSX-SCS-MP3, EOM
   Christian Kollmar      : KDIIS, OOCD, Brueckner-CCSD(T), CCSD density
   Simone Kossmann        : Meta GGA functionals, TD-DFT gradient, OOMP2, MP2 Hessian
   Martin Krupicka        : AUTO-CI
   Dagmar Lenk            : GEPOL surface
   Dimitrios Liakos       : Extrapolation schemes; parallel MDCI
   Dimitrios Manganas     : ROCIS; embedding schemes
   Dimitrios Pantazis     : SARC Basis sets
   Taras Petrenko         : DFT Hessian,TD-DFT gradient, ASA, ECA, R-Raman, ABS, FL, XAS/XES, NRVS
   Peter Pinski           : DLPNO-MP2
   Christoph Reimann      : Effective Core Potentials
   Marius Retegan         : Local ZFS, SOC
   Christoph Riplinger    : Optimizer, TS searches, QM/MM, DLPNO-CCSD(T), (RO)-DLPNO pert. Triples
   Tobias Risthaus        : Range-separated hybrids, TD-DFT gradient, RPA, STAB
   Michael Roemelt        : Restricted open shell CIS
   Masaaki Saitow         : Open-shell DLPNO
   Barbara Sandhoefer     : DKH picture change effects
   Kantharuban Sivalingam : CASSCF convergence, NEVPT2, FIC-MRCI
   Georgi Stoychev        : AutoAux
   Boris Wezisla          : Elementary symmetry handling
   Frank Wennmohs         : Technical directorship


 We gratefully acknowledge several colleagues who have allowed us to
 interface, adapt or use parts of their codes:
   Stefan Grimme, W. Hujo, H. Kruse,             : VdW corrections, initial TS optimization,
                  C. Bannwarth                     DFT functionals, gCP, sTDA/sTD-DF
   Ed Valeev                                     : LibInt (2-el integral package), F12 methods
   Garnet Chan, S. Sharma, J. Yang, R. Olivares  : DMRG
   Ulf Ekstrom                                   : XCFun DFT Library
   Mihaly Kallay                                 : mrcc  (arbitrary order and MRCC methods)
   Jiri Pittner, Ondrej Demel                    : Mk-CCSD
   Frank Weinhold                                : gennbo (NPA and NBO analysis)
   Christopher J. Cramer and Donald G. Truhlar   : smd solvation model


 Your calculation uses the libint2 library for the computation of 2-el integrals
 For citations please refer to: http://libint.valeyev.net

 This ORCA versions uses:
   CBLAS   interface :  Fast vector & matrix operations
   LAPACKE interface :  Fast linear algebra routines
   SCALAPACK package :  Parallel linear algebra routines


Your calculation utilizes the atom-pairwise dispersion correction
with the zero-damping scheme (D30)
Cite in your paper:
S.Grimme, J.Antony, S.Ehrlich and H.Krieg, J.Chem.Phys., 132, (2010), 154104 
   

XCFun DFT library Copyright 2009-2010 Ulf Ekstrom and contributors.
See http://admol.org/xcfun for more information. This is free soft-
ware; see the source code for copying conditions. There is ABSOLUTELY
NO WARRANTY; not even for MERCHANTABILITY or FITNESS FOR A PARTICULAR
PURPOSE. For details see the documentation. Scientific users of this 
library should cite U. Ekstrom, L. Visscher, R. Bast, A. J. Thorvald-
sen and K. Ruud; J.Chem.Theor.Comp. 2010, DOI: 10.1021/ct100117s
XCFun Version 0.99 
Your calculation utilizes the basis: 6-31G(d)
   H-He, Li-Ne : W. J. Hehre, R. Ditchfield and J.A. Pople, J. Chem. Phys. 56, 2257 (1972).
                 Note: He and Ne are unpublished basis sets taken from the Gaussian program.
                 Note: Li and B from J. D. Dill and J. A. Pople, J. Chem. Phys. 62, 2921 (1975).
   Na - Ar     : M. M. Francl, W. J. Pietro, W. J. Hehre, J. S. Binkley, M. S. Gordon, 
                 D. J. DeFrees and J. A. Pople, J. Chem. Phys. 77, 3654 (1982).
   K - Zn      : V. A. Rassolov, J. A. Pople, M. A. Ratner, and T. L. Windus, J. Chem. Phys. 109, 1223 (1998).

================================================================================
                                        WARNINGS
                       Please study these warnings very carefully!
================================================================================

Warning: TCutStore was < 0. Adjusted to Thresh (uncritical)

INFO   : the flag for use of LIBINT has been found!

================================================================================
                                       INPUT FILE
================================================================================
NAME = initial10.inp
|  1> ! WB97X-D3 6-31G(d) VerySlowConv
|  2> ! KDIIS NOSOSCF
|  3> %base "Scan_10"
|  4> 
|  5> %scf
|  6> maxiter 999
|  7> end
|  8> 
|  9> * xyz 0 1
| 10> N         -0.111956624456    0.841905668581    0.033003478623
| 11> H          1.199940470485    1.064608040574   -0.000949416431
| 12> H         -0.443065139132    1.487201815482   -1.083143091465
| 13> H         -0.443068706897    1.790504475363    0.906129029274
| 14> **                         ****END OF INPUT****
================================================================================

                       ****************************
                       * Single Point Calculation *
                       ****************************

---------------------------------
CARTESIAN COORDINATES (ANGSTROEM)
---------------------------------
  N     -0.111957    0.841906    0.033003
  H      1.199940    1.064608   -0.000949
  H     -0.443065    1.487202   -1.083143
  H     -0.443069    1.790504    0.906129

----------------------------
CARTESIAN COORDINATES (A.U.)
----------------------------
  NO LB      ZA    FRAG     MASS         X           Y           Z
   0 N     7.0000    0    14.007   -0.211567    1.590971    0.062368
   1 H     1.0000    0     1.008    2.267559    2.011818   -0.001794
   2 H     1.0000    0     1.008   -0.837272    2.810404   -2.046844
   3 H     1.0000    0     1.008   -0.837279    3.383563    1.712336

--------------------------------
INTERNAL COORDINATES (ANGSTROEM)
--------------------------------
 N      0   0   0     0.000000000000     0.00000000     0.00000000
 H      1   0   0     1.331098468667     0.00000000     0.00000000
 H      1   2   0     1.331098468039    98.20201466     0.00000000
 H      1   2   3     1.331098469147    98.20201486   260.42122503

---------------------------
INTERNAL COORDINATES (A.U.)
---------------------------
 N      0   0   0     0.000000000000     0.00000000     0.00000000
 H      1   0   0     2.515411563063     0.00000000     0.00000000
 H      1   2   0     2.515411561876    98.20201466     0.00000000
 H      1   2   3     2.515411563970    98.20201486   260.42122503

---------------------
BASIS SET INFORMATION
---------------------
There are 2 groups of distinct atoms

 Group   1 Type N   : 10s4p1d contracted to 3s2p1d pattern {631/31/1}
 Group   2 Type H   : 4s contracted to 2s pattern {31}

Atom   0N    basis set group =>   1
Atom   1H    basis set group =>   2
Atom   2H    basis set group =>   2
Atom   3H    basis set group =>   2
------------------------------------------------------------------------------
                           ORCA GTO INTEGRAL CALCULATION
------------------------------------------------------------------------------

                         BASIS SET STATISTICS AND STARTUP INFO

 # of primitive gaussian shells          ...   27
 # of primitive gaussian functions       ...   39
 # of contracted shells                  ...   12
 # of contracted basis functions         ...   20
 Highest angular momentum                ...    2
 Maximum contraction depth               ...    6
 Integral package used                   ... LIBINT
 Integral threshhold            Thresh   ...  1.000e-10
 Primitive cut-off              TCut     ...  1.000e-11


------------------------------ INTEGRAL EVALUATION ----------------------------


 * One electron integrals 
 Pre-screening matrix                    ... done
 Shell pair data                         ... done (   0.000 sec)

-------------------------------------------------------------------------------
                                 ORCA SCF
-------------------------------------------------------------------------------

------------
SCF SETTINGS
------------
Hamiltonian:
 Density Functional     Method          .... DFT(GTOs)
 Exchange Functional    Exchange        .... WB97X-D3
 Correlation Functional Correlation     .... WB97X-D3
 Gradients option       PostSCFGGA      .... off
 Hybrid DFT is turned on
   Fraction HF Exchange ScalHFX         ....  0.195728
   Scaling of DF-GGA-X  ScalDFX         ....  0.000000
   Scaling of DF-GGA-C  ScalDFC         ....  1.000000
   Scaling of DF-LDA-C  ScalLDAC        ....  1.000000
   Perturbative correction              ....  0.000000
 Long-range corrected/Screened/Range-Separated Hybrid DFT is turned on
   Amount of maximum screened exact exchange              ....  0.804272
   Range separation parameter mu (erf(mu*r12)/r12)        ....  0.250000


General Settings:
 Integral files         IntName         .... Scan_10
 Hartree-Fock type      HFTyp           .... RHF
 Total Charge           Charge          ....    0
 Multiplicity           Mult            ....    1
 Number of Electrons    NEL             ....   10
 Basis Dimension        Dim             ....   20
 Nuclear Repulsion      ENuc            ....      9.1374635252 Eh

Convergence Acceleration:
 DIIS                   CNVDIIS         .... on
   Start iteration      DIISMaxIt       ....     0
   Startup error        DIISStart       ....  0.200000
   # of expansion vecs  DIISMaxEq       ....     5
   Bias factor          DIISBfac        ....   1.050
   Max. coefficient     DIISMaxC        ....  10.000
 Newton-Raphson         CNVNR           .... off
 SOSCF                  CNVSOSCF        .... off
 Level Shifting         CNVShift        .... off
 Zerner damping         CNVZerner       .... off
 Static damping         CNVDamp         .... off
 Fernandez-Rico         CNVRico         .... off

SCF Procedure:
 Maximum # iterations   MaxIter         ....   999
 SCF integral mode      SCFMode         .... Direct
   Integral package                     .... LIBINT
 Reset frequeny         DirectResetFreq ....    20
 Integral Threshold     Thresh          ....  1.000e-10 Eh
 Primitive CutOff       TCut            ....  1.000e-11 Eh

Convergence Tolerance:
 Convergence Check Mode ConvCheckMode   .... All-Criteria
 Convergence forced     ConvForced      .... 0
 Energy Change          TolE            ....  1.000e-06 Eh
 Max Density Change     TolMaxP         ....  1.000e-05
 RMS Density Change     TolRMSP         ....  1.000e-06
 DIIS Error             TolErr          ....  1.000e-06


Diagonalization of the overlap matrix:
Smallest eigenvalue                        ... 7.521e-02
Time for diagonalization                   ...    0.000 sec
Threshold for overlap eigenvalues          ... 1.000e-08
Number of eigenvalues below threshold      ... 0
Time for construction of square roots      ...    0.005 sec
Total time needed                          ...    0.006 sec

-------------------
DFT GRID GENERATION
-------------------

General Integration Accuracy     IntAcc      ...  4.340
Radial Grid Type                 RadialGrid  ... Gauss-Chebyshev
Angular Grid (max. acc.)         AngularGrid ... Lebedev-110
Angular grid pruning method      GridPruning ... 3 (G Style)
Weight generation scheme         WeightScheme... Becke
Basis function cutoff            BFCut       ...    1.0000e-10
Integration weight cutoff        WCut        ...    1.0000e-14
Grids for H and He will be reduced by one unit

# of grid points (after initial pruning)     ...   4084 (   0.0 sec)
# of grid points (after weights+screening)   ...   4048 (   0.0 sec)
nearest neighbour list constructed           ...    0.0 sec
Grid point re-assignment to atoms done       ...    0.0 sec
Grid point division into batches done        ...    0.0 sec
Reduced shell lists constructed in    0.0 sec

Total number of grid points                  ...     4048
Total number of batches                      ...       65
Average number of points per batch           ...       62
Average number of grid points per atom       ...     1012
Average number of shells per batch           ...    11.14 (92.80%)
Average number of basis functions per batch  ...    18.74 (93.71%)
Average number of large shells per batch     ...    10.55 (94.69%)
Average number of large basis fcns per batch ...    17.79 (94.91%)
Maximum spatial batch extension              ...  18.66, 21.59, 21.59 au
Average spatial batch extension              ...   4.96,  5.56,  4.51 au

Time for grid setup =    0.024 sec

------------------------------
INITIAL GUESS: MODEL POTENTIAL
------------------------------
Loading Hartree-Fock densities                     ... done
Calculating cut-offs                               ... done
Setting up the integral package                    ... done
Initializing the effective Hamiltonian             ... done
Starting the Coulomb interaction                   ... done (   0.0 sec)
Reading the grid                                   ... done
Mapping shells                                     ... done
Starting the XC term evaluation                    ... done (   0.0 sec)
  promolecular density results
     # of electrons  =      9.998172278
     EX              =     -7.261335386
     EC              =     -0.287324962
     EX+EC           =     -7.548660348
Transforming the Hamiltonian                       ... done (   0.0 sec)
Diagonalizing the Hamiltonian                      ... done (   0.0 sec)
Back transforming the eigenvectors                 ... done (   0.0 sec)
Now organizing SCF variables                       ... done
                      ------------------
                      INITIAL GUESS DONE (   0.2 sec)
                      ------------------
--------------
SCF ITERATIONS
--------------
ITER       Energy         Delta-E        Max-DP      RMS-DP      [F,P]   Gradient Norm
               ***  Starting incremental Fock matrix formation  ***
                             ****Resetting KDIIS****
                             ****Turning on KDIIS(Cayley)****
  0    -56.3363345916   0.000000000000 0.03421198  0.00400770  0.0952932   0.116685470
  1    -56.3666509192  -0.030316327560 0.01589566  0.00208104  0.0682853   0.086376417
  2    -56.3790930861  -0.012442166862 0.02658234  0.00363333  0.0554175   0.070710277
  3    -56.3947304295  -0.015637343457 0.04074781  0.00592843  0.0346383   0.044631120
  4    -56.4053481810  -0.010617751486 0.01198770  0.00169560  0.0054859   0.004253575
  5    -56.4055192738  -0.000171092801 0.00619710  0.00115953  0.0010528   0.001082319
  6    -56.4054783698   0.000040903999 0.00627018  0.00104029  0.0029612   0.002332902
  7    -56.4055322665  -0.000053896724 0.00080003  0.00009729  0.0002605   0.000188823
                          ***Energy convergence achieved***
                           ***RMSP convergence achieved***
                           ***MAXP convergence achieved***
                    *** KDIIS BlockDiag ( 0.000 sec) ***

               *****************************************************
               *                     SUCCESS                       *
               *           SCF CONVERGED AFTER   8 CYCLES          *
               *****************************************************

Setting up the final grid:

General Integration Accuracy     IntAcc      ...  4.670
Radial Grid Type                 RadialGrid  ... Gauss-Chebyshev
Angular Grid (max. acc.)         AngularGrid ... Lebedev-302
Angular grid pruning method      GridPruning ... 3 (G Style)
Weight generation scheme         WeightScheme... Becke
Basis function cutoff            BFCut       ...    1.0000e-10
Integration weight cutoff        WCut        ...    1.0000e-14
Grids for H and He will be reduced by one unit

# of grid points (after initial pruning)     ...  16394 (   0.0 sec)
# of grid points (after weights+screening)   ...  16179 (   0.0 sec)
nearest neighbour list constructed           ...    0.0 sec
Grid point re-assignment to atoms done       ...    0.0 sec
Grid point division into batches done        ...    0.0 sec
Reduced shell lists constructed in    0.1 sec

Total number of grid points                  ...    16179
Total number of batches                      ...      255
Average number of points per batch           ...       63
Average number of grid points per atom       ...     4045
Average number of shells per batch           ...    10.16 (84.64%)
Average number of basis functions per batch  ...    17.07 (85.35%)
Average number of large shells per batch     ...     9.54 (93.92%)
Average number of large basis fcns per batch ...    16.22 (95.01%)
Maximum spatial batch extension              ...  15.20, 16.88, 15.43 au
Average spatial batch extension              ...   3.09,  3.26,  2.98 au

Final grid set up in    0.1 sec
Final integration                            ... done (   0.4 sec)
Change in XC energy                          ...    -0.000190598
Integrated number of electrons               ...     9.999992524
Previous integrated no of electrons          ...     9.998486449

----------------
TOTAL SCF ENERGY
----------------

Total Energy       :          -56.40572327 Eh           -1534.87776 eV

Components:
Nuclear Repulsion  :            9.13746353 Eh             248.64302 eV
Electronic Energy  :          -65.54318679 Eh           -1783.52079 eV
One Electron Energy:          -94.20295770 Eh           -2563.39280 eV
Two Electron Energy:           28.65977090 Eh             779.87201 eV

Virial components:
Potential Energy   :         -111.70765335 Eh           -3039.71978 eV
Kinetic Energy     :           55.30193009 Eh            1504.84202 eV
Virial Ratio       :            2.01995940


DFT components:
N(Alpha)           :        4.999996262181 electrons
N(Beta)            :        4.999996262181 electrons
N(Total)           :        9.999992524363 electrons
E(XC)              :       -5.207382532041 Eh       

---------------
SCF CONVERGENCE
---------------

  Last Energy change         ...   -4.0489e-07  Tolerance :   1.0000e-06
  Last MAX-Density change    ...    4.0217e-06  Tolerance :   1.0000e-05
  Last RMS-Density change    ...    7.8291e-07  Tolerance :   1.0000e-06
  Last DIIS Error            ...    9.8011e-06  Tolerance :   1.0000e-06

             **** THE GBW FILE WAS UPDATED (Scan_10.gbw) ****
             **** DENSITY FILE WAS UPDATED (Scan_10.scfp.tmp) ****
             **** ENERGY FILE WAS UPDATED (Scan_10.en.tmp) ****
----------------
ORBITAL ENERGIES
----------------

  NO   OCC          E(Eh)            E(eV) 
   0   2.0000     -14.499277      -394.5454 
   1   2.0000      -0.880193       -23.9513 
   2   2.0000      -0.473573       -12.8866 
   3   2.0000      -0.473497       -12.8845 
   4   2.0000      -0.380539       -10.3550 
   5   0.0000       0.081943         2.2298 
   6   0.0000       0.142766         3.8848 
   7   0.0000       0.142933         3.8894 
   8   0.0000       0.774338        21.0708 
   9   0.0000       0.836385        22.7592 
  10   0.0000       0.836904        22.7733 
  11   0.0000       0.878707        23.9108 
  12   0.0000       0.896501        24.3950 
  13   0.0000       0.896906        24.4061 
  14   0.0000       1.338827        36.4313 
  15   0.0000       1.811964        49.3061 
  16   0.0000       1.812987        49.3339 
  17   0.0000       1.856474        50.5172 
  18   0.0000       2.103489        57.2388 
  19   0.0000       2.103649        57.2432 

                    ********************************
                    * MULLIKEN POPULATION ANALYSIS *
                    ********************************

-----------------------
MULLIKEN ATOMIC CHARGES
-----------------------
   0 N :   -0.661630
   1 H :    0.219968
   2 H :    0.221321
   3 H :    0.220340
Sum of atomic charges:    0.0000000

--------------------------------
MULLIKEN REDUCED ORBITAL CHARGES
--------------------------------
  0 N s       :     3.910546  s :     3.910546
      pz      :     1.139960  p :     3.728325
      px      :     1.168954
      py      :     1.419411
      dz2     :     0.002932  d :     0.022759
      dxz     :     0.000326
      dyz     :     0.009981
      dx2y2   :     0.006593
      dxy     :     0.002927
  1 H s       :     0.780032  s :     0.780032
  2 H s       :     0.778679  s :     0.778679
  3 H s       :     0.779660  s :     0.779660


                     *******************************
                     * LOEWDIN POPULATION ANALYSIS *
                     *******************************

----------------------
LOEWDIN ATOMIC CHARGES
----------------------
   0 N :   -0.567257
   1 H :    0.188812
   2 H :    0.189514
   3 H :    0.188930

-------------------------------
LOEWDIN REDUCED ORBITAL CHARGES
-------------------------------
  0 N s       :     3.700298  s :     3.700298
      pz      :     1.180788  p :     3.837287
      px      :     1.208740
      py      :     1.447758
      dz2     :     0.004416  d :     0.029672
      dxz     :     0.000971
      dyz     :     0.012489
      dx2y2   :     0.008485
      dxy     :     0.003310
  1 H s       :     0.811188  s :     0.811188
  2 H s       :     0.810486  s :     0.810486
  3 H s       :     0.811070  s :     0.811070


                      *****************************
                      * MAYER POPULATION ANALYSIS *
                      *****************************

  NA   - Mulliken gross atomic population
  ZA   - Total nuclear charge
  QA   - Mulliken gross atomic charge
  VA   - Mayer's total valence
  BVA  - Mayer's bonded valence
  FA   - Mayer's free valence

  ATOM       NA         ZA         QA         VA         BVA        FA
  0 N      7.6616     7.0000    -0.6616     2.7703     2.7703    -0.0000
  1 H      0.7800     1.0000     0.2200     0.9247     0.9247     0.0000
  2 H      0.7787     1.0000     0.2213     0.9241     0.9241    -0.0000
  3 H      0.7797     1.0000     0.2203     0.9246     0.9246     0.0000

  Mayer bond orders larger than 0.1
B(  0-N ,  1-H ) :   0.9237 B(  0-N ,  2-H ) :   0.9230 B(  0-N ,  3-H ) :   0.9235 


-------
TIMINGS
-------

Total SCF time: 0 days 0 hours 0 min 3 sec 

Total time                  ....       3.509 sec
Sum of individual times     ....       3.384 sec  ( 96.4%)

Fock matrix formation       ....       3.082 sec  ( 87.8%)
  XC integration            ....       0.874 sec  ( 28.3% of F)
    Basis function eval.    ....       0.166 sec  ( 19.0% of XC)
    Density eval.           ....       0.023 sec  (  2.7% of XC)
    XC-Functional eval.     ....       0.180 sec  ( 20.7% of XC)
    XC-Potential eval.      ....       0.015 sec  (  1.7% of XC)
Diagonalization             ....       0.010 sec  (  0.3%)
Density matrix formation    ....       0.000 sec  (  0.0%)
Population analysis         ....       0.017 sec  (  0.5%)
Initial guess               ....       0.139 sec  (  4.0%)
Orbital Transformation      ....       0.000 sec  (  0.0%)
Orbital Orthonormalization  ....       0.000 sec  (  0.0%)
DIIS solution               ....       0.000 sec  (  0.0%)
Grid generation             ....       0.136 sec  (  3.9%)


-------------------------------------------------------------------------------
                          DFT DISPERSION CORRECTION                            
                                                                               
                              DFTD3 V3.1  Rev 1                                
                              USING zero damping                               
-------------------------------------------------------------------------------
The omegaB97X-D3 functional is recognized. Fit by Chai et al.
Active option DFTDOPT                   ...         3   

molecular C6(AA) [au] = 106.218460 


            DFT-D V3
 parameters
 s6 scaling factor         :     1.0000 
 rs6 scaling factor        :     1.2810 
 s8 scaling factor         :     1.0000 
 rs8 scaling factor        :     1.0940 
 Damping factor alpha6     :    14.0000 
 Damping factor alpha8     :    16.0000 
 ad hoc parameters k1-k3   :    16.0000     1.3333    -4.0000 

 Edisp/kcal,au: -0.026258709005  -0.000041845912 
 E6   /kcal   :  -0.004114238 
 E8   /kcal   :  -0.022144471 
 % E8         :  84.331911583 

-------------------------   ----------------
Dispersion correction           -0.000041846
-------------------------   ----------------


-------------------------   --------------------
FINAL SINGLE POINT ENERGY       -56.405765115623
-------------------------   --------------------


                            ***************************************
                            *     ORCA property calculations      *
                            ***************************************

                                    ---------------------
                                    Active property flags
                                    ---------------------
   (+) Dipole Moment


------------------------------------------------------------------------------
                       ORCA ELECTRIC PROPERTIES CALCULATION
------------------------------------------------------------------------------

Dipole Moment Calculation                       ... on
Quadrupole Moment Calculation                   ... off
Polarizability Calculation                      ... off
GBWName                                         ... Scan_10.gbw
Electron density file                           ... Scan_10.scfp.tmp

-------------
DIPOLE MOMENT
-------------
                                X             Y             Z
Electronic contribution:     -0.24223      -0.67583       0.10167
Nuclear contribution   :      0.50108       1.40109      -0.21362
                        -----------------------------------------
Total Dipole Moment    :      0.25885       0.72526      -0.11195
                        -----------------------------------------
Magnitude (a.u.)       :      0.77816
Magnitude (Debye)      :      1.97793


Timings for individual modules:

Sum of individual times         ...        3.964 sec (=   0.066 min)
GTO integral calculation        ...        0.428 sec (=   0.007 min)  10.8 %
SCF iterations                  ...        3.535 sec (=   0.059 min)  89.2 %
                             ****ORCA TERMINATED NORMALLY****
TOTAL RUN TIME: 0 days 0 hours 0 minutes 4 seconds 334 msec
