
                                 *****************
                                 * O   R   C   A *
                                 *****************

           --- An Ab Initio, DFT and Semiempirical electronic structure package ---

                  #######################################################
                  #                        -***-                        #
                  #  Department of molecular theory and spectroscopy    #
                  #              Directorship: Frank Neese              #
                  # Max Planck Institute for Chemical Energy Conversion #
                  #                  D-45470 Muelheim/Ruhr              #
                  #                       Germany                       #
                  #                                                     #
                  #                  All rights reserved                #
                  #                        -***-                        #
                  #######################################################


                         Program Version 4.0.0.2 - RELEASE -


 With contributions from (in alphabetic order):
   Daniel Aravena         : Magnetic Properties
   Michael Atanasov       : Ab Initio Ligand Field Theory
   Ute Becker             : Parallelization
   Martin Brehm           : Molecular dynamics
   Dmytro Bykov           : SCF Hessian
   Vijay G. Chilkuri      : MRCI spin determinant printing
   Dipayan Datta          : RHF DLPNO-CCSD density
   Achintya Kumar Dutta   : EOM-CC, STEOM-CC
   Dmitry Ganyushin       : Spin-Orbit,Spin-Spin,Magnetic field MRCI
   Yang Guo               : DLPNO-NEVPT2, CIM, IAO-localization
   Andreas Hansen         : Spin unrestricted coupled pair/coupled cluster methods
   Lee Huntington         : MR-EOM, pCC
   Robert Izsak           : Overlap fitted RIJCOSX, COSX-SCS-MP3, EOM
   Christian Kollmar      : KDIIS, OOCD, Brueckner-CCSD(T), CCSD density
   Simone Kossmann        : Meta GGA functionals, TD-DFT gradient, OOMP2, MP2 Hessian
   Martin Krupicka        : AUTO-CI
   Dagmar Lenk            : GEPOL surface
   Dimitrios Liakos       : Extrapolation schemes; parallel MDCI
   Dimitrios Manganas     : ROCIS; embedding schemes
   Dimitrios Pantazis     : SARC Basis sets
   Taras Petrenko         : DFT Hessian,TD-DFT gradient, ASA, ECA, R-Raman, ABS, FL, XAS/XES, NRVS
   Peter Pinski           : DLPNO-MP2
   Christoph Reimann      : Effective Core Potentials
   Marius Retegan         : Local ZFS, SOC
   Christoph Riplinger    : Optimizer, TS searches, QM/MM, DLPNO-CCSD(T), (RO)-DLPNO pert. Triples
   Tobias Risthaus        : Range-separated hybrids, TD-DFT gradient, RPA, STAB
   Michael Roemelt        : Restricted open shell CIS
   Masaaki Saitow         : Open-shell DLPNO
   Barbara Sandhoefer     : DKH picture change effects
   Kantharuban Sivalingam : CASSCF convergence, NEVPT2, FIC-MRCI
   Georgi Stoychev        : AutoAux
   Boris Wezisla          : Elementary symmetry handling
   Frank Wennmohs         : Technical directorship


 We gratefully acknowledge several colleagues who have allowed us to
 interface, adapt or use parts of their codes:
   Stefan Grimme, W. Hujo, H. Kruse,             : VdW corrections, initial TS optimization,
                  C. Bannwarth                     DFT functionals, gCP, sTDA/sTD-DF
   Ed Valeev                                     : LibInt (2-el integral package), F12 methods
   Garnet Chan, S. Sharma, J. Yang, R. Olivares  : DMRG
   Ulf Ekstrom                                   : XCFun DFT Library
   Mihaly Kallay                                 : mrcc  (arbitrary order and MRCC methods)
   Jiri Pittner, Ondrej Demel                    : Mk-CCSD
   Frank Weinhold                                : gennbo (NPA and NBO analysis)
   Christopher J. Cramer and Donald G. Truhlar   : smd solvation model


 Your calculation uses the libint2 library for the computation of 2-el integrals
 For citations please refer to: http://libint.valeyev.net

 This ORCA versions uses:
   CBLAS   interface :  Fast vector & matrix operations
   LAPACKE interface :  Fast linear algebra routines
   SCALAPACK package :  Parallel linear algebra routines


Your calculation utilizes the atom-pairwise dispersion correction
with the zero-damping scheme (D30)
Cite in your paper:
S.Grimme, J.Antony, S.Ehrlich and H.Krieg, J.Chem.Phys., 132, (2010), 154104 
   

XCFun DFT library Copyright 2009-2010 Ulf Ekstrom and contributors.
See http://admol.org/xcfun for more information. This is free soft-
ware; see the source code for copying conditions. There is ABSOLUTELY
NO WARRANTY; not even for MERCHANTABILITY or FITNESS FOR A PARTICULAR
PURPOSE. For details see the documentation. Scientific users of this 
library should cite U. Ekstrom, L. Visscher, R. Bast, A. J. Thorvald-
sen and K. Ruud; J.Chem.Theor.Comp. 2010, DOI: 10.1021/ct100117s
XCFun Version 0.99 
Your calculation utilizes the basis: 6-31G(d)
   H-He, Li-Ne : W. J. Hehre, R. Ditchfield and J.A. Pople, J. Chem. Phys. 56, 2257 (1972).
                 Note: He and Ne are unpublished basis sets taken from the Gaussian program.
                 Note: Li and B from J. D. Dill and J. A. Pople, J. Chem. Phys. 62, 2921 (1975).
   Na - Ar     : M. M. Francl, W. J. Pietro, W. J. Hehre, J. S. Binkley, M. S. Gordon, 
                 D. J. DeFrees and J. A. Pople, J. Chem. Phys. 77, 3654 (1982).
   K - Zn      : V. A. Rassolov, J. A. Pople, M. A. Ratner, and T. L. Windus, J. Chem. Phys. 109, 1223 (1998).

================================================================================
                                        WARNINGS
                       Please study these warnings very carefully!
================================================================================

Warning: TCutStore was < 0. Adjusted to Thresh (uncritical)

INFO   : the flag for use of LIBINT has been found!

================================================================================
                                       INPUT FILE
================================================================================
NAME = initial11.inp
|  1> ! WB97X-D3 6-31G(d) VerySlowConv
|  2> ! KDIIS NOSOSCF
|  3> %base "Scan_11"
|  4> 
|  5> %scf
|  6> maxiter 999
|  7> end
|  8> 
|  9> * xyz 0 1
| 10> N         -0.130695559165    0.789508670776    0.040992371272
| 11> H          1.275754283929    1.057759271238    0.000094946677
| 12> H         -0.471602466097    1.507192967515   -1.150831389037
| 13> H         -0.471606258666    1.829759090472    0.964784071087
| 14> **                         ****END OF INPUT****
================================================================================

                       ****************************
                       * Single Point Calculation *
                       ****************************

---------------------------------
CARTESIAN COORDINATES (ANGSTROEM)
---------------------------------
  N     -0.130696    0.789509    0.040992
  H      1.275754    1.057759    0.000095
  H     -0.471602    1.507193   -1.150831
  H     -0.471606    1.829759    0.964784

----------------------------
CARTESIAN COORDINATES (A.U.)
----------------------------
  NO LB      ZA    FRAG     MASS         X           Y           Z
   0 N     7.0000    0    14.007   -0.246979    1.491955    0.077464
   1 H     1.0000    0     1.008    2.410826    1.998875    0.000179
   2 H     1.0000    0     1.008   -0.891200    2.848182   -2.174756
   3 H     1.0000    0     1.008   -0.891207    3.457744    1.823178

--------------------------------
INTERNAL COORDINATES (ANGSTROEM)
--------------------------------
 N      0   0   0     0.000000000000     0.00000000     0.00000000
 H      1   0   0     1.432386869922     0.00000000     0.00000000
 H      1   2   0     1.432386869745    96.66709223     0.00000000
 H      1   2   3     1.432386870004    96.66709227   262.45238531

---------------------------
INTERNAL COORDINATES (A.U.)
---------------------------
 N      0   0   0     0.000000000000     0.00000000     0.00000000
 H      1   0   0     2.706818901978     0.00000000     0.00000000
 H      1   2   0     2.706818901642    96.66709223     0.00000000
 H      1   2   3     2.706818902132    96.66709227   262.45238531

---------------------
BASIS SET INFORMATION
---------------------
There are 2 groups of distinct atoms

 Group   1 Type N   : 10s4p1d contracted to 3s2p1d pattern {631/31/1}
 Group   2 Type H   : 4s contracted to 2s pattern {31}

Atom   0N    basis set group =>   1
Atom   1H    basis set group =>   2
Atom   2H    basis set group =>   2
Atom   3H    basis set group =>   2
------------------------------------------------------------------------------
                           ORCA GTO INTEGRAL CALCULATION
------------------------------------------------------------------------------

                         BASIS SET STATISTICS AND STARTUP INFO

 # of primitive gaussian shells          ...   27
 # of primitive gaussian functions       ...   39
 # of contracted shells                  ...   12
 # of contracted basis functions         ...   20
 Highest angular momentum                ...    2
 Maximum contraction depth               ...    6
 Integral package used                   ... LIBINT
 Integral threshhold            Thresh   ...  1.000e-10
 Primitive cut-off              TCut     ...  1.000e-11


------------------------------ INTEGRAL EVALUATION ----------------------------


 * One electron integrals 
 Pre-screening matrix                    ... done
 Shell pair data                         ... done (   0.000 sec)

-------------------------------------------------------------------------------
                                 ORCA SCF
-------------------------------------------------------------------------------

------------
SCF SETTINGS
------------
Hamiltonian:
 Density Functional     Method          .... DFT(GTOs)
 Exchange Functional    Exchange        .... WB97X-D3
 Correlation Functional Correlation     .... WB97X-D3
 Gradients option       PostSCFGGA      .... off
 Hybrid DFT is turned on
   Fraction HF Exchange ScalHFX         ....  0.195728
   Scaling of DF-GGA-X  ScalDFX         ....  0.000000
   Scaling of DF-GGA-C  ScalDFC         ....  1.000000
   Scaling of DF-LDA-C  ScalLDAC        ....  1.000000
   Perturbative correction              ....  0.000000
 Long-range corrected/Screened/Range-Separated Hybrid DFT is turned on
   Amount of maximum screened exact exchange              ....  0.804272
   Range separation parameter mu (erf(mu*r12)/r12)        ....  0.250000


General Settings:
 Integral files         IntName         .... Scan_11
 Hartree-Fock type      HFTyp           .... RHF
 Total Charge           Charge          ....    0
 Multiplicity           Mult            ....    1
 Number of Electrons    NEL             ....   10
 Basis Dimension        Dim             ....   20
 Nuclear Repulsion      ENuc            ....      8.4999990521 Eh

Convergence Acceleration:
 DIIS                   CNVDIIS         .... on
   Start iteration      DIISMaxIt       ....     0
   Startup error        DIISStart       ....  0.200000
   # of expansion vecs  DIISMaxEq       ....     5
   Bias factor          DIISBfac        ....   1.050
   Max. coefficient     DIISMaxC        ....  10.000
 Newton-Raphson         CNVNR           .... off
 SOSCF                  CNVSOSCF        .... off
 Level Shifting         CNVShift        .... off
 Zerner damping         CNVZerner       .... off
 Static damping         CNVDamp         .... off
 Fernandez-Rico         CNVRico         .... off

SCF Procedure:
 Maximum # iterations   MaxIter         ....   999
 SCF integral mode      SCFMode         .... Direct
   Integral package                     .... LIBINT
 Reset frequeny         DirectResetFreq ....    20
 Integral Threshold     Thresh          ....  1.000e-10 Eh
 Primitive CutOff       TCut            ....  1.000e-11 Eh

Convergence Tolerance:
 Convergence Check Mode ConvCheckMode   .... All-Criteria
 Convergence forced     ConvForced      .... 0
 Energy Change          TolE            ....  1.000e-06 Eh
 Max Density Change     TolMaxP         ....  1.000e-05
 RMS Density Change     TolRMSP         ....  1.000e-06
 DIIS Error             TolErr          ....  1.000e-06


Diagonalization of the overlap matrix:
Smallest eigenvalue                        ... 8.920e-02
Time for diagonalization                   ...    0.000 sec
Threshold for overlap eigenvalues          ... 1.000e-08
Number of eigenvalues below threshold      ... 0
Time for construction of square roots      ...    0.005 sec
Total time needed                          ...    0.005 sec

-------------------
DFT GRID GENERATION
-------------------

General Integration Accuracy     IntAcc      ...  4.340
Radial Grid Type                 RadialGrid  ... Gauss-Chebyshev
Angular Grid (max. acc.)         AngularGrid ... Lebedev-110
Angular grid pruning method      GridPruning ... 3 (G Style)
Weight generation scheme         WeightScheme... Becke
Basis function cutoff            BFCut       ...    1.0000e-10
Integration weight cutoff        WCut        ...    1.0000e-14
Grids for H and He will be reduced by one unit

# of grid points (after initial pruning)     ...   4084 (   0.0 sec)
# of grid points (after weights+screening)   ...   4051 (   0.0 sec)
nearest neighbour list constructed           ...    0.0 sec
Grid point re-assignment to atoms done       ...    0.0 sec
Grid point division into batches done        ...    0.0 sec
Reduced shell lists constructed in    0.0 sec

Total number of grid points                  ...     4051
Total number of batches                      ...       66
Average number of points per batch           ...       61
Average number of grid points per atom       ...     1013
Average number of shells per batch           ...    11.06 (92.16%)
Average number of basis functions per batch  ...    18.67 (93.36%)
Average number of large shells per batch     ...    10.43 (94.33%)
Average number of large basis fcns per batch ...    17.63 (94.40%)
Maximum spatial batch extension              ...  18.64, 21.25, 21.59 au
Average spatial batch extension              ...   5.00,  5.62,  4.48 au

Time for grid setup =    0.023 sec

------------------------------
INITIAL GUESS: MODEL POTENTIAL
------------------------------
Loading Hartree-Fock densities                     ... done
Calculating cut-offs                               ... done
Setting up the integral package                    ... done
Initializing the effective Hamiltonian             ... done
Starting the Coulomb interaction                   ... done (   0.0 sec)
Reading the grid                                   ... done
Mapping shells                                     ... done
Starting the XC term evaluation                    ... done (   0.0 sec)
  promolecular density results
     # of electrons  =      9.998165674
     EX              =     -7.231158977
     EC              =     -0.281680724
     EX+EC           =     -7.512839701
Transforming the Hamiltonian                       ... done (   0.0 sec)
Diagonalizing the Hamiltonian                      ... done (   0.0 sec)
Back transforming the eigenvectors                 ... done (   0.0 sec)
Now organizing SCF variables                       ... done
                      ------------------
                      INITIAL GUESS DONE (   0.1 sec)
                      ------------------
--------------
SCF ITERATIONS
--------------
ITER       Energy         Delta-E        Max-DP      RMS-DP      [F,P]   Gradient Norm
               ***  Starting incremental Fock matrix formation  ***
                             ****Resetting KDIIS****
                             ****Turning on KDIIS(Cayley)****
  0    -56.2829886851   0.000000000000 0.03333514  0.00394161  0.1066762   0.109702010
  1    -56.3123190178  -0.029330332676 0.01363732  0.00219685  0.0791893   0.079475435
  2    -56.3235903950  -0.011271377268 0.02373969  0.00367964  0.0652251   0.065425423
  3    -56.3378897168  -0.014299321731 0.03851214  0.00585393  0.0408089   0.041012239
  4    -56.3472023660  -0.009312649259 0.00150819  0.00018944  0.0020533   0.001945098
  5    -56.3472173918  -0.000015025808 0.00444506  0.00046781  0.0013931   0.001443798
  6    -56.3472297808  -0.000012388942 0.00120873  0.00014025  0.0006678   0.000579725
  7    -56.3472325525  -0.000002771738 0.00020268  0.00002353  0.0000909   0.000080277
                          ***Energy convergence achieved***
                           ***MAXP convergence achieved***
  8    -56.3472326103  -0.000000057806 0.00000876  0.00000159  0.0000044   0.000005216
                           ***RMSP convergence achieved***
                    *** KDIIS BlockDiag ( 0.000 sec) ***

               *****************************************************
               *                     SUCCESS                       *
               *           SCF CONVERGED AFTER   9 CYCLES          *
               *****************************************************

Setting up the final grid:

General Integration Accuracy     IntAcc      ...  4.670
Radial Grid Type                 RadialGrid  ... Gauss-Chebyshev
Angular Grid (max. acc.)         AngularGrid ... Lebedev-302
Angular grid pruning method      GridPruning ... 3 (G Style)
Weight generation scheme         WeightScheme... Becke
Basis function cutoff            BFCut       ...    1.0000e-10
Integration weight cutoff        WCut        ...    1.0000e-14
Grids for H and He will be reduced by one unit

# of grid points (after initial pruning)     ...  16394 (   0.0 sec)
# of grid points (after weights+screening)   ...  16198 (   0.0 sec)
nearest neighbour list constructed           ...    0.0 sec
Grid point re-assignment to atoms done       ...    0.0 sec
Grid point division into batches done        ...    0.0 sec
Reduced shell lists constructed in    0.1 sec

Total number of grid points                  ...    16198
Total number of batches                      ...      256
Average number of points per batch           ...       63
Average number of grid points per atom       ...     4050
Average number of shells per batch           ...    10.14 (84.50%)
Average number of basis functions per batch  ...    17.11 (85.56%)
Average number of large shells per batch     ...     9.42 (92.94%)
Average number of large basis fcns per batch ...    16.05 (93.82%)
Maximum spatial batch extension              ...  16.31, 17.24, 15.43 au
Average spatial batch extension              ...   3.13,  3.30,  3.00 au

Final grid set up in    0.1 sec
Final integration                            ... done (   0.1 sec)
Change in XC energy                          ...    -0.000151699
Integrated number of electrons               ...     9.999991781
Previous integrated no of electrons          ...     9.998321681

----------------
TOTAL SCF ENERGY
----------------

Total Energy       :          -56.34738431 Eh           -1533.29028 eV

Components:
Nuclear Repulsion  :            8.49999905 Eh             231.29673 eV
Electronic Energy  :          -64.84738336 Eh           -1764.58701 eV
One Electron Energy:          -92.88014979 Eh           -2527.39737 eV
Two Electron Energy:           28.03276643 Eh             762.81036 eV

Virial components:
Potential Energy   :         -111.50646898 Eh           -3034.24528 eV
Kinetic Energy     :           55.15908467 Eh            1500.95500 eV
Virial Ratio       :            2.02154314


DFT components:
N(Alpha)           :        4.999995890663 electrons
N(Beta)            :        4.999995890663 electrons
N(Total)           :        9.999991781327 electrons
E(XC)              :       -5.152774019573 Eh       

---------------
SCF CONVERGENCE
---------------

  Last Energy change         ...   -1.8448e-10  Tolerance :   1.0000e-06
  Last MAX-Density change    ...    2.5855e-06  Tolerance :   1.0000e-05
  Last RMS-Density change    ...    2.5146e-07  Tolerance :   1.0000e-06
  Last DIIS Error            ...    8.6876e-07  Tolerance :   1.0000e-06

             **** THE GBW FILE WAS UPDATED (Scan_11.gbw) ****
             **** DENSITY FILE WAS UPDATED (Scan_11.scfp.tmp) ****
             **** ENERGY FILE WAS UPDATED (Scan_11.en.tmp) ****
----------------
ORBITAL ENERGIES
----------------

  NO   OCC          E(Eh)            E(eV) 
   0   2.0000     -14.523843      -395.2139 
   1   2.0000      -0.865488       -23.5511 
   2   2.0000      -0.456177       -12.4132 
   3   2.0000      -0.456168       -12.4130 
   4   2.0000      -0.388421       -10.5695 
   5   0.0000       0.053516         1.4563 
   6   0.0000       0.104757         2.8506 
   7   0.0000       0.104943         2.8556 
   8   0.0000       0.750012        20.4089 
   9   0.0000       0.843427        22.9508 
  10   0.0000       0.843721        22.9588 
  11   0.0000       0.872538        23.7430 
  12   0.0000       0.899107        24.4659 
  13   0.0000       0.899537        24.4777 
  14   0.0000       1.288793        35.0698 
  15   0.0000       1.816461        49.4284 
  16   0.0000       1.817815        49.4653 
  17   0.0000       1.838962        50.0407 
  18   0.0000       2.008508        54.6543 
  19   0.0000       2.008670        54.6587 

                    ********************************
                    * MULLIKEN POPULATION ANALYSIS *
                    ********************************

-----------------------
MULLIKEN ATOMIC CHARGES
-----------------------
   0 N :   -0.555624
   1 H :    0.184653
   2 H :    0.185781
   3 H :    0.185191
Sum of atomic charges:   -0.0000000

--------------------------------
MULLIKEN REDUCED ORBITAL CHARGES
--------------------------------
  0 N s       :     3.936275  s :     3.936275
      pz      :     1.125242  p :     3.601129
      px      :     1.146061
      py      :     1.329826
      dz2     :     0.002300  d :     0.018220
      dxz     :     0.000258
      dyz     :     0.008024
      dx2y2   :     0.005253
      dxy     :     0.002385
  1 H s       :     0.815347  s :     0.815347
  2 H s       :     0.814219  s :     0.814219
  3 H s       :     0.814809  s :     0.814809


                     *******************************
                     * LOEWDIN POPULATION ANALYSIS *
                     *******************************

----------------------
LOEWDIN ATOMIC CHARGES
----------------------
   0 N :   -0.507355
   1 H :    0.168807
   2 H :    0.169418
   3 H :    0.169129

-------------------------------
LOEWDIN REDUCED ORBITAL CHARGES
-------------------------------
  0 N s       :     3.774972  s :     3.774972
      pz      :     1.164723  p :     3.709139
      px      :     1.184817
      py      :     1.359599
      dz2     :     0.003338  d :     0.023244
      dxz     :     0.000681
      dyz     :     0.009889
      dx2y2   :     0.006643
      dxy     :     0.002692
  1 H s       :     0.831193  s :     0.831193
  2 H s       :     0.830582  s :     0.830582
  3 H s       :     0.830871  s :     0.830871


                      *****************************
                      * MAYER POPULATION ANALYSIS *
                      *****************************

  NA   - Mulliken gross atomic population
  ZA   - Total nuclear charge
  QA   - Mulliken gross atomic charge
  VA   - Mayer's total valence
  BVA  - Mayer's bonded valence
  FA   - Mayer's free valence

  ATOM       NA         ZA         QA         VA         BVA        FA
  0 N      7.5556     7.0000    -0.5556     2.8338     2.8338    -0.0000
  1 H      0.8153     1.0000     0.1847     0.9449     0.9449    -0.0000
  2 H      0.8142     1.0000     0.1858     0.9445     0.9445    -0.0000
  3 H      0.8148     1.0000     0.1852     0.9447     0.9447     0.0000

  Mayer bond orders larger than 0.1
B(  0-N ,  1-H ) :   0.9448 B(  0-N ,  2-H ) :   0.9444 B(  0-N ,  3-H ) :   0.9446 


-------
TIMINGS
-------

Total SCF time: 0 days 0 hours 0 min 3 sec 

Total time                  ....       3.021 sec
Sum of individual times     ....       2.902 sec  ( 96.0%)

Fock matrix formation       ....       2.637 sec  ( 87.3%)
  XC integration            ....       0.580 sec  ( 22.0% of F)
    Basis function eval.    ....       0.161 sec  ( 27.7% of XC)
    Density eval.           ....       0.024 sec  (  4.1% of XC)
    XC-Functional eval.     ....       0.179 sec  ( 30.9% of XC)
    XC-Potential eval.      ....       0.014 sec  (  2.5% of XC)
Diagonalization             ....       0.006 sec  (  0.2%)
Density matrix formation    ....       0.000 sec  (  0.0%)
Population analysis         ....       0.011 sec  (  0.4%)
Initial guess               ....       0.114 sec  (  3.8%)
Orbital Transformation      ....       0.000 sec  (  0.0%)
Orbital Orthonormalization  ....       0.000 sec  (  0.0%)
DIIS solution               ....       0.000 sec  (  0.0%)
Grid generation             ....       0.133 sec  (  4.4%)


-------------------------------------------------------------------------------
                          DFT DISPERSION CORRECTION                            
                                                                               
                              DFTD3 V3.1  Rev 1                                
                              USING zero damping                               
-------------------------------------------------------------------------------
The omegaB97X-D3 functional is recognized. Fit by Chai et al.
Active option DFTDOPT                   ...         3   

molecular C6(AA) [au] = 143.387561 


            DFT-D V3
 parameters
 s6 scaling factor         :     1.0000 
 rs6 scaling factor        :     1.2810 
 s8 scaling factor         :     1.0000 
 rs8 scaling factor        :     1.0940 
 Damping factor alpha6     :    14.0000 
 Damping factor alpha8     :    16.0000 
 ad hoc parameters k1-k3   :    16.0000     1.3333    -4.0000 

 Edisp/kcal,au: -0.065381320383  -0.000104191755 
 E6   /kcal   :  -0.010377451 
 E8   /kcal   :  -0.055003869 
 % E8         :  84.127804611 

-------------------------   ----------------
Dispersion correction           -0.000104192
-------------------------   ----------------


-------------------------   --------------------
FINAL SINGLE POINT ENERGY       -56.347488501245
-------------------------   --------------------


                            ***************************************
                            *     ORCA property calculations      *
                            ***************************************

                                    ---------------------
                                    Active property flags
                                    ---------------------
   (+) Dipole Moment


------------------------------------------------------------------------------
                       ORCA ELECTRIC PROPERTIES CALCULATION
------------------------------------------------------------------------------

Dipole Moment Calculation                       ... on
Quadrupole Moment Calculation                   ... off
Polarizability Calculation                      ... off
GBWName                                         ... Scan_11.gbw
Electron density file                           ... Scan_11.scfp.tmp

-------------
DIPOLE MOMENT
-------------
                                X             Y             Z
Electronic contribution:     -0.31563      -0.87949       0.13295
Nuclear contribution   :      0.55889       1.56273      -0.23827
                        -----------------------------------------
Total Dipole Moment    :      0.24326       0.68324      -0.10532
                        -----------------------------------------
Magnitude (a.u.)       :      0.73286
Magnitude (Debye)      :      1.86278


Timings for individual modules:

Sum of individual times         ...        3.345 sec (=   0.056 min)
GTO integral calculation        ...        0.301 sec (=   0.005 min)   9.0 %
SCF iterations                  ...        3.044 sec (=   0.051 min)  91.0 %
                             ****ORCA TERMINATED NORMALLY****
TOTAL RUN TIME: 0 days 0 hours 0 minutes 3 seconds 996 msec
