
                                 *****************
                                 * O   R   C   A *
                                 *****************

           --- An Ab Initio, DFT and Semiempirical electronic structure package ---

                  #######################################################
                  #                        -***-                        #
                  #  Department of molecular theory and spectroscopy    #
                  #              Directorship: Frank Neese              #
                  # Max Planck Institute for Chemical Energy Conversion #
                  #                  D-45470 Muelheim/Ruhr              #
                  #                       Germany                       #
                  #                                                     #
                  #                  All rights reserved                #
                  #                        -***-                        #
                  #######################################################


                         Program Version 4.0.0.2 - RELEASE -


 With contributions from (in alphabetic order):
   Daniel Aravena         : Magnetic Properties
   Michael Atanasov       : Ab Initio Ligand Field Theory
   Ute Becker             : Parallelization
   Martin Brehm           : Molecular dynamics
   Dmytro Bykov           : SCF Hessian
   Vijay G. Chilkuri      : MRCI spin determinant printing
   Dipayan Datta          : RHF DLPNO-CCSD density
   Achintya Kumar Dutta   : EOM-CC, STEOM-CC
   Dmitry Ganyushin       : Spin-Orbit,Spin-Spin,Magnetic field MRCI
   Yang Guo               : DLPNO-NEVPT2, CIM, IAO-localization
   Andreas Hansen         : Spin unrestricted coupled pair/coupled cluster methods
   Lee Huntington         : MR-EOM, pCC
   Robert Izsak           : Overlap fitted RIJCOSX, COSX-SCS-MP3, EOM
   Christian Kollmar      : KDIIS, OOCD, Brueckner-CCSD(T), CCSD density
   Simone Kossmann        : Meta GGA functionals, TD-DFT gradient, OOMP2, MP2 Hessian
   Martin Krupicka        : AUTO-CI
   Dagmar Lenk            : GEPOL surface
   Dimitrios Liakos       : Extrapolation schemes; parallel MDCI
   Dimitrios Manganas     : ROCIS; embedding schemes
   Dimitrios Pantazis     : SARC Basis sets
   Taras Petrenko         : DFT Hessian,TD-DFT gradient, ASA, ECA, R-Raman, ABS, FL, XAS/XES, NRVS
   Peter Pinski           : DLPNO-MP2
   Christoph Reimann      : Effective Core Potentials
   Marius Retegan         : Local ZFS, SOC
   Christoph Riplinger    : Optimizer, TS searches, QM/MM, DLPNO-CCSD(T), (RO)-DLPNO pert. Triples
   Tobias Risthaus        : Range-separated hybrids, TD-DFT gradient, RPA, STAB
   Michael Roemelt        : Restricted open shell CIS
   Masaaki Saitow         : Open-shell DLPNO
   Barbara Sandhoefer     : DKH picture change effects
   Kantharuban Sivalingam : CASSCF convergence, NEVPT2, FIC-MRCI
   Georgi Stoychev        : AutoAux
   Boris Wezisla          : Elementary symmetry handling
   Frank Wennmohs         : Technical directorship


 We gratefully acknowledge several colleagues who have allowed us to
 interface, adapt or use parts of their codes:
   Stefan Grimme, W. Hujo, H. Kruse,             : VdW corrections, initial TS optimization,
                  C. Bannwarth                     DFT functionals, gCP, sTDA/sTD-DF
   Ed Valeev                                     : LibInt (2-el integral package), F12 methods
   Garnet Chan, S. Sharma, J. Yang, R. Olivares  : DMRG
   Ulf Ekstrom                                   : XCFun DFT Library
   Mihaly Kallay                                 : mrcc  (arbitrary order and MRCC methods)
   Jiri Pittner, Ondrej Demel                    : Mk-CCSD
   Frank Weinhold                                : gennbo (NPA and NBO analysis)
   Christopher J. Cramer and Donald G. Truhlar   : smd solvation model


 Your calculation uses the libint2 library for the computation of 2-el integrals
 For citations please refer to: http://libint.valeyev.net

 This ORCA versions uses:
   CBLAS   interface :  Fast vector & matrix operations
   LAPACKE interface :  Fast linear algebra routines
   SCALAPACK package :  Parallel linear algebra routines


Your calculation utilizes the atom-pairwise dispersion correction
with the zero-damping scheme (D30)
Cite in your paper:
S.Grimme, J.Antony, S.Ehrlich and H.Krieg, J.Chem.Phys., 132, (2010), 154104 
   

XCFun DFT library Copyright 2009-2010 Ulf Ekstrom and contributors.
See http://admol.org/xcfun for more information. This is free soft-
ware; see the source code for copying conditions. There is ABSOLUTELY
NO WARRANTY; not even for MERCHANTABILITY or FITNESS FOR A PARTICULAR
PURPOSE. For details see the documentation. Scientific users of this 
library should cite U. Ekstrom, L. Visscher, R. Bast, A. J. Thorvald-
sen and K. Ruud; J.Chem.Theor.Comp. 2010, DOI: 10.1021/ct100117s
XCFun Version 0.99 
Your calculation utilizes the basis: 6-31G(d)
   H-He, Li-Ne : W. J. Hehre, R. Ditchfield and J.A. Pople, J. Chem. Phys. 56, 2257 (1972).
                 Note: He and Ne are unpublished basis sets taken from the Gaussian program.
                 Note: Li and B from J. D. Dill and J. A. Pople, J. Chem. Phys. 62, 2921 (1975).
   Na - Ar     : M. M. Francl, W. J. Pietro, W. J. Hehre, J. S. Binkley, M. S. Gordon, 
                 D. J. DeFrees and J. A. Pople, J. Chem. Phys. 77, 3654 (1982).
   K - Zn      : V. A. Rassolov, J. A. Pople, M. A. Ratner, and T. L. Windus, J. Chem. Phys. 109, 1223 (1998).

================================================================================
                                        WARNINGS
                       Please study these warnings very carefully!
================================================================================

Warning: TCutStore was < 0. Adjusted to Thresh (uncritical)

INFO   : the flag for use of LIBINT has been found!

================================================================================
                                       INPUT FILE
================================================================================
NAME = initial12.inp
|  1> ! WB97X-D3 6-31G(d) VerySlowConv
|  2> ! KDIIS NOSOSCF
|  3> %base "Scan_12"
|  4> 
|  5> %scf
|  6> maxiter 999
|  7> end
|  8> 
|  9> * xyz 0 1
| 10> N         -0.148839087084    0.738776520321    0.048727425385
| 11> H          1.355309258126    1.048978618444    0.001433871614
| 12> H         -0.502308072141    1.526772189587   -1.222117479875
| 13> H         -0.502312098901    1.869692671648    1.026996182876
| 14> **                         ****END OF INPUT****
================================================================================

                       ****************************
                       * Single Point Calculation *
                       ****************************

---------------------------------
CARTESIAN COORDINATES (ANGSTROEM)
---------------------------------
  N     -0.148839    0.738777    0.048727
  H      1.355309    1.048979    0.001434
  H     -0.502308    1.526772   -1.222117
  H     -0.502312    1.869693    1.026996

----------------------------
CARTESIAN COORDINATES (A.U.)
----------------------------
  NO LB      ZA    FRAG     MASS         X           Y           Z
   0 N     7.0000    0    14.007   -0.281265    1.396085    0.092081
   1 H     1.0000    0     1.008    2.561163    1.982282    0.002710
   2 H     1.0000    0     1.008   -0.949225    2.885181   -2.309467
   3 H     1.0000    0     1.008   -0.949232    3.533207    1.940742

--------------------------------
INTERNAL COORDINATES (ANGSTROEM)
--------------------------------
 N      0   0   0     0.000000000000     0.00000000     0.00000000
 H      1   0   0     1.536529943186     0.00000000     0.00000000
 H      1   2   0     1.536529944845    95.52059086     0.00000000
 H      1   2   3     1.536529945461    95.52059041   263.88964832

---------------------------
INTERNAL COORDINATES (A.U.)
---------------------------
 N      0   0   0     0.000000000000     0.00000000     0.00000000
 H      1   0   0     2.903620789191     0.00000000     0.00000000
 H      1   2   0     2.903620792326    95.52059086     0.00000000
 H      1   2   3     2.903620793490    95.52059041   263.88964832

---------------------
BASIS SET INFORMATION
---------------------
There are 2 groups of distinct atoms

 Group   1 Type N   : 10s4p1d contracted to 3s2p1d pattern {631/31/1}
 Group   2 Type H   : 4s contracted to 2s pattern {31}

Atom   0N    basis set group =>   1
Atom   1H    basis set group =>   2
Atom   2H    basis set group =>   2
Atom   3H    basis set group =>   2
------------------------------------------------------------------------------
                           ORCA GTO INTEGRAL CALCULATION
------------------------------------------------------------------------------

                         BASIS SET STATISTICS AND STARTUP INFO

 # of primitive gaussian shells          ...   27
 # of primitive gaussian functions       ...   39
 # of contracted shells                  ...   12
 # of contracted basis functions         ...   20
 Highest angular momentum                ...    2
 Maximum contraction depth               ...    6
 Integral package used                   ... LIBINT
 Integral threshhold            Thresh   ...  1.000e-10
 Primitive cut-off              TCut     ...  1.000e-11


------------------------------ INTEGRAL EVALUATION ----------------------------


 * One electron integrals 
 Pre-screening matrix                    ... done
 Shell pair data                         ... done (   0.000 sec)

-------------------------------------------------------------------------------
                                 ORCA SCF
-------------------------------------------------------------------------------

------------
SCF SETTINGS
------------
Hamiltonian:
 Density Functional     Method          .... DFT(GTOs)
 Exchange Functional    Exchange        .... WB97X-D3
 Correlation Functional Correlation     .... WB97X-D3
 Gradients option       PostSCFGGA      .... off
 Hybrid DFT is turned on
   Fraction HF Exchange ScalHFX         ....  0.195728
   Scaling of DF-GGA-X  ScalDFX         ....  0.000000
   Scaling of DF-GGA-C  ScalDFC         ....  1.000000
   Scaling of DF-LDA-C  ScalLDAC        ....  1.000000
   Perturbative correction              ....  0.000000
 Long-range corrected/Screened/Range-Separated Hybrid DFT is turned on
   Amount of maximum screened exact exchange              ....  0.804272
   Range separation parameter mu (erf(mu*r12)/r12)        ....  0.250000


General Settings:
 Integral files         IntName         .... Scan_12
 Hartree-Fock type      HFTyp           .... RHF
 Total Charge           Charge          ....    0
 Multiplicity           Mult            ....    1
 Number of Electrons    NEL             ....   10
 Basis Dimension        Dim             ....   20
 Nuclear Repulsion      ENuc            ....      7.9301329947 Eh

Convergence Acceleration:
 DIIS                   CNVDIIS         .... on
   Start iteration      DIISMaxIt       ....     0
   Startup error        DIISStart       ....  0.200000
   # of expansion vecs  DIISMaxEq       ....     5
   Bias factor          DIISBfac        ....   1.050
   Max. coefficient     DIISMaxC        ....  10.000
 Newton-Raphson         CNVNR           .... off
 SOSCF                  CNVSOSCF        .... off
 Level Shifting         CNVShift        .... off
 Zerner damping         CNVZerner       .... off
 Static damping         CNVDamp         .... off
 Fernandez-Rico         CNVRico         .... off

SCF Procedure:
 Maximum # iterations   MaxIter         ....   999
 SCF integral mode      SCFMode         .... Direct
   Integral package                     .... LIBINT
 Reset frequeny         DirectResetFreq ....    20
 Integral Threshold     Thresh          ....  1.000e-10 Eh
 Primitive CutOff       TCut            ....  1.000e-11 Eh

Convergence Tolerance:
 Convergence Check Mode ConvCheckMode   .... All-Criteria
 Convergence forced     ConvForced      .... 0
 Energy Change          TolE            ....  1.000e-06 Eh
 Max Density Change     TolMaxP         ....  1.000e-05
 RMS Density Change     TolRMSP         ....  1.000e-06
 DIIS Error             TolErr          ....  1.000e-06


Diagonalization of the overlap matrix:
Smallest eigenvalue                        ... 1.033e-01
Time for diagonalization                   ...    0.000 sec
Threshold for overlap eigenvalues          ... 1.000e-08
Number of eigenvalues below threshold      ... 0
Time for construction of square roots      ...    0.005 sec
Total time needed                          ...    0.005 sec

-------------------
DFT GRID GENERATION
-------------------

General Integration Accuracy     IntAcc      ...  4.340
Radial Grid Type                 RadialGrid  ... Gauss-Chebyshev
Angular Grid (max. acc.)         AngularGrid ... Lebedev-110
Angular grid pruning method      GridPruning ... 3 (G Style)
Weight generation scheme         WeightScheme... Becke
Basis function cutoff            BFCut       ...    1.0000e-10
Integration weight cutoff        WCut        ...    1.0000e-14
Grids for H and He will be reduced by one unit

# of grid points (after initial pruning)     ...   4084 (   0.0 sec)
# of grid points (after weights+screening)   ...   4056 (   0.0 sec)
nearest neighbour list constructed           ...    0.0 sec
Grid point re-assignment to atoms done       ...    0.0 sec
Grid point division into batches done        ...    0.0 sec
Reduced shell lists constructed in    0.0 sec

Total number of grid points                  ...     4056
Total number of batches                      ...       66
Average number of points per batch           ...       61
Average number of grid points per atom       ...     1014
Average number of shells per batch           ...    10.97 (91.42%)
Average number of basis functions per batch  ...    18.49 (92.46%)
Average number of large shells per batch     ...    10.27 (93.61%)
Average number of large basis fcns per batch ...    17.34 (93.79%)
Maximum spatial batch extension              ...  18.62, 21.42, 21.59 au
Average spatial batch extension              ...   5.19,  5.60,  4.58 au

Time for grid setup =    0.023 sec

------------------------------
INITIAL GUESS: MODEL POTENTIAL
------------------------------
Loading Hartree-Fock densities                     ... done
Calculating cut-offs                               ... done
Setting up the integral package                    ... done
Initializing the effective Hamiltonian             ... done
Starting the Coulomb interaction                   ... done (   0.0 sec)
Reading the grid                                   ... done
Mapping shells                                     ... done
Starting the XC term evaluation                    ... done (   0.0 sec)
  promolecular density results
     # of electrons  =      9.998350827
     EX              =     -7.206148626
     EC              =     -0.276229663
     EX+EC           =     -7.482378288
Transforming the Hamiltonian                       ... done (   0.0 sec)
Diagonalizing the Hamiltonian                      ... done (   0.0 sec)
Back transforming the eigenvectors                 ... done (   0.0 sec)
Now organizing SCF variables                       ... done
                      ------------------
                      INITIAL GUESS DONE (   0.2 sec)
                      ------------------
--------------
SCF ITERATIONS
--------------
ITER       Energy         Delta-E        Max-DP      RMS-DP      [F,P]   Gradient Norm
               ***  Starting incremental Fock matrix formation  ***
                             ****Resetting KDIIS****
                             ****Turning on KDIIS(Cayley)****
  0    -56.2262171598   0.000000000000 0.03135960  0.00364614  0.1086028   0.104774269
  1    -56.2536622029  -0.027445043113 0.02531467  0.00412845  0.0809939   0.076008816
  2    -56.2691446270  -0.015482424160 0.02756605  0.00419675  0.0588841   0.058141554
  3    -56.2815852564  -0.012440629402 0.03522825  0.00520005  0.0318338   0.033915289
  4    -56.2870612563  -0.005475999880 0.00477716  0.00077587  0.0053072   0.004813300
  5    -56.2872389368  -0.000177680495 0.00891022  0.00153933  0.0046664   0.003577929
  6    -56.2874134592  -0.000174522367 0.00129817  0.00012623  0.0014910   0.001410524
  7    -56.2874237039  -0.000010244690 0.00231200  0.00022618  0.0009098   0.000835615
  8    -56.2874300016  -0.000006297682 0.00013436  0.00001058  0.0000430   0.000034155
                          ***Energy convergence achieved***
  9    -56.2874300104  -0.000000008826 0.00001597  0.00000148  0.0000028   0.000003180
                           ***RMSP convergence achieved***
                           ***MAXP convergence achieved***
                    *** KDIIS BlockDiag ( 0.000 sec) ***

               *****************************************************
               *                     SUCCESS                       *
               *           SCF CONVERGED AFTER  10 CYCLES          *
               *****************************************************

Setting up the final grid:

General Integration Accuracy     IntAcc      ...  4.670
Radial Grid Type                 RadialGrid  ... Gauss-Chebyshev
Angular Grid (max. acc.)         AngularGrid ... Lebedev-302
Angular grid pruning method      GridPruning ... 3 (G Style)
Weight generation scheme         WeightScheme... Becke
Basis function cutoff            BFCut       ...    1.0000e-10
Integration weight cutoff        WCut        ...    1.0000e-14
Grids for H and He will be reduced by one unit

# of grid points (after initial pruning)     ...  16394 (   0.0 sec)
# of grid points (after weights+screening)   ...  16219 (   0.0 sec)
nearest neighbour list constructed           ...    0.0 sec
Grid point re-assignment to atoms done       ...    0.0 sec
Grid point division into batches done        ...    0.0 sec
Reduced shell lists constructed in    0.1 sec

Total number of grid points                  ...    16219
Total number of batches                      ...      255
Average number of points per batch           ...       63
Average number of grid points per atom       ...     4055
Average number of shells per batch           ...    10.07 (83.89%)
Average number of basis functions per batch  ...    16.96 (84.79%)
Average number of large shells per batch     ...     9.27 (92.05%)
Average number of large basis fcns per batch ...    15.83 (93.34%)
Maximum spatial batch extension              ...  14.40, 16.88, 15.43 au
Average spatial batch extension              ...   3.20,  3.33,  3.03 au

Final grid set up in    0.1 sec
Final integration                            ... done (   0.1 sec)
Change in XC energy                          ...    -0.000157733
Integrated number of electrons               ...     9.999998163
Previous integrated no of electrons          ...     9.998368464

----------------
TOTAL SCF ENERGY
----------------

Total Energy       :          -56.28758774 Eh           -1531.66313 eV

Components:
Nuclear Repulsion  :            7.93013299 Eh             215.78989 eV
Electronic Energy  :          -64.21772074 Eh           -1747.45302 eV
One Electron Energy:          -91.68402652 Eh           -2494.84920 eV
Two Electron Energy:           27.46630578 Eh             747.39618 eV

Virial components:
Potential Energy   :         -111.33946943 Eh           -3029.70099 eV
Kinetic Energy     :           55.05188168 Eh            1498.03786 eV
Virial Ratio       :            2.02244621


DFT components:
N(Alpha)           :        4.999999081696 electrons
N(Beta)            :        4.999999081696 electrons
N(Total)           :        9.999998163391 electrons
E(XC)              :       -5.105984498474 Eh       

---------------
SCF CONVERGENCE
---------------

  Last Energy change         ...   -1.4027e-10  Tolerance :   1.0000e-06
  Last MAX-Density change    ...    2.9972e-06  Tolerance :   1.0000e-05
  Last RMS-Density change    ...    4.0812e-07  Tolerance :   1.0000e-06
  Last DIIS Error            ...    8.8609e-07  Tolerance :   1.0000e-06

             **** THE GBW FILE WAS UPDATED (Scan_12.gbw) ****
             **** DENSITY FILE WAS UPDATED (Scan_12.scfp.tmp) ****
             **** ENERGY FILE WAS UPDATED (Scan_12.en.tmp) ****
----------------
ORBITAL ENERGIES
----------------

  NO   OCC          E(Eh)            E(eV) 
   0   2.0000     -14.544174      -395.7671 
   1   2.0000      -0.854468       -23.2512 
   2   2.0000      -0.440785       -11.9944 
   3   2.0000      -0.440714       -11.9924 
   4   2.0000      -0.393045       -10.6953 
   5   0.0000       0.027121         0.7380 
   6   0.0000       0.069708         1.8968 
   7   0.0000       0.069863         1.9011 
   8   0.0000       0.737117        20.0580 
   9   0.0000       0.840301        22.8657 
  10   0.0000       0.840425        22.8691 
  11   0.0000       0.870418        23.6853 
  12   0.0000       0.917382        24.9632 
  13   0.0000       0.917583        24.9687 
  14   0.0000       1.225081        33.3361 
  15   0.0000       1.818760        49.4910 
  16   0.0000       1.820124        49.5281 
  17   0.0000       1.830581        49.8126 
  18   0.0000       1.935980        52.6807 
  19   0.0000       1.936048        52.6825 

                    ********************************
                    * MULLIKEN POPULATION ANALYSIS *
                    ********************************

-----------------------
MULLIKEN ATOMIC CHARGES
-----------------------
   0 N :   -0.457608
   1 H :    0.152317
   2 H :    0.152899
   3 H :    0.152392
Sum of atomic charges:   -0.0000000

--------------------------------
MULLIKEN REDUCED ORBITAL CHARGES
--------------------------------
  0 N s       :     3.952046  s :     3.952046
      pz      :     1.113500  p :     3.491579
      px      :     1.127462
      py      :     1.250617
      dz2     :     0.001750  d :     0.013983
      dxz     :     0.000202
      dyz     :     0.006169
      dx2y2   :     0.004026
      dxy     :     0.001837
  1 H s       :     0.847683  s :     0.847683
  2 H s       :     0.847101  s :     0.847101
  3 H s       :     0.847608  s :     0.847608


                     *******************************
                     * LOEWDIN POPULATION ANALYSIS *
                     *******************************

----------------------
LOEWDIN ATOMIC CHARGES
----------------------
   0 N :   -0.445850
   1 H :    0.148533
   2 H :    0.148826
   3 H :    0.148491

-------------------------------
LOEWDIN REDUCED ORBITAL CHARGES
-------------------------------
  0 N s       :     3.832732  s :     3.832732
      pz      :     1.150715  p :     3.595437
      px      :     1.164151
      py      :     1.280571
      dz2     :     0.002487  d :     0.017681
      dxz     :     0.000486
      dyz     :     0.007570
      dx2y2   :     0.005056
      dxy     :     0.002083
  1 H s       :     0.851467  s :     0.851467
  2 H s       :     0.851174  s :     0.851174
  3 H s       :     0.851509  s :     0.851509


                      *****************************
                      * MAYER POPULATION ANALYSIS *
                      *****************************

  NA   - Mulliken gross atomic population
  ZA   - Total nuclear charge
  QA   - Mulliken gross atomic charge
  VA   - Mayer's total valence
  BVA  - Mayer's bonded valence
  FA   - Mayer's free valence

  ATOM       NA         ZA         QA         VA         BVA        FA
  0 N      7.4576     7.0000    -0.4576     2.8850     2.8850    -0.0000
  1 H      0.8477     1.0000     0.1523     0.9609     0.9609    -0.0000
  2 H      0.8471     1.0000     0.1529     0.9608     0.9608    -0.0000
  3 H      0.8476     1.0000     0.1524     0.9609     0.9609     0.0000

  Mayer bond orders larger than 0.1
B(  0-N ,  1-H ) :   0.9617 B(  0-N ,  2-H ) :   0.9616 B(  0-N ,  3-H ) :   0.9617 


-------
TIMINGS
-------

Total SCF time: 0 days 0 hours 0 min 4 sec 

Total time                  ....       4.395 sec
Sum of individual times     ....       4.254 sec  ( 96.8%)

Fock matrix formation       ....       3.952 sec  ( 89.9%)
  XC integration            ....       0.652 sec  ( 16.5% of F)
    Basis function eval.    ....       0.174 sec  ( 26.6% of XC)
    Density eval.           ....       0.027 sec  (  4.1% of XC)
    XC-Functional eval.     ....       0.190 sec  ( 29.1% of XC)
    XC-Potential eval.      ....       0.015 sec  (  2.3% of XC)
Diagonalization             ....       0.020 sec  (  0.5%)
Density matrix formation    ....       0.000 sec  (  0.0%)
Population analysis         ....       0.009 sec  (  0.2%)
Initial guess               ....       0.135 sec  (  3.1%)
Orbital Transformation      ....       0.000 sec  (  0.0%)
Orbital Orthonormalization  ....       0.000 sec  (  0.0%)
DIIS solution               ....       0.000 sec  (  0.0%)
Grid generation             ....       0.137 sec  (  3.1%)


-------------------------------------------------------------------------------
                          DFT DISPERSION CORRECTION                            
                                                                               
                              DFTD3 V3.1  Rev 1                                
                              USING zero damping                               
-------------------------------------------------------------------------------
The omegaB97X-D3 functional is recognized. Fit by Chai et al.
Active option DFTDOPT                   ...         3   

molecular C6(AA) [au] = 163.082260 


            DFT-D V3
 parameters
 s6 scaling factor         :     1.0000 
 rs6 scaling factor        :     1.2810 
 s8 scaling factor         :     1.0000 
 rs8 scaling factor        :     1.0940 
 Damping factor alpha6     :    14.0000 
 Damping factor alpha8     :    16.0000 
 ad hoc parameters k1-k3   :    16.0000     1.3333    -4.0000 

 Edisp/kcal,au: -0.120993349132  -0.000192815155 
 E6   /kcal   :  -0.019843882 
 E8   /kcal   :  -0.101149467 
 % E8         :  83.599196218 

-------------------------   ----------------
Dispersion correction           -0.000192815
-------------------------   ----------------


-------------------------   --------------------
FINAL SINGLE POINT ENERGY       -56.287780558787
-------------------------   --------------------


                            ***************************************
                            *     ORCA property calculations      *
                            ***************************************

                                    ---------------------
                                    Active property flags
                                    ---------------------
   (+) Dipole Moment


------------------------------------------------------------------------------
                       ORCA ELECTRIC PROPERTIES CALCULATION
------------------------------------------------------------------------------

Dipole Moment Calculation                       ... on
Quadrupole Moment Calculation                   ... off
Polarizability Calculation                      ... off
GBWName                                         ... Scan_12.gbw
Electron density file                           ... Scan_12.scfp.tmp

-------------
DIPOLE MOMENT
-------------
                                X             Y             Z
Electronic contribution:     -0.38859      -1.08446       0.16391
Nuclear contribution   :      0.61486       1.71925      -0.26213
                        -----------------------------------------
Total Dipole Moment    :      0.22627       0.63479      -0.09822
                        -----------------------------------------
Magnitude (a.u.)       :      0.68103
Magnitude (Debye)      :      1.73103


Timings for individual modules:

Sum of individual times         ...        4.854 sec (=   0.081 min)
GTO integral calculation        ...        0.435 sec (=   0.007 min)   9.0 %
SCF iterations                  ...        4.418 sec (=   0.074 min)  91.0 %
                             ****ORCA TERMINATED NORMALLY****
TOTAL RUN TIME: 0 days 0 hours 0 minutes 5 seconds 276 msec
