
                                 *****************
                                 * O   R   C   A *
                                 *****************

           --- An Ab Initio, DFT and Semiempirical electronic structure package ---

                  #######################################################
                  #                        -***-                        #
                  #  Department of molecular theory and spectroscopy    #
                  #              Directorship: Frank Neese              #
                  # Max Planck Institute for Chemical Energy Conversion #
                  #                  D-45470 Muelheim/Ruhr              #
                  #                       Germany                       #
                  #                                                     #
                  #                  All rights reserved                #
                  #                        -***-                        #
                  #######################################################


                         Program Version 4.0.0.2 - RELEASE -


 With contributions from (in alphabetic order):
   Daniel Aravena         : Magnetic Properties
   Michael Atanasov       : Ab Initio Ligand Field Theory
   Ute Becker             : Parallelization
   Martin Brehm           : Molecular dynamics
   Dmytro Bykov           : SCF Hessian
   Vijay G. Chilkuri      : MRCI spin determinant printing
   Dipayan Datta          : RHF DLPNO-CCSD density
   Achintya Kumar Dutta   : EOM-CC, STEOM-CC
   Dmitry Ganyushin       : Spin-Orbit,Spin-Spin,Magnetic field MRCI
   Yang Guo               : DLPNO-NEVPT2, CIM, IAO-localization
   Andreas Hansen         : Spin unrestricted coupled pair/coupled cluster methods
   Lee Huntington         : MR-EOM, pCC
   Robert Izsak           : Overlap fitted RIJCOSX, COSX-SCS-MP3, EOM
   Christian Kollmar      : KDIIS, OOCD, Brueckner-CCSD(T), CCSD density
   Simone Kossmann        : Meta GGA functionals, TD-DFT gradient, OOMP2, MP2 Hessian
   Martin Krupicka        : AUTO-CI
   Dagmar Lenk            : GEPOL surface
   Dimitrios Liakos       : Extrapolation schemes; parallel MDCI
   Dimitrios Manganas     : ROCIS; embedding schemes
   Dimitrios Pantazis     : SARC Basis sets
   Taras Petrenko         : DFT Hessian,TD-DFT gradient, ASA, ECA, R-Raman, ABS, FL, XAS/XES, NRVS
   Peter Pinski           : DLPNO-MP2
   Christoph Reimann      : Effective Core Potentials
   Marius Retegan         : Local ZFS, SOC
   Christoph Riplinger    : Optimizer, TS searches, QM/MM, DLPNO-CCSD(T), (RO)-DLPNO pert. Triples
   Tobias Risthaus        : Range-separated hybrids, TD-DFT gradient, RPA, STAB
   Michael Roemelt        : Restricted open shell CIS
   Masaaki Saitow         : Open-shell DLPNO
   Barbara Sandhoefer     : DKH picture change effects
   Kantharuban Sivalingam : CASSCF convergence, NEVPT2, FIC-MRCI
   Georgi Stoychev        : AutoAux
   Boris Wezisla          : Elementary symmetry handling
   Frank Wennmohs         : Technical directorship


 We gratefully acknowledge several colleagues who have allowed us to
 interface, adapt or use parts of their codes:
   Stefan Grimme, W. Hujo, H. Kruse,             : VdW corrections, initial TS optimization,
                  C. Bannwarth                     DFT functionals, gCP, sTDA/sTD-DF
   Ed Valeev                                     : LibInt (2-el integral package), F12 methods
   Garnet Chan, S. Sharma, J. Yang, R. Olivares  : DMRG
   Ulf Ekstrom                                   : XCFun DFT Library
   Mihaly Kallay                                 : mrcc  (arbitrary order and MRCC methods)
   Jiri Pittner, Ondrej Demel                    : Mk-CCSD
   Frank Weinhold                                : gennbo (NPA and NBO analysis)
   Christopher J. Cramer and Donald G. Truhlar   : smd solvation model


 Your calculation uses the libint2 library for the computation of 2-el integrals
 For citations please refer to: http://libint.valeyev.net

 This ORCA versions uses:
   CBLAS   interface :  Fast vector & matrix operations
   LAPACKE interface :  Fast linear algebra routines
   SCALAPACK package :  Parallel linear algebra routines


Your calculation utilizes the atom-pairwise dispersion correction
with the zero-damping scheme (D30)
Cite in your paper:
S.Grimme, J.Antony, S.Ehrlich and H.Krieg, J.Chem.Phys., 132, (2010), 154104 
   

XCFun DFT library Copyright 2009-2010 Ulf Ekstrom and contributors.
See http://admol.org/xcfun for more information. This is free soft-
ware; see the source code for copying conditions. There is ABSOLUTELY
NO WARRANTY; not even for MERCHANTABILITY or FITNESS FOR A PARTICULAR
PURPOSE. For details see the documentation. Scientific users of this 
library should cite U. Ekstrom, L. Visscher, R. Bast, A. J. Thorvald-
sen and K. Ruud; J.Chem.Theor.Comp. 2010, DOI: 10.1021/ct100117s
XCFun Version 0.99 
Your calculation utilizes the basis: 6-31G(d)
   H-He, Li-Ne : W. J. Hehre, R. Ditchfield and J.A. Pople, J. Chem. Phys. 56, 2257 (1972).
                 Note: He and Ne are unpublished basis sets taken from the Gaussian program.
                 Note: Li and B from J. D. Dill and J. A. Pople, J. Chem. Phys. 62, 2921 (1975).
   Na - Ar     : M. M. Francl, W. J. Pietro, W. J. Hehre, J. S. Binkley, M. S. Gordon, 
                 D. J. DeFrees and J. A. Pople, J. Chem. Phys. 77, 3654 (1982).
   K - Zn      : V. A. Rassolov, J. A. Pople, M. A. Ratner, and T. L. Windus, J. Chem. Phys. 109, 1223 (1998).

================================================================================
                                        WARNINGS
                       Please study these warnings very carefully!
================================================================================

Warning: TCutStore was < 0. Adjusted to Thresh (uncritical)

INFO   : the flag for use of LIBINT has been found!

================================================================================
                                       INPUT FILE
================================================================================
NAME = initial13.inp
|  1> ! WB97X-D3 6-31G(d) VerySlowConv
|  2> ! KDIIS NOSOSCF
|  3> %base "Scan_13"
|  4> 
|  5> %scf
|  6> maxiter 999
|  7> end
|  8> 
|  9> * xyz 0 1
| 10> N         -0.166581458744    0.689166073453    0.056291463138
| 11> H          1.438538809448    1.038493031835    0.003032739152
| 12> H         -0.535051528773    1.546115760999   -1.296906210118
| 13> H         -0.535055821932    1.910445133713    1.092622007828
| 14> **                         ****END OF INPUT****
================================================================================

                       ****************************
                       * Single Point Calculation *
                       ****************************

---------------------------------
CARTESIAN COORDINATES (ANGSTROEM)
---------------------------------
  N     -0.166581    0.689166    0.056291
  H      1.438539    1.038493    0.003033
  H     -0.535052    1.546116   -1.296906
  H     -0.535056    1.910445    1.092622

----------------------------
CARTESIAN COORDINATES (A.U.)
----------------------------
  NO LB      ZA    FRAG     MASS         X           Y           Z
   0 N     7.0000    0    14.007   -0.314793    1.302335    0.106375
   1 H     1.0000    0     1.008    2.718444    1.962467    0.005731
   2 H     1.0000    0     1.008   -1.011101    2.921735   -2.450798
   3 H     1.0000    0     1.008   -1.011109    3.610218    2.064756

--------------------------------
INTERNAL COORDINATES (ANGSTROEM)
--------------------------------
 N      0   0   0     0.000000000000     0.00000000     0.00000000
 H      1   0   0     1.643556172114     0.00000000     0.00000000
 H      1   2   0     1.643556175614    94.67180099     0.00000000
 H      1   2   3     1.643556174037    94.67180191   264.91290268

---------------------------
INTERNAL COORDINATES (A.U.)
---------------------------
 N      0   0   0     0.000000000000     0.00000000     0.00000000
 H      1   0   0     3.105871051011     0.00000000     0.00000000
 H      1   2   0     3.105871057625    94.67180099     0.00000000
 H      1   2   3     3.105871054645    94.67180191   264.91290268

---------------------
BASIS SET INFORMATION
---------------------
There are 2 groups of distinct atoms

 Group   1 Type N   : 10s4p1d contracted to 3s2p1d pattern {631/31/1}
 Group   2 Type H   : 4s contracted to 2s pattern {31}

Atom   0N    basis set group =>   1
Atom   1H    basis set group =>   2
Atom   2H    basis set group =>   2
Atom   3H    basis set group =>   2
------------------------------------------------------------------------------
                           ORCA GTO INTEGRAL CALCULATION
------------------------------------------------------------------------------

                         BASIS SET STATISTICS AND STARTUP INFO

 # of primitive gaussian shells          ...   27
 # of primitive gaussian functions       ...   39
 # of contracted shells                  ...   12
 # of contracted basis functions         ...   20
 Highest angular momentum                ...    2
 Maximum contraction depth               ...    6
 Integral package used                   ... LIBINT
 Integral threshhold            Thresh   ...  1.000e-10
 Primitive cut-off              TCut     ...  1.000e-11


------------------------------ INTEGRAL EVALUATION ----------------------------


 * One electron integrals 
 Pre-screening matrix                    ... done
 Shell pair data                         ... done (   0.000 sec)

-------------------------------------------------------------------------------
                                 ORCA SCF
-------------------------------------------------------------------------------

------------
SCF SETTINGS
------------
Hamiltonian:
 Density Functional     Method          .... DFT(GTOs)
 Exchange Functional    Exchange        .... WB97X-D3
 Correlation Functional Correlation     .... WB97X-D3
 Gradients option       PostSCFGGA      .... off
 Hybrid DFT is turned on
   Fraction HF Exchange ScalHFX         ....  0.195728
   Scaling of DF-GGA-X  ScalDFX         ....  0.000000
   Scaling of DF-GGA-C  ScalDFC         ....  1.000000
   Scaling of DF-LDA-C  ScalLDAC        ....  1.000000
   Perturbative correction              ....  0.000000
 Long-range corrected/Screened/Range-Separated Hybrid DFT is turned on
   Amount of maximum screened exact exchange              ....  0.804272
   Range separation parameter mu (erf(mu*r12)/r12)        ....  0.250000


General Settings:
 Integral files         IntName         .... Scan_13
 Hartree-Fock type      HFTyp           .... RHF
 Total Charge           Charge          ....    0
 Multiplicity           Mult            ....    1
 Number of Electrons    NEL             ....   10
 Basis Dimension        Dim             ....   20
 Nuclear Repulsion      ENuc            ....      7.4181683779 Eh

Convergence Acceleration:
 DIIS                   CNVDIIS         .... on
   Start iteration      DIISMaxIt       ....     0
   Startup error        DIISStart       ....  0.200000
   # of expansion vecs  DIISMaxEq       ....     5
   Bias factor          DIISBfac        ....   1.050
   Max. coefficient     DIISMaxC        ....  10.000
 Newton-Raphson         CNVNR           .... off
 SOSCF                  CNVSOSCF        .... off
 Level Shifting         CNVShift        .... off
 Zerner damping         CNVZerner       .... off
 Static damping         CNVDamp         .... off
 Fernandez-Rico         CNVRico         .... off

SCF Procedure:
 Maximum # iterations   MaxIter         ....   999
 SCF integral mode      SCFMode         .... Direct
   Integral package                     .... LIBINT
 Reset frequeny         DirectResetFreq ....    20
 Integral Threshold     Thresh          ....  1.000e-10 Eh
 Primitive CutOff       TCut            ....  1.000e-11 Eh

Convergence Tolerance:
 Convergence Check Mode ConvCheckMode   .... All-Criteria
 Convergence forced     ConvForced      .... 0
 Energy Change          TolE            ....  1.000e-06 Eh
 Max Density Change     TolMaxP         ....  1.000e-05
 RMS Density Change     TolRMSP         ....  1.000e-06
 DIIS Error             TolErr          ....  1.000e-06


Diagonalization of the overlap matrix:
Smallest eigenvalue                        ... 1.166e-01
Time for diagonalization                   ...    0.000 sec
Threshold for overlap eigenvalues          ... 1.000e-08
Number of eigenvalues below threshold      ... 0
Time for construction of square roots      ...    0.004 sec
Total time needed                          ...    0.005 sec

-------------------
DFT GRID GENERATION
-------------------

General Integration Accuracy     IntAcc      ...  4.340
Radial Grid Type                 RadialGrid  ... Gauss-Chebyshev
Angular Grid (max. acc.)         AngularGrid ... Lebedev-110
Angular grid pruning method      GridPruning ... 3 (G Style)
Weight generation scheme         WeightScheme... Becke
Basis function cutoff            BFCut       ...    1.0000e-10
Integration weight cutoff        WCut        ...    1.0000e-14
Grids for H and He will be reduced by one unit

# of grid points (after initial pruning)     ...   4084 (   0.0 sec)
# of grid points (after weights+screening)   ...   4058 (   0.0 sec)
nearest neighbour list constructed           ...    0.0 sec
Grid point re-assignment to atoms done       ...    0.0 sec
Grid point division into batches done        ...    0.0 sec
Reduced shell lists constructed in    0.0 sec

Total number of grid points                  ...     4058
Total number of batches                      ...       65
Average number of points per batch           ...       62
Average number of grid points per atom       ...     1014
Average number of shells per batch           ...    11.02 (91.79%)
Average number of basis functions per batch  ...    18.62 (93.11%)
Average number of large shells per batch     ...    10.06 (91.33%)
Average number of large basis fcns per batch ...    17.12 (91.94%)
Maximum spatial batch extension              ...  18.59, 21.59, 21.59 au
Average spatial batch extension              ...   5.19,  5.67,  4.62 au

Time for grid setup =    0.022 sec

------------------------------
INITIAL GUESS: MODEL POTENTIAL
------------------------------
Loading Hartree-Fock densities                     ... done
Calculating cut-offs                               ... done
Setting up the integral package                    ... done
Initializing the effective Hamiltonian             ... done
Starting the Coulomb interaction                   ... done (   0.0 sec)
Reading the grid                                   ... done
Mapping shells                                     ... done
Starting the XC term evaluation                    ... done (   0.0 sec)
  promolecular density results
     # of electrons  =      9.998476555
     EX              =     -7.185739238
     EC              =     -0.271089395
     EX+EC           =     -7.456828634
Transforming the Hamiltonian                       ... done (   0.0 sec)
Diagonalizing the Hamiltonian                      ... done (   0.0 sec)
Back transforming the eigenvectors                 ... done (   0.0 sec)
Now organizing SCF variables                       ... done
                      ------------------
                      INITIAL GUESS DONE (   0.1 sec)
                      ------------------
--------------
SCF ITERATIONS
--------------
ITER       Energy         Delta-E        Max-DP      RMS-DP      [F,P]   Gradient Norm
               ***  Starting incremental Fock matrix formation  ***
                             ****Resetting KDIIS****
                             ****Turning on KDIIS(Cayley)****
  0    -56.1677875832   0.000000000000 0.02993246  0.00347291  0.1086939   0.102110066
  1    -56.1945065444  -0.026718961167 0.04736227  0.00736452  0.0811878   0.074023371
  2    -56.2194041663  -0.024897621917 0.02247462  0.00315162  0.0391595   0.041223366
  3    -56.2255484962  -0.006144329895 0.02776789  0.00357201  0.0181818   0.022918547
  4    -56.2274576660  -0.001909169810 0.01087883  0.00177901  0.0083320   0.006596596
  5    -56.2279904375  -0.000532771486 0.00510574  0.00079153  0.0036647   0.002686480
  6    -56.2280696191  -0.000079181645 0.00215898  0.00022110  0.0010021   0.000799877
  7    -56.2280765735  -0.000006954411 0.00045875  0.00004993  0.0001131   0.000106303
                          ***Energy convergence achieved***
  8    -56.2280767728  -0.000000199297 0.00002539  0.00000285  0.0000104   0.000010929
                           ***RMSP convergence achieved***
                           ***MAXP convergence achieved***
                    *** KDIIS BlockDiag ( 0.000 sec) ***

               *****************************************************
               *                     SUCCESS                       *
               *           SCF CONVERGED AFTER   9 CYCLES          *
               *****************************************************

Setting up the final grid:

General Integration Accuracy     IntAcc      ...  4.670
Radial Grid Type                 RadialGrid  ... Gauss-Chebyshev
Angular Grid (max. acc.)         AngularGrid ... Lebedev-302
Angular grid pruning method      GridPruning ... 3 (G Style)
Weight generation scheme         WeightScheme... Becke
Basis function cutoff            BFCut       ...    1.0000e-10
Integration weight cutoff        WCut        ...    1.0000e-14
Grids for H and He will be reduced by one unit

# of grid points (after initial pruning)     ...  16394 (   0.0 sec)
# of grid points (after weights+screening)   ...  16237 (   0.0 sec)
nearest neighbour list constructed           ...    0.0 sec
Grid point re-assignment to atoms done       ...    0.0 sec
Grid point division into batches done        ...    0.0 sec
Reduced shell lists constructed in    0.1 sec

Total number of grid points                  ...    16237
Total number of batches                      ...      256
Average number of points per batch           ...       63
Average number of grid points per atom       ...     4059
Average number of shells per batch           ...    10.02 (83.53%)
Average number of basis functions per batch  ...    16.94 (84.71%)
Average number of large shells per batch     ...     9.02 (90.02%)
Average number of large basis fcns per batch ...    15.52 (91.62%)
Maximum spatial batch extension              ...  14.40, 16.88, 15.43 au
Average spatial batch extension              ...   3.24,  3.33,  3.03 au

Final grid set up in    0.1 sec
Final integration                            ... done (   0.1 sec)
Change in XC energy                          ...    -0.000173270
Integrated number of electrons               ...    10.000003153
Previous integrated no of electrons          ...     9.998557739

----------------
TOTAL SCF ENERGY
----------------

Total Energy       :          -56.22825004 Eh           -1530.04847 eV

Components:
Nuclear Repulsion  :            7.41816838 Eh             201.85862 eV
Electronic Energy  :          -63.64641842 Eh           -1731.90709 eV
One Electron Energy:          -90.60164536 Eh           -2465.39611 eV
Two Electron Energy:           26.95522694 Eh             733.48901 eV

Virial components:
Potential Energy   :         -111.20152782 Eh           -3025.94741 eV
Kinetic Energy     :           54.97327778 Eh            1495.89894 eV
Virial Ratio       :            2.02282877


DFT components:
N(Alpha)           :        5.000001576738 electrons
N(Beta)            :        5.000001576738 electrons
N(Total)           :       10.000003153476 electrons
E(XC)              :       -5.066421632167 Eh       

---------------
SCF CONVERGENCE
---------------

  Last Energy change         ...   -8.6306e-10  Tolerance :   1.0000e-06
  Last MAX-Density change    ...    5.6044e-06  Tolerance :   1.0000e-05
  Last RMS-Density change    ...    5.2267e-07  Tolerance :   1.0000e-06
  Last DIIS Error            ...    1.2946e-06  Tolerance :   1.0000e-06

             **** THE GBW FILE WAS UPDATED (Scan_13.gbw) ****
             **** DENSITY FILE WAS UPDATED (Scan_13.scfp.tmp) ****
             **** ENERGY FILE WAS UPDATED (Scan_13.en.tmp) ****
----------------
ORBITAL ENERGIES
----------------

  NO   OCC          E(Eh)            E(eV) 
   0   2.0000     -14.560428      -396.2094 
   1   2.0000      -0.846640       -23.0383 
   2   2.0000      -0.426991       -11.6190 
   3   2.0000      -0.426920       -11.6171 
   4   2.0000      -0.394388       -10.7318 
   5   0.0000       0.003241         0.0882 
   6   0.0000       0.038163         1.0385 
   7   0.0000       0.038296         1.0421 
   8   0.0000       0.735042        20.0015 
   9   0.0000       0.837193        22.7812 
  10   0.0000       0.837345        22.7853 
  11   0.0000       0.870727        23.6937 
  12   0.0000       0.933632        25.4054 
  13   0.0000       0.933768        25.4091 
  14   0.0000       1.157927        31.5088 
  15   0.0000       1.819609        49.5141 
  16   0.0000       1.820600        49.5411 
  17   0.0000       1.826108        49.6909 
  18   0.0000       1.886476        51.3336 
  19   0.0000       1.886644        51.3382 

                    ********************************
                    * MULLIKEN POPULATION ANALYSIS *
                    ********************************

-----------------------
MULLIKEN ATOMIC CHARGES
-----------------------
   0 N :   -0.372482
   1 H :    0.124094
   2 H :    0.124080
   3 H :    0.124308
Sum of atomic charges:   -0.0000000

--------------------------------
MULLIKEN REDUCED ORBITAL CHARGES
--------------------------------
  0 N s       :     3.962249  s :     3.962249
      pz      :     1.104154  p :     3.399820
      px      :     1.112398
      py      :     1.183268
      dz2     :     0.001300  d :     0.010412
      dxz     :     0.000157
      dyz     :     0.004597
      dx2y2   :     0.002999
      dxy     :     0.001359
  1 H s       :     0.875906  s :     0.875906
  2 H s       :     0.875920  s :     0.875920
  3 H s       :     0.875692  s :     0.875692


                     *******************************
                     * LOEWDIN POPULATION ANALYSIS *
                     *******************************

----------------------
LOEWDIN ATOMIC CHARGES
----------------------
   0 N :   -0.386983
   1 H :    0.128976
   2 H :    0.128893
   3 H :    0.129114

-------------------------------
LOEWDIN REDUCED ORBITAL CHARGES
-------------------------------
  0 N s       :     3.876510  s :     3.876510
      pz      :     1.138500  p :     3.497270
      px      :     1.146332
      py      :     1.212439
      dz2     :     0.001837  d :     0.013203
      dxz     :     0.000353
      dyz     :     0.005675
      dx2y2   :     0.003778
      dxy     :     0.001559
  1 H s       :     0.871024  s :     0.871024
  2 H s       :     0.871107  s :     0.871107
  3 H s       :     0.870886  s :     0.870886


                      *****************************
                      * MAYER POPULATION ANALYSIS *
                      *****************************

  NA   - Mulliken gross atomic population
  ZA   - Total nuclear charge
  QA   - Mulliken gross atomic charge
  VA   - Mayer's total valence
  BVA  - Mayer's bonded valence
  FA   - Mayer's free valence

  ATOM       NA         ZA         QA         VA         BVA        FA
  0 N      7.3725     7.0000    -0.3725     2.9221     2.9221    -0.0000
  1 H      0.8759     1.0000     0.1241     0.9731     0.9731    -0.0000
  2 H      0.8759     1.0000     0.1241     0.9731     0.9731    -0.0000
  3 H      0.8757     1.0000     0.1243     0.9730     0.9730     0.0000

  Mayer bond orders larger than 0.1
B(  0-N ,  1-H ) :   0.9740 B(  0-N ,  2-H ) :   0.9741 B(  0-N ,  3-H ) :   0.9740 


-------
TIMINGS
-------

Total SCF time: 0 days 0 hours 0 min 2 sec 

Total time                  ....       2.939 sec
Sum of individual times     ....       2.825 sec  ( 96.1%)

Fock matrix formation       ....       2.574 sec  ( 87.6%)
  XC integration            ....       0.559 sec  ( 21.7% of F)
    Basis function eval.    ....       0.154 sec  ( 27.4% of XC)
    Density eval.           ....       0.023 sec  (  4.0% of XC)
    XC-Functional eval.     ....       0.169 sec  ( 30.2% of XC)
    XC-Potential eval.      ....       0.013 sec  (  2.4% of XC)
Diagonalization             ....       0.004 sec  (  0.1%)
Density matrix formation    ....       0.000 sec  (  0.0%)
Population analysis         ....       0.010 sec  (  0.3%)
Initial guess               ....       0.110 sec  (  3.8%)
Orbital Transformation      ....       0.000 sec  (  0.0%)
Orbital Orthonormalization  ....       0.000 sec  (  0.0%)
DIIS solution               ....       0.000 sec  (  0.0%)
Grid generation             ....       0.126 sec  (  4.3%)


-------------------------------------------------------------------------------
                          DFT DISPERSION CORRECTION                            
                                                                               
                              DFTD3 V3.1  Rev 1                                
                              USING zero damping                               
-------------------------------------------------------------------------------
The omegaB97X-D3 functional is recognized. Fit by Chai et al.
Active option DFTDOPT                   ...         3   

molecular C6(AA) [au] = 169.523534 


            DFT-D V3
 parameters
 s6 scaling factor         :     1.0000 
 rs6 scaling factor        :     1.2810 
 s8 scaling factor         :     1.0000 
 rs8 scaling factor        :     1.0940 
 Damping factor alpha6     :    14.0000 
 Damping factor alpha8     :    16.0000 
 ad hoc parameters k1-k3   :    16.0000     1.3333    -4.0000 

 Edisp/kcal,au: -0.185985355488  -0.000296386498 
 E6   /kcal   :  -0.032995365 
 E8   /kcal   :  -0.152989990 
 % E8         :  82.259159492 

-------------------------   ----------------
Dispersion correction           -0.000296386
-------------------------   ----------------


-------------------------   --------------------
FINAL SINGLE POINT ENERGY       -56.228546430686
-------------------------   --------------------


                            ***************************************
                            *     ORCA property calculations      *
                            ***************************************

                                    ---------------------
                                    Active property flags
                                    ---------------------
   (+) Dipole Moment


------------------------------------------------------------------------------
                       ORCA ELECTRIC PROPERTIES CALCULATION
------------------------------------------------------------------------------

Dipole Moment Calculation                       ... on
Quadrupole Moment Calculation                   ... off
Polarizability Calculation                      ... off
GBWName                                         ... Scan_13.gbw
Electron density file                           ... Scan_13.scfp.tmp

-------------
DIPOLE MOMENT
-------------
                                X             Y             Z
Electronic contribution:     -0.46071      -1.28557       0.19578
Nuclear contribution   :      0.66960       1.87230      -0.28547
                        -----------------------------------------
Total Dipole Moment    :      0.20888       0.58673      -0.08968
                        -----------------------------------------
Magnitude (a.u.)       :      0.62923
Magnitude (Debye)      :      1.59937


Timings for individual modules:

Sum of individual times         ...        3.259 sec (=   0.054 min)
GTO integral calculation        ...        0.298 sec (=   0.005 min)   9.1 %
SCF iterations                  ...        2.962 sec (=   0.049 min)  90.9 %
                             ****ORCA TERMINATED NORMALLY****
TOTAL RUN TIME: 0 days 0 hours 0 minutes 3 seconds 945 msec
