
                                 *****************
                                 * O   R   C   A *
                                 *****************

           --- An Ab Initio, DFT and Semiempirical electronic structure package ---

                  #######################################################
                  #                        -***-                        #
                  #  Department of molecular theory and spectroscopy    #
                  #              Directorship: Frank Neese              #
                  # Max Planck Institute for Chemical Energy Conversion #
                  #                  D-45470 Muelheim/Ruhr              #
                  #                       Germany                       #
                  #                                                     #
                  #                  All rights reserved                #
                  #                        -***-                        #
                  #######################################################


                         Program Version 4.0.0.2 - RELEASE -


 With contributions from (in alphabetic order):
   Daniel Aravena         : Magnetic Properties
   Michael Atanasov       : Ab Initio Ligand Field Theory
   Ute Becker             : Parallelization
   Martin Brehm           : Molecular dynamics
   Dmytro Bykov           : SCF Hessian
   Vijay G. Chilkuri      : MRCI spin determinant printing
   Dipayan Datta          : RHF DLPNO-CCSD density
   Achintya Kumar Dutta   : EOM-CC, STEOM-CC
   Dmitry Ganyushin       : Spin-Orbit,Spin-Spin,Magnetic field MRCI
   Yang Guo               : DLPNO-NEVPT2, CIM, IAO-localization
   Andreas Hansen         : Spin unrestricted coupled pair/coupled cluster methods
   Lee Huntington         : MR-EOM, pCC
   Robert Izsak           : Overlap fitted RIJCOSX, COSX-SCS-MP3, EOM
   Christian Kollmar      : KDIIS, OOCD, Brueckner-CCSD(T), CCSD density
   Simone Kossmann        : Meta GGA functionals, TD-DFT gradient, OOMP2, MP2 Hessian
   Martin Krupicka        : AUTO-CI
   Dagmar Lenk            : GEPOL surface
   Dimitrios Liakos       : Extrapolation schemes; parallel MDCI
   Dimitrios Manganas     : ROCIS; embedding schemes
   Dimitrios Pantazis     : SARC Basis sets
   Taras Petrenko         : DFT Hessian,TD-DFT gradient, ASA, ECA, R-Raman, ABS, FL, XAS/XES, NRVS
   Peter Pinski           : DLPNO-MP2
   Christoph Reimann      : Effective Core Potentials
   Marius Retegan         : Local ZFS, SOC
   Christoph Riplinger    : Optimizer, TS searches, QM/MM, DLPNO-CCSD(T), (RO)-DLPNO pert. Triples
   Tobias Risthaus        : Range-separated hybrids, TD-DFT gradient, RPA, STAB
   Michael Roemelt        : Restricted open shell CIS
   Masaaki Saitow         : Open-shell DLPNO
   Barbara Sandhoefer     : DKH picture change effects
   Kantharuban Sivalingam : CASSCF convergence, NEVPT2, FIC-MRCI
   Georgi Stoychev        : AutoAux
   Boris Wezisla          : Elementary symmetry handling
   Frank Wennmohs         : Technical directorship


 We gratefully acknowledge several colleagues who have allowed us to
 interface, adapt or use parts of their codes:
   Stefan Grimme, W. Hujo, H. Kruse,             : VdW corrections, initial TS optimization,
                  C. Bannwarth                     DFT functionals, gCP, sTDA/sTD-DF
   Ed Valeev                                     : LibInt (2-el integral package), F12 methods
   Garnet Chan, S. Sharma, J. Yang, R. Olivares  : DMRG
   Ulf Ekstrom                                   : XCFun DFT Library
   Mihaly Kallay                                 : mrcc  (arbitrary order and MRCC methods)
   Jiri Pittner, Ondrej Demel                    : Mk-CCSD
   Frank Weinhold                                : gennbo (NPA and NBO analysis)
   Christopher J. Cramer and Donald G. Truhlar   : smd solvation model


 Your calculation uses the libint2 library for the computation of 2-el integrals
 For citations please refer to: http://libint.valeyev.net

 This ORCA versions uses:
   CBLAS   interface :  Fast vector & matrix operations
   LAPACKE interface :  Fast linear algebra routines
   SCALAPACK package :  Parallel linear algebra routines


Your calculation utilizes the atom-pairwise dispersion correction
with the zero-damping scheme (D30)
Cite in your paper:
S.Grimme, J.Antony, S.Ehrlich and H.Krieg, J.Chem.Phys., 132, (2010), 154104 
   

XCFun DFT library Copyright 2009-2010 Ulf Ekstrom and contributors.
See http://admol.org/xcfun for more information. This is free soft-
ware; see the source code for copying conditions. There is ABSOLUTELY
NO WARRANTY; not even for MERCHANTABILITY or FITNESS FOR A PARTICULAR
PURPOSE. For details see the documentation. Scientific users of this 
library should cite U. Ekstrom, L. Visscher, R. Bast, A. J. Thorvald-
sen and K. Ruud; J.Chem.Theor.Comp. 2010, DOI: 10.1021/ct100117s
XCFun Version 0.99 
Your calculation utilizes the basis: 6-31G(d)
   H-He, Li-Ne : W. J. Hehre, R. Ditchfield and J.A. Pople, J. Chem. Phys. 56, 2257 (1972).
                 Note: He and Ne are unpublished basis sets taken from the Gaussian program.
                 Note: Li and B from J. D. Dill and J. A. Pople, J. Chem. Phys. 62, 2921 (1975).
   Na - Ar     : M. M. Francl, W. J. Pietro, W. J. Hehre, J. S. Binkley, M. S. Gordon, 
                 D. J. DeFrees and J. A. Pople, J. Chem. Phys. 77, 3654 (1982).
   K - Zn      : V. A. Rassolov, J. A. Pople, M. A. Ratner, and T. L. Windus, J. Chem. Phys. 109, 1223 (1998).

================================================================================
                                        WARNINGS
                       Please study these warnings very carefully!
================================================================================

Warning: TCutStore was < 0. Adjusted to Thresh (uncritical)

INFO   : the flag for use of LIBINT has been found!

================================================================================
                                       INPUT FILE
================================================================================
NAME = initial14.inp
|  1> ! WB97X-D3 6-31G(d) VerySlowConv
|  2> ! KDIIS NOSOSCF
|  3> %base "Scan_14"
|  4> 
|  5> %scf
|  6> maxiter 999
|  7> end
|  8> 
|  9> * xyz 0 1
| 10> N         -0.184059389158    0.640295030982    0.063742758496
| 11> H          1.524791936487    1.026673402528    0.004835022232
| 12> H         -0.569438995707    1.565325831078   -1.374565900563
| 13> H         -0.569443551622    1.951925735412    1.161028119835
| 14> **                         ****END OF INPUT****
================================================================================

                       ****************************
                       * Single Point Calculation *
                       ****************************

---------------------------------
CARTESIAN COORDINATES (ANGSTROEM)
---------------------------------
  N     -0.184059    0.640295    0.063743
  H      1.524792    1.026673    0.004835
  H     -0.569439    1.565326   -1.374566
  H     -0.569444    1.951926    1.161028

----------------------------
CARTESIAN COORDINATES (A.U.)
----------------------------
  NO LB      ZA    FRAG     MASS         X           Y           Z
   0 N     7.0000    0    14.007   -0.347822    1.209982    0.120456
   1 H     1.0000    0     1.008    2.881439    1.940132    0.009137
   2 H     1.0000    0     1.008   -1.076084    2.958037   -2.597553
   3 H     1.0000    0     1.008   -1.076092    3.688605    2.194025

--------------------------------
INTERNAL COORDINATES (ANGSTROEM)
--------------------------------
 N      0   0   0     0.000000000000     0.00000000     0.00000000
 H      1   0   0     1.752977815190     0.00000000     0.00000000
 H      1   2   0     1.752977815317    94.03850787     0.00000000
 H      1   2   3     1.752977815516    94.03850876   265.65495718

---------------------------
INTERNAL COORDINATES (A.U.)
---------------------------
 N      0   0   0     0.000000000000     0.00000000     0.00000000
 H      1   0   0     3.312647989549     0.00000000     0.00000000
 H      1   2   0     3.312647989789    94.03850787     0.00000000
 H      1   2   3     3.312647990164    94.03850876   265.65495718

---------------------
BASIS SET INFORMATION
---------------------
There are 2 groups of distinct atoms

 Group   1 Type N   : 10s4p1d contracted to 3s2p1d pattern {631/31/1}
 Group   2 Type H   : 4s contracted to 2s pattern {31}

Atom   0N    basis set group =>   1
Atom   1H    basis set group =>   2
Atom   2H    basis set group =>   2
Atom   3H    basis set group =>   2
------------------------------------------------------------------------------
                           ORCA GTO INTEGRAL CALCULATION
------------------------------------------------------------------------------

                         BASIS SET STATISTICS AND STARTUP INFO

 # of primitive gaussian shells          ...   27
 # of primitive gaussian functions       ...   39
 # of contracted shells                  ...   12
 # of contracted basis functions         ...   20
 Highest angular momentum                ...    2
 Maximum contraction depth               ...    6
 Integral package used                   ... LIBINT
 Integral threshhold            Thresh   ...  1.000e-10
 Primitive cut-off              TCut     ...  1.000e-11


------------------------------ INTEGRAL EVALUATION ----------------------------


 * One electron integrals 
 Pre-screening matrix                    ... done
 Shell pair data                         ... done (   0.000 sec)

-------------------------------------------------------------------------------
                                 ORCA SCF
-------------------------------------------------------------------------------

------------
SCF SETTINGS
------------
Hamiltonian:
 Density Functional     Method          .... DFT(GTOs)
 Exchange Functional    Exchange        .... WB97X-D3
 Correlation Functional Correlation     .... WB97X-D3
 Gradients option       PostSCFGGA      .... off
 Hybrid DFT is turned on
   Fraction HF Exchange ScalHFX         ....  0.195728
   Scaling of DF-GGA-X  ScalDFX         ....  0.000000
   Scaling of DF-GGA-C  ScalDFC         ....  1.000000
   Scaling of DF-LDA-C  ScalLDAC        ....  1.000000
   Perturbative correction              ....  0.000000
 Long-range corrected/Screened/Range-Separated Hybrid DFT is turned on
   Amount of maximum screened exact exchange              ....  0.804272
   Range separation parameter mu (erf(mu*r12)/r12)        ....  0.250000


General Settings:
 Integral files         IntName         .... Scan_14
 Hartree-Fock type      HFTyp           .... RHF
 Total Charge           Charge          ....    0
 Multiplicity           Mult            ....    1
 Number of Electrons    NEL             ....   10
 Basis Dimension        Dim             ....   20
 Nuclear Repulsion      ENuc            ....      6.9582849924 Eh

Convergence Acceleration:
 DIIS                   CNVDIIS         .... on
   Start iteration      DIISMaxIt       ....     0
   Startup error        DIISStart       ....  0.200000
   # of expansion vecs  DIISMaxEq       ....     5
   Bias factor          DIISBfac        ....   1.050
   Max. coefficient     DIISMaxC        ....  10.000
 Newton-Raphson         CNVNR           .... off
 SOSCF                  CNVSOSCF        .... off
 Level Shifting         CNVShift        .... off
 Zerner damping         CNVZerner       .... off
 Static damping         CNVDamp         .... off
 Fernandez-Rico         CNVRico         .... off

SCF Procedure:
 Maximum # iterations   MaxIter         ....   999
 SCF integral mode      SCFMode         .... Direct
   Integral package                     .... LIBINT
 Reset frequeny         DirectResetFreq ....    20
 Integral Threshold     Thresh          ....  1.000e-10 Eh
 Primitive CutOff       TCut            ....  1.000e-11 Eh

Convergence Tolerance:
 Convergence Check Mode ConvCheckMode   .... All-Criteria
 Convergence forced     ConvForced      .... 0
 Energy Change          TolE            ....  1.000e-06 Eh
 Max Density Change     TolMaxP         ....  1.000e-05
 RMS Density Change     TolRMSP         ....  1.000e-06
 DIIS Error             TolErr          ....  1.000e-06


Diagonalization of the overlap matrix:
Smallest eigenvalue                        ... 1.286e-01
Time for diagonalization                   ...    0.000 sec
Threshold for overlap eigenvalues          ... 1.000e-08
Number of eigenvalues below threshold      ... 0
Time for construction of square roots      ...    0.007 sec
Total time needed                          ...    0.007 sec

-------------------
DFT GRID GENERATION
-------------------

General Integration Accuracy     IntAcc      ...  4.340
Radial Grid Type                 RadialGrid  ... Gauss-Chebyshev
Angular Grid (max. acc.)         AngularGrid ... Lebedev-110
Angular grid pruning method      GridPruning ... 3 (G Style)
Weight generation scheme         WeightScheme... Becke
Basis function cutoff            BFCut       ...    1.0000e-10
Integration weight cutoff        WCut        ...    1.0000e-14
Grids for H and He will be reduced by one unit

# of grid points (after initial pruning)     ...   4084 (   0.0 sec)
# of grid points (after weights+screening)   ...   4060 (   0.0 sec)
nearest neighbour list constructed           ...    0.0 sec
Grid point re-assignment to atoms done       ...    0.0 sec
Grid point division into batches done        ...    0.0 sec
Reduced shell lists constructed in    0.0 sec

Total number of grid points                  ...     4060
Total number of batches                      ...       65
Average number of points per batch           ...       62
Average number of grid points per atom       ...     1015
Average number of shells per batch           ...    10.95 (91.29%)
Average number of basis functions per batch  ...    18.56 (92.80%)
Average number of large shells per batch     ...     9.83 (89.76%)
Average number of large basis fcns per batch ...    16.89 (91.02%)
Maximum spatial batch extension              ...  18.56, 21.03, 21.59 au
Average spatial batch extension              ...   5.23,  5.66,  4.58 au

Time for grid setup =    0.023 sec

------------------------------
INITIAL GUESS: MODEL POTENTIAL
------------------------------
Loading Hartree-Fock densities                     ... done
Calculating cut-offs                               ... done
Setting up the integral package                    ... done
Initializing the effective Hamiltonian             ... done
Starting the Coulomb interaction                   ... done (   0.0 sec)
Reading the grid                                   ... done
Mapping shells                                     ... done
Starting the XC term evaluation                    ... done (   0.0 sec)
  promolecular density results
     # of electrons  =      9.998452846
     EX              =     -7.169455034
     EC              =     -0.266392103
     EX+EC           =     -7.435847137
Transforming the Hamiltonian                       ... done (   0.0 sec)
Diagonalizing the Hamiltonian                      ... done (   0.0 sec)
Back transforming the eigenvectors                 ... done (   0.0 sec)
Now organizing SCF variables                       ... done
                      ------------------
                      INITIAL GUESS DONE (   0.1 sec)
                      ------------------
--------------
SCF ITERATIONS
--------------
ITER       Energy         Delta-E        Max-DP      RMS-DP      [F,P]   Gradient Norm
               ***  Starting incremental Fock matrix formation  ***
                             ****Resetting KDIIS****
                             ****Turning on KDIIS(Cayley)****
  0    -56.1084753161   0.000000000000 0.02931550  0.00356448  0.1041494   0.102210451
  1    -56.1368102893  -0.028334973186 0.04699788  0.00734661  0.0767533   0.072906557
  2    -56.1653898678  -0.028579578526 0.01470380  0.00205009  0.0276642   0.029620995
  3    -56.1686893241  -0.003299456361 0.02689916  0.00357847  0.0157964   0.017878527
  4    -56.1703310980  -0.001641773901 0.00234410  0.00045166  0.0046414   0.003771254
  5    -56.1704216719  -0.000090573847 0.00743386  0.00138148  0.0044206   0.003383013
  6    -56.1706089511  -0.000187279191 0.00071146  0.00010067  0.0002591   0.000252782
  7    -56.1706099914  -0.000001040290 0.00004865  0.00000988  0.0000298   0.000028230
                          ***Energy convergence achieved***
  8    -56.1706100045  -0.000000013082 0.00002666  0.00000358  0.0000116   0.000007314
                           ***MAXP convergence achieved***

            ***Energy convergence in two consecutive cycles with***
                    ***'reasonable' density convergence***
                       *** signaling convergence ***

                    *** KDIIS BlockDiag ( 0.000 sec) ***

               *****************************************************
               *                     SUCCESS                       *
               *           SCF CONVERGED AFTER   9 CYCLES          *
               *****************************************************

Setting up the final grid:

General Integration Accuracy     IntAcc      ...  4.670
Radial Grid Type                 RadialGrid  ... Gauss-Chebyshev
Angular Grid (max. acc.)         AngularGrid ... Lebedev-302
Angular grid pruning method      GridPruning ... 3 (G Style)
Weight generation scheme         WeightScheme... Becke
Basis function cutoff            BFCut       ...    1.0000e-10
Integration weight cutoff        WCut        ...    1.0000e-14
Grids for H and He will be reduced by one unit

# of grid points (after initial pruning)     ...  16394 (   0.0 sec)
# of grid points (after weights+screening)   ...  16254 (   0.0 sec)
nearest neighbour list constructed           ...    0.0 sec
Grid point re-assignment to atoms done       ...    0.0 sec
Grid point division into batches done        ...    0.0 sec
Reduced shell lists constructed in    0.1 sec

Total number of grid points                  ...    16254
Total number of batches                      ...      256
Average number of points per batch           ...       63
Average number of grid points per atom       ...     4064
Average number of shells per batch           ...     9.93 (82.75%)
Average number of basis functions per batch  ...    16.77 (83.85%)
Average number of large shells per batch     ...     8.82 (88.83%)
Average number of large basis fcns per batch ...    15.24 (90.88%)
Maximum spatial batch extension              ...  14.69, 16.88, 15.43 au
Average spatial batch extension              ...   3.25,  3.38,  3.02 au

Final grid set up in    0.1 sec
Final integration                            ... done (   0.1 sec)
Change in XC energy                          ...    -0.000168228
Integrated number of electrons               ...    10.000011563
Previous integrated no of electrons          ...     9.998899261

----------------
TOTAL SCF ENERGY
----------------

Total Energy       :          -56.17077823 Eh           -1528.48458 eV

Components:
Nuclear Repulsion  :            6.95828499 Eh             189.34456 eV
Electronic Energy  :          -63.12906323 Eh           -1717.82914 eV
One Electron Energy:          -89.62335582 Eh           -2438.77550 eV
Two Electron Energy:           26.49429259 Eh             720.94635 eV

Virial components:
Potential Energy   :         -111.09009055 Eh           -3022.91505 eV
Kinetic Energy     :           54.91931232 Eh            1494.43046 eV
Virial Ratio       :            2.02278736


DFT components:
N(Alpha)           :        5.000005781707 electrons
N(Beta)            :        5.000005781707 electrons
N(Total)           :       10.000011563414 electrons
E(XC)              :       -5.033598499901 Eh       

---------------
SCF CONVERGENCE
---------------

  Last Energy change         ...   -1.3450e-09  Tolerance :   1.0000e-06
  Last MAX-Density change    ...    9.8616e-06  Tolerance :   1.0000e-05
  Last RMS-Density change    ...    1.5376e-06  Tolerance :   1.0000e-06
  Last DIIS Error            ...    3.1407e-06  Tolerance :   1.0000e-06

             **** THE GBW FILE WAS UPDATED (Scan_14.gbw) ****
             **** DENSITY FILE WAS UPDATED (Scan_14.scfp.tmp) ****
             **** ENERGY FILE WAS UPDATED (Scan_14.en.tmp) ****
----------------
ORBITAL ENERGIES
----------------

  NO   OCC          E(Eh)            E(eV) 
   0   2.0000     -14.573239      -396.5580 
   1   2.0000      -0.841544       -22.8996 
   2   2.0000      -0.414771       -11.2865 
   3   2.0000      -0.414708       -11.2848 
   4   2.0000      -0.393065       -10.6958 
   5   0.0000      -0.018033        -0.4907 
   6   0.0000       0.010182         0.2771 
   7   0.0000       0.010308         0.2805 
   8   0.0000       0.740868        20.1600 
   9   0.0000       0.836076        22.7508 
  10   0.0000       0.836438        22.7606 
  11   0.0000       0.872128        23.7318 
  12   0.0000       0.940496        25.5922 
  13   0.0000       0.940825        25.6011 
  14   0.0000       1.095745        29.8167 
  15   0.0000       1.819205        49.5031 
  16   0.0000       1.819828        49.5200 
  17   0.0000       1.822790        49.6006 
  18   0.0000       1.857735        50.5515 
  19   0.0000       1.857934        50.5569 

                    ********************************
                    * MULLIKEN POPULATION ANALYSIS *
                    ********************************

-----------------------
MULLIKEN ATOMIC CHARGES
-----------------------
   0 N :   -0.301650
   1 H :    0.100701
   2 H :    0.100284
   3 H :    0.100665
Sum of atomic charges:   -0.0000000

--------------------------------
MULLIKEN REDUCED ORBITAL CHARGES
--------------------------------
  0 N s       :     3.969559  s :     3.969559
      pz      :     1.096785  p :     3.324510
      px      :     1.100467
      py      :     1.127258
      dz2     :     0.000954  d :     0.007581
      dxz     :     0.000122
      dyz     :     0.003344
      dx2y2   :     0.002180
      dxy     :     0.000981
  1 H s       :     0.899299  s :     0.899299
  2 H s       :     0.899716  s :     0.899716
  3 H s       :     0.899335  s :     0.899335


                     *******************************
                     * LOEWDIN POPULATION ANALYSIS *
                     *******************************

----------------------
LOEWDIN ATOMIC CHARGES
----------------------
   0 N :   -0.333099
   1 H :    0.111160
   2 H :    0.110826
   3 H :    0.111113

-------------------------------
LOEWDIN REDUCED ORBITAL CHARGES
-------------------------------
  0 N s       :     3.909329  s :     3.909329
      pz      :     1.127862  p :     3.414032
      px      :     1.131224
      py      :     1.154946
      dz2     :     0.001355  d :     0.009739
      dxz     :     0.000261
      dyz     :     0.004192
      dx2y2   :     0.002785
      dxy     :     0.001146
  1 H s       :     0.888840  s :     0.888840
  2 H s       :     0.889174  s :     0.889174
  3 H s       :     0.888887  s :     0.888887


                      *****************************
                      * MAYER POPULATION ANALYSIS *
                      *****************************

  NA   - Mulliken gross atomic population
  ZA   - Total nuclear charge
  QA   - Mulliken gross atomic charge
  VA   - Mayer's total valence
  BVA  - Mayer's bonded valence
  FA   - Mayer's free valence

  ATOM       NA         ZA         QA         VA         BVA        FA
  0 N      7.3016     7.0000    -0.3016     2.9468     2.9468    -0.0000
  1 H      0.8993     1.0000     0.1007     0.9817     0.9817    -0.0000
  2 H      0.8997     1.0000     0.1003     0.9819     0.9819    -0.0000
  3 H      0.8993     1.0000     0.1007     0.9818     0.9818     0.0000

  Mayer bond orders larger than 0.1
B(  0-N ,  1-H ) :   0.9822 B(  0-N ,  2-H ) :   0.9824 B(  0-N ,  3-H ) :   0.9822 


-------
TIMINGS
-------

Total SCF time: 0 days 0 hours 0 min 3 sec 

Total time                  ....       3.490 sec
Sum of individual times     ....       3.025 sec  ( 86.7%)

Fock matrix formation       ....       2.730 sec  ( 78.2%)
  XC integration            ....       0.591 sec  ( 21.7% of F)
    Basis function eval.    ....       0.158 sec  ( 26.7% of XC)
    Density eval.           ....       0.024 sec  (  4.0% of XC)
    XC-Functional eval.     ....       0.176 sec  ( 29.7% of XC)
    XC-Potential eval.      ....       0.013 sec  (  2.3% of XC)
Diagonalization             ....       0.028 sec  (  0.8%)
Density matrix formation    ....       0.000 sec  (  0.0%)
Population analysis         ....       0.012 sec  (  0.3%)
Initial guess               ....       0.116 sec  (  3.3%)
Orbital Transformation      ....       0.000 sec  (  0.0%)
Orbital Orthonormalization  ....       0.000 sec  (  0.0%)
DIIS solution               ....       0.000 sec  (  0.0%)
Grid generation             ....       0.138 sec  (  4.0%)


-------------------------------------------------------------------------------
                          DFT DISPERSION CORRECTION                            
                                                                               
                              DFTD3 V3.1  Rev 1                                
                              USING zero damping                               
-------------------------------------------------------------------------------
The omegaB97X-D3 functional is recognized. Fit by Chai et al.
Active option DFTDOPT                   ...         3   

molecular C6(AA) [au] = 170.937591 


            DFT-D V3
 parameters
 s6 scaling factor         :     1.0000 
 rs6 scaling factor        :     1.2810 
 s8 scaling factor         :     1.0000 
 rs8 scaling factor        :     1.0940 
 Damping factor alpha6     :    14.0000 
 Damping factor alpha8     :    16.0000 
 ad hoc parameters k1-k3   :    16.0000     1.3333    -4.0000 

 Edisp/kcal,au: -0.250315463428  -0.000398903040 
 E6   /kcal   :  -0.052207141 
 E8   /kcal   :  -0.198108323 
 % E8         :  79.143461700 

-------------------------   ----------------
Dispersion correction           -0.000398903
-------------------------   ----------------


-------------------------   --------------------
FINAL SINGLE POINT ENERGY       -56.171177136937
-------------------------   --------------------


                            ***************************************
                            *     ORCA property calculations      *
                            ***************************************

                                    ---------------------
                                    Active property flags
                                    ---------------------
   (+) Dipole Moment


------------------------------------------------------------------------------
                       ORCA ELECTRIC PROPERTIES CALCULATION
------------------------------------------------------------------------------

Dipole Moment Calculation                       ... on
Quadrupole Moment Calculation                   ... off
Polarizability Calculation                      ... off
GBWName                                         ... Scan_14.gbw
Electron density file                           ... Scan_14.scfp.tmp

-------------
DIPOLE MOMENT
-------------
                                X             Y             Z
Electronic contribution:     -0.53040      -1.48165       0.22604
Nuclear contribution   :      0.72352       2.02307      -0.30845
                        -----------------------------------------
Total Dipole Moment    :      0.19312       0.54142      -0.08241
                        -----------------------------------------
Magnitude (a.u.)       :      0.58071
Magnitude (Debye)      :      1.47605


Timings for individual modules:

Sum of individual times         ...        3.829 sec (=   0.064 min)
GTO integral calculation        ...        0.315 sec (=   0.005 min)   8.2 %
SCF iterations                  ...        3.514 sec (=   0.059 min)  91.8 %
                             ****ORCA TERMINATED NORMALLY****
TOTAL RUN TIME: 0 days 0 hours 0 minutes 4 seconds 171 msec
