
                                 *****************
                                 * O   R   C   A *
                                 *****************

           --- An Ab Initio, DFT and Semiempirical electronic structure package ---

                  #######################################################
                  #                        -***-                        #
                  #  Department of molecular theory and spectroscopy    #
                  #              Directorship: Frank Neese              #
                  # Max Planck Institute for Chemical Energy Conversion #
                  #                  D-45470 Muelheim/Ruhr              #
                  #                       Germany                       #
                  #                                                     #
                  #                  All rights reserved                #
                  #                        -***-                        #
                  #######################################################


                         Program Version 4.0.0.2 - RELEASE -


 With contributions from (in alphabetic order):
   Daniel Aravena         : Magnetic Properties
   Michael Atanasov       : Ab Initio Ligand Field Theory
   Ute Becker             : Parallelization
   Martin Brehm           : Molecular dynamics
   Dmytro Bykov           : SCF Hessian
   Vijay G. Chilkuri      : MRCI spin determinant printing
   Dipayan Datta          : RHF DLPNO-CCSD density
   Achintya Kumar Dutta   : EOM-CC, STEOM-CC
   Dmitry Ganyushin       : Spin-Orbit,Spin-Spin,Magnetic field MRCI
   Yang Guo               : DLPNO-NEVPT2, CIM, IAO-localization
   Andreas Hansen         : Spin unrestricted coupled pair/coupled cluster methods
   Lee Huntington         : MR-EOM, pCC
   Robert Izsak           : Overlap fitted RIJCOSX, COSX-SCS-MP3, EOM
   Christian Kollmar      : KDIIS, OOCD, Brueckner-CCSD(T), CCSD density
   Simone Kossmann        : Meta GGA functionals, TD-DFT gradient, OOMP2, MP2 Hessian
   Martin Krupicka        : AUTO-CI
   Dagmar Lenk            : GEPOL surface
   Dimitrios Liakos       : Extrapolation schemes; parallel MDCI
   Dimitrios Manganas     : ROCIS; embedding schemes
   Dimitrios Pantazis     : SARC Basis sets
   Taras Petrenko         : DFT Hessian,TD-DFT gradient, ASA, ECA, R-Raman, ABS, FL, XAS/XES, NRVS
   Peter Pinski           : DLPNO-MP2
   Christoph Reimann      : Effective Core Potentials
   Marius Retegan         : Local ZFS, SOC
   Christoph Riplinger    : Optimizer, TS searches, QM/MM, DLPNO-CCSD(T), (RO)-DLPNO pert. Triples
   Tobias Risthaus        : Range-separated hybrids, TD-DFT gradient, RPA, STAB
   Michael Roemelt        : Restricted open shell CIS
   Masaaki Saitow         : Open-shell DLPNO
   Barbara Sandhoefer     : DKH picture change effects
   Kantharuban Sivalingam : CASSCF convergence, NEVPT2, FIC-MRCI
   Georgi Stoychev        : AutoAux
   Boris Wezisla          : Elementary symmetry handling
   Frank Wennmohs         : Technical directorship


 We gratefully acknowledge several colleagues who have allowed us to
 interface, adapt or use parts of their codes:
   Stefan Grimme, W. Hujo, H. Kruse,             : VdW corrections, initial TS optimization,
                  C. Bannwarth                     DFT functionals, gCP, sTDA/sTD-DF
   Ed Valeev                                     : LibInt (2-el integral package), F12 methods
   Garnet Chan, S. Sharma, J. Yang, R. Olivares  : DMRG
   Ulf Ekstrom                                   : XCFun DFT Library
   Mihaly Kallay                                 : mrcc  (arbitrary order and MRCC methods)
   Jiri Pittner, Ondrej Demel                    : Mk-CCSD
   Frank Weinhold                                : gennbo (NPA and NBO analysis)
   Christopher J. Cramer and Donald G. Truhlar   : smd solvation model


 Your calculation uses the libint2 library for the computation of 2-el integrals
 For citations please refer to: http://libint.valeyev.net

 This ORCA versions uses:
   CBLAS   interface :  Fast vector & matrix operations
   LAPACKE interface :  Fast linear algebra routines
   SCALAPACK package :  Parallel linear algebra routines


Your calculation utilizes the atom-pairwise dispersion correction
with the zero-damping scheme (D30)
Cite in your paper:
S.Grimme, J.Antony, S.Ehrlich and H.Krieg, J.Chem.Phys., 132, (2010), 154104 
   

XCFun DFT library Copyright 2009-2010 Ulf Ekstrom and contributors.
See http://admol.org/xcfun for more information. This is free soft-
ware; see the source code for copying conditions. There is ABSOLUTELY
NO WARRANTY; not even for MERCHANTABILITY or FITNESS FOR A PARTICULAR
PURPOSE. For details see the documentation. Scientific users of this 
library should cite U. Ekstrom, L. Visscher, R. Bast, A. J. Thorvald-
sen and K. Ruud; J.Chem.Theor.Comp. 2010, DOI: 10.1021/ct100117s
XCFun Version 0.99 
Your calculation utilizes the basis: 6-31G(d)
   H-He, Li-Ne : W. J. Hehre, R. Ditchfield and J.A. Pople, J. Chem. Phys. 56, 2257 (1972).
                 Note: He and Ne are unpublished basis sets taken from the Gaussian program.
                 Note: Li and B from J. D. Dill and J. A. Pople, J. Chem. Phys. 62, 2921 (1975).
   Na - Ar     : M. M. Francl, W. J. Pietro, W. J. Hehre, J. S. Binkley, M. S. Gordon, 
                 D. J. DeFrees and J. A. Pople, J. Chem. Phys. 77, 3654 (1982).
   K - Zn      : V. A. Rassolov, J. A. Pople, M. A. Ratner, and T. L. Windus, J. Chem. Phys. 109, 1223 (1998).

================================================================================
                                        WARNINGS
                       Please study these warnings very carefully!
================================================================================

Warning: TCutStore was < 0. Adjusted to Thresh (uncritical)

INFO   : the flag for use of LIBINT has been found!

================================================================================
                                       INPUT FILE
================================================================================
NAME = initial17.inp
|  1> ! WB97X-D3 6-31G(d) VerySlowConv
|  2> ! KDIIS NOSOSCF
|  3> %base "Scan_17"
|  4> 
|  5> %scf
|  6> maxiter 999
|  7> end
|  8> 
|  9> * xyz 0 1
| 10> N         -0.240419590444    0.482703212423    0.087770846462
| 11> H          1.785580773623    0.994622146734    0.009721706780
| 12> H         -0.671652469338    1.626641735529   -1.608776507222
| 13> H         -0.671658713841    2.080252905314    1.366323953980
| 14> **                         ****END OF INPUT****
================================================================================

                       ****************************
                       * Single Point Calculation *
                       ****************************

---------------------------------
CARTESIAN COORDINATES (ANGSTROEM)
---------------------------------
  N     -0.240420    0.482703    0.087771
  H      1.785581    0.994622    0.009722
  H     -0.671652    1.626642   -1.608777
  H     -0.671659    2.080253    1.366324

----------------------------
CARTESIAN COORDINATES (A.U.)
----------------------------
  NO LB      ZA    FRAG     MASS         X           Y           Z
   0 N     7.0000    0    14.007   -0.454327    0.912177    0.165863
   1 H     1.0000    0     1.008    3.374259    1.879563    0.018371
   2 H     1.0000    0     1.008   -1.269239    3.073907   -3.040147
   3 H     1.0000    0     1.008   -1.269251    3.931108    2.581978

--------------------------------
INTERNAL COORDINATES (ANGSTROEM)
--------------------------------
 N      0   0   0     0.000000000000     0.00000000     0.00000000
 H      1   0   0     2.091131305947     0.00000000     0.00000000
 H      1   2   0     2.091131288030    92.03999521     0.00000000
 H      1   2   3     2.091131332927    92.04005464   267.88463590

---------------------------
INTERNAL COORDINATES (A.U.)
---------------------------
 N      0   0   0     0.000000000000     0.00000000     0.00000000
 H      1   0   0     3.951665478309     0.00000000     0.00000000
 H      1   2   0     3.951665444450    92.03999521     0.00000000
 H      1   2   3     3.951665529293    92.04005464   267.88463590

---------------------
BASIS SET INFORMATION
---------------------
There are 2 groups of distinct atoms

 Group   1 Type N   : 10s4p1d contracted to 3s2p1d pattern {631/31/1}
 Group   2 Type H   : 4s contracted to 2s pattern {31}

Atom   0N    basis set group =>   1
Atom   1H    basis set group =>   2
Atom   2H    basis set group =>   2
Atom   3H    basis set group =>   2
------------------------------------------------------------------------------
                           ORCA GTO INTEGRAL CALCULATION
------------------------------------------------------------------------------

                         BASIS SET STATISTICS AND STARTUP INFO

 # of primitive gaussian shells          ...   27
 # of primitive gaussian functions       ...   39
 # of contracted shells                  ...   12
 # of contracted basis functions         ...   20
 Highest angular momentum                ...    2
 Maximum contraction depth               ...    6
 Integral package used                   ... LIBINT
 Integral threshhold            Thresh   ...  1.000e-10
 Primitive cut-off              TCut     ...  1.000e-11


------------------------------ INTEGRAL EVALUATION ----------------------------


 * One electron integrals 
 Pre-screening matrix                    ... done
 Shell pair data                         ... done (   0.000 sec)

-------------------------------------------------------------------------------
                                 ORCA SCF
-------------------------------------------------------------------------------

------------
SCF SETTINGS
------------
Hamiltonian:
 Density Functional     Method          .... DFT(GTOs)
 Exchange Functional    Exchange        .... WB97X-D3
 Correlation Functional Correlation     .... WB97X-D3
 Gradients option       PostSCFGGA      .... off
 Hybrid DFT is turned on
   Fraction HF Exchange ScalHFX         ....  0.195728
   Scaling of DF-GGA-X  ScalDFX         ....  0.000000
   Scaling of DF-GGA-C  ScalDFC         ....  1.000000
   Scaling of DF-LDA-C  ScalLDAC        ....  1.000000
   Perturbative correction              ....  0.000000
 Long-range corrected/Screened/Range-Separated Hybrid DFT is turned on
   Amount of maximum screened exact exchange              ....  0.804272
   Range separation parameter mu (erf(mu*r12)/r12)        ....  0.250000


General Settings:
 Integral files         IntName         .... Scan_17
 Hartree-Fock type      HFTyp           .... RHF
 Total Charge           Charge          ....    0
 Multiplicity           Mult            ....    1
 Number of Electrons    NEL             ....   10
 Basis Dimension        Dim             ....   20
 Nuclear Repulsion      ENuc            ....      5.8417248281 Eh

Convergence Acceleration:
 DIIS                   CNVDIIS         .... on
   Start iteration      DIISMaxIt       ....     0
   Startup error        DIISStart       ....  0.200000
   # of expansion vecs  DIISMaxEq       ....     5
   Bias factor          DIISBfac        ....   1.050
   Max. coefficient     DIISMaxC        ....  10.000
 Newton-Raphson         CNVNR           .... off
 SOSCF                  CNVSOSCF        .... off
 Level Shifting         CNVShift        .... off
 Zerner damping         CNVZerner       .... off
 Static damping         CNVDamp         .... off
 Fernandez-Rico         CNVRico         .... off

SCF Procedure:
 Maximum # iterations   MaxIter         ....   999
 SCF integral mode      SCFMode         .... Direct
   Integral package                     .... LIBINT
 Reset frequeny         DirectResetFreq ....    20
 Integral Threshold     Thresh          ....  1.000e-10 Eh
 Primitive CutOff       TCut            ....  1.000e-11 Eh

Convergence Tolerance:
 Convergence Check Mode ConvCheckMode   .... All-Criteria
 Convergence forced     ConvForced      .... 0
 Energy Change          TolE            ....  1.000e-06 Eh
 Max Density Change     TolMaxP         ....  1.000e-05
 RMS Density Change     TolRMSP         ....  1.000e-06
 DIIS Error             TolErr          ....  1.000e-06


Diagonalization of the overlap matrix:
Smallest eigenvalue                        ... 1.580e-01
Time for diagonalization                   ...    0.000 sec
Threshold for overlap eigenvalues          ... 1.000e-08
Number of eigenvalues below threshold      ... 0
Time for construction of square roots      ...    0.005 sec
Total time needed                          ...    0.005 sec

-------------------
DFT GRID GENERATION
-------------------

General Integration Accuracy     IntAcc      ...  4.340
Radial Grid Type                 RadialGrid  ... Gauss-Chebyshev
Angular Grid (max. acc.)         AngularGrid ... Lebedev-110
Angular grid pruning method      GridPruning ... 3 (G Style)
Weight generation scheme         WeightScheme... Becke
Basis function cutoff            BFCut       ...    1.0000e-10
Integration weight cutoff        WCut        ...    1.0000e-14
Grids for H and He will be reduced by one unit

# of grid points (after initial pruning)     ...   4084 (   0.0 sec)
# of grid points (after weights+screening)   ...   4065 (   0.0 sec)
nearest neighbour list constructed           ...    0.0 sec
Grid point re-assignment to atoms done       ...    0.0 sec
Grid point division into batches done        ...    0.0 sec
Reduced shell lists constructed in    0.0 sec

Total number of grid points                  ...     4065
Total number of batches                      ...       66
Average number of points per batch           ...       61
Average number of grid points per atom       ...     1016
Average number of shells per batch           ...    10.75 (89.55%)
Average number of basis functions per batch  ...    18.30 (91.49%)
Average number of large shells per batch     ...     9.39 (87.36%)
Average number of large basis fcns per batch ...    16.37 (89.48%)
Maximum spatial batch extension              ...  18.47, 20.95, 18.77 au
Average spatial batch extension              ...   5.44,  5.61,  4.74 au

Time for grid setup =    0.023 sec

------------------------------
INITIAL GUESS: MODEL POTENTIAL
------------------------------
Loading Hartree-Fock densities                     ... done
Calculating cut-offs                               ... done
Setting up the integral package                    ... done
Initializing the effective Hamiltonian             ... done
Starting the Coulomb interaction                   ... done (   0.0 sec)
Reading the grid                                   ... done
Mapping shells                                     ... done
Starting the XC term evaluation                    ... done (   0.0 sec)
  promolecular density results
     # of electrons  =      9.998025571
     EX              =     -7.139774628
     EC              =     -0.255568714
     EX+EC           =     -7.395343342
Transforming the Hamiltonian                       ... done (   0.0 sec)
Diagonalizing the Hamiltonian                      ... done (   0.0 sec)
Back transforming the eigenvectors                 ... done (   0.0 sec)
Now organizing SCF variables                       ... done
                      ------------------
                      INITIAL GUESS DONE (   0.1 sec)
                      ------------------
--------------
SCF ITERATIONS
--------------
ITER       Energy         Delta-E        Max-DP      RMS-DP      [F,P]   Gradient Norm
               ***  Starting incremental Fock matrix formation  ***
                             ****Resetting KDIIS****
                             ****Turning on KDIIS(Cayley)****
  0    -55.9230246328   0.000000000000 0.03370947  0.00398474  0.1315147   0.123386709
  1    -55.9624998157  -0.039475182891 0.04568096  0.00698655  0.1000545   0.089893760
  2    -56.0053305133  -0.042830697529 0.02965233  0.00448136  0.0442050   0.038068287
  3    -56.0138375559  -0.008507042673 0.02947876  0.00415790  0.0191603   0.018289149
  4    -56.0158519776  -0.002014421708 0.00343531  0.00067349  0.0041274   0.003364821
  5    -56.0160033766  -0.000151398925 0.00230460  0.00033443  0.0030503   0.002453096
  6    -56.0160643478  -0.000060971216 0.00916138  0.00143049  0.0025672   0.002090405
  7    -56.0161914742  -0.000127126373 0.00086929  0.00011065  0.0002216   0.000185790
  8    -56.0161928431  -0.000001368904 0.00093016  0.00008903  0.0001996   0.000116235
                          ***Energy convergence achieved***
  9    -56.0161932473  -0.000000404240 0.00018163  0.00002760  0.0001221   0.000106182

            ***Energy convergence in two consecutive cycles with***
                    ***'reasonable' density convergence***
                       *** signaling convergence ***

                    *** KDIIS BlockDiag ( 0.000 sec) ***

               *****************************************************
               *                     SUCCESS                       *
               *           SCF CONVERGED AFTER  10 CYCLES          *
               *****************************************************

Setting up the final grid:

General Integration Accuracy     IntAcc      ...  4.670
Radial Grid Type                 RadialGrid  ... Gauss-Chebyshev
Angular Grid (max. acc.)         AngularGrid ... Lebedev-302
Angular grid pruning method      GridPruning ... 3 (G Style)
Weight generation scheme         WeightScheme... Becke
Basis function cutoff            BFCut       ...    1.0000e-10
Integration weight cutoff        WCut        ...    1.0000e-14
Grids for H and He will be reduced by one unit

# of grid points (after initial pruning)     ...  16394 (   0.0 sec)
# of grid points (after weights+screening)   ...  16285 (   0.0 sec)
nearest neighbour list constructed           ...    0.0 sec
Grid point re-assignment to atoms done       ...    0.0 sec
Grid point division into batches done        ...    0.0 sec
Reduced shell lists constructed in    0.1 sec

Total number of grid points                  ...    16285
Total number of batches                      ...      257
Average number of points per batch           ...       63
Average number of grid points per atom       ...     4071
Average number of shells per batch           ...     9.72 (81.04%)
Average number of basis functions per batch  ...    16.52 (82.58%)
Average number of large shells per batch     ...     8.31 (85.41%)
Average number of large basis fcns per batch ...    14.52 (87.89%)
Maximum spatial batch extension              ...  15.51, 16.88, 16.88 au
Average spatial batch extension              ...   3.24,  3.37,  3.16 au

Final grid set up in    0.4 sec
Final integration                            ... done (   0.1 sec)
Change in XC energy                          ...    -0.000038593
Integrated number of electrons               ...     9.999998035
Previous integrated no of electrons          ...    10.000438505

----------------
TOTAL SCF ENERGY
----------------

Total Energy       :          -56.01623193 Eh           -1524.27916 eV

Components:
Nuclear Repulsion  :            5.84172483 Eh             158.96141 eV
Electronic Energy  :          -61.85795676 Eh           -1683.24058 eV
One Electron Energy:          -87.23391062 Eh           -2373.75539 eV
Two Electron Energy:           25.37595385 Eh             690.51481 eV

Virial components:
Potential Energy   :         -110.88122379 Eh           -3017.23149 eV
Kinetic Energy     :           54.86499185 Eh            1492.95233 eV
Virial Ratio       :            2.02098315


DFT components:
N(Alpha)           :        4.999999017488 electrons
N(Beta)            :        4.999999017488 electrons
N(Total)           :        9.999998034975 electrons
E(XC)              :       -4.967648486028 Eh       

---------------
SCF CONVERGENCE
---------------

  Last Energy change         ...   -9.2672e-08  Tolerance :   1.0000e-06
  Last MAX-Density change    ...    2.4168e-05  Tolerance :   1.0000e-05
  Last RMS-Density change    ...    2.8269e-06  Tolerance :   1.0000e-06
  Last DIIS Error            ...    8.2667e-06  Tolerance :   1.0000e-06

             **** THE GBW FILE WAS UPDATED (Scan_17.gbw) ****
             **** DENSITY FILE WAS UPDATED (Scan_17.scfp.tmp) ****
             **** ENERGY FILE WAS UPDATED (Scan_17.en.tmp) ****
----------------
ORBITAL ENERGIES
----------------

  NO   OCC          E(Eh)            E(eV) 
   0   2.0000     -14.594614      -397.1396 
   1   2.0000      -0.836265       -22.7559 
   2   2.0000      -0.385297       -10.4845 
   3   2.0000      -0.385158       -10.4807 
   4   2.0000      -0.380289       -10.3482 
   5   0.0000      -0.066472        -1.8088 
   6   0.0000      -0.054464        -1.4820 
   7   0.0000      -0.054267        -1.4767 
   8   0.0000       0.770739        20.9729 
   9   0.0000       0.826182        22.4815 
  10   0.0000       0.826594        22.4928 
  11   0.0000       0.841736        22.9048 
  12   0.0000       0.926479        25.2108 
  13   0.0000       0.926610        25.2143 
  14   0.0000       1.008921        27.4541 
  15   0.0000       1.812892        49.3313 
  16   0.0000       1.814403        49.3724 
  17   0.0000       1.815652        49.4064 
  18   0.0000       1.834688        49.9244 
  19   0.0000       1.835518        49.9470 

                    ********************************
                    * MULLIKEN POPULATION ANALYSIS *
                    ********************************

-----------------------
MULLIKEN ATOMIC CHARGES
-----------------------
   0 N :   -0.172143
   1 H :    0.057664
   2 H :    0.056957
   3 H :    0.057522
Sum of atomic charges:    0.0000000

--------------------------------
MULLIKEN REDUCED ORBITAL CHARGES
--------------------------------
  0 N s       :     3.985383  s :     3.985383
      pz      :     1.088663  p :     3.183841
      px      :     1.082222
      py      :     1.012956
      dz2     :     0.000385  d :     0.002919
      dxz     :     0.000061
      dyz     :     0.001269
      dx2y2   :     0.000818
      dxy     :     0.000385
  1 H s       :     0.942336  s :     0.942336
  2 H s       :     0.943043  s :     0.943043
  3 H s       :     0.942478  s :     0.942478


                     *******************************
                     * LOEWDIN POPULATION ANALYSIS *
                     *******************************

----------------------
LOEWDIN ATOMIC CHARGES
----------------------
   0 N :   -0.216480
   1 H :    0.072386
   2 H :    0.071805
   3 H :    0.072289

-------------------------------
LOEWDIN REDUCED ORBITAL CHARGES
-------------------------------
  0 N s       :     3.966188  s :     3.966188
      pz      :     1.109432  p :     3.246357
      px      :     1.102944
      py      :     1.033982
      dz2     :     0.000557  d :     0.003934
      dxz     :     0.000112
      dyz     :     0.001687
      dx2y2   :     0.001105
      dxy     :     0.000475
  1 H s       :     0.927614  s :     0.927614
  2 H s       :     0.928195  s :     0.928195
  3 H s       :     0.927711  s :     0.927711


                      *****************************
                      * MAYER POPULATION ANALYSIS *
                      *****************************

  NA   - Mulliken gross atomic population
  ZA   - Total nuclear charge
  QA   - Mulliken gross atomic charge
  VA   - Mayer's total valence
  BVA  - Mayer's bonded valence
  FA   - Mayer's free valence

  ATOM       NA         ZA         QA         VA         BVA        FA
  0 N      7.1721     7.0000    -0.1721     2.9744     2.9744    -0.0000
  1 H      0.9423     1.0000     0.0577     0.9943     0.9943    -0.0000
  2 H      0.9430     1.0000     0.0570     0.9944     0.9944     0.0000
  3 H      0.9425     1.0000     0.0575     0.9943     0.9943    -0.0000

  Mayer bond orders larger than 0.1
B(  0-N ,  1-H ) :   0.9913 B(  0-N ,  2-H ) :   0.9915 B(  0-N ,  3-H ) :   0.9915 


-------
TIMINGS
-------

Total SCF time: 0 days 0 hours 0 min 3 sec 

Total time                  ....       3.611 sec
Sum of individual times     ....       3.489 sec  ( 96.6%)

Fock matrix formation       ....       2.960 sec  ( 82.0%)
  XC integration            ....       0.640 sec  ( 21.6% of F)
    Basis function eval.    ....       0.165 sec  ( 25.7% of XC)
    Density eval.           ....       0.025 sec  (  4.0% of XC)
    XC-Functional eval.     ....       0.203 sec  ( 31.7% of XC)
    XC-Potential eval.      ....       0.014 sec  (  2.2% of XC)
Diagonalization             ....       0.007 sec  (  0.2%)
Density matrix formation    ....       0.000 sec  (  0.0%)
Population analysis         ....       0.009 sec  (  0.2%)
Initial guess               ....       0.116 sec  (  3.2%)
Orbital Transformation      ....       0.000 sec  (  0.0%)
Orbital Orthonormalization  ....       0.000 sec  (  0.0%)
DIIS solution               ....       0.000 sec  (  0.0%)
Grid generation             ....       0.397 sec  ( 11.0%)


-------------------------------------------------------------------------------
                          DFT DISPERSION CORRECTION                            
                                                                               
                              DFTD3 V3.1  Rev 1                                
                              USING zero damping                               
-------------------------------------------------------------------------------
The omegaB97X-D3 functional is recognized. Fit by Chai et al.
Active option DFTDOPT                   ...         3   

molecular C6(AA) [au] = 171.660174 


            DFT-D V3
 parameters
 s6 scaling factor         :     1.0000 
 rs6 scaling factor        :     1.2810 
 s8 scaling factor         :     1.0000 
 rs8 scaling factor        :     1.0940 
 Damping factor alpha6     :    14.0000 
 Damping factor alpha8     :    16.0000 
 ad hoc parameters k1-k3   :    16.0000     1.3333    -4.0000 

 Edisp/kcal,au: -0.308451174395  -0.000491548183 
 E6   /kcal   :  -0.137123711 
 E8   /kcal   :  -0.171327463 
 % E8         :  55.544435309 

-------------------------   ----------------
Dispersion correction           -0.000491548
-------------------------   ----------------


-------------------------   --------------------
FINAL SINGLE POINT ENERGY       -56.016723480804
-------------------------   --------------------


                            ***************************************
                            *     ORCA property calculations      *
                            ***************************************

                                    ---------------------
                                    Active property flags
                                    ---------------------
   (+) Dipole Moment


------------------------------------------------------------------------------
                       ORCA ELECTRIC PROPERTIES CALCULATION
------------------------------------------------------------------------------

Dipole Moment Calculation                       ... on
Quadrupole Moment Calculation                   ... off
Polarizability Calculation                      ... off
GBWName                                         ... Scan_17.gbw
Electron density file                           ... Scan_17.scfp.tmp

-------------
DIPOLE MOMENT
-------------
                                X             Y             Z
Electronic contribution:     -0.73559      -2.05901       0.31555
Nuclear contribution   :      0.89739       2.50925      -0.38258
                        -----------------------------------------
Total Dipole Moment    :      0.16180       0.45024      -0.06703
                        -----------------------------------------
Magnitude (a.u.)       :      0.48311
Magnitude (Debye)      :      1.22796


Timings for individual modules:

Sum of individual times         ...        3.950 sec (=   0.066 min)
GTO integral calculation        ...        0.314 sec (=   0.005 min)   8.0 %
SCF iterations                  ...        3.636 sec (=   0.061 min)  92.0 %
                             ****ORCA TERMINATED NORMALLY****
TOTAL RUN TIME: 0 days 0 hours 0 minutes 4 seconds 286 msec
