
                                 *****************
                                 * O   R   C   A *
                                 *****************

           --- An Ab Initio, DFT and Semiempirical electronic structure package ---

                  #######################################################
                  #                        -***-                        #
                  #  Department of molecular theory and spectroscopy    #
                  #              Directorship: Frank Neese              #
                  # Max Planck Institute for Chemical Energy Conversion #
                  #                  D-45470 Muelheim/Ruhr              #
                  #                       Germany                       #
                  #                                                     #
                  #                  All rights reserved                #
                  #                        -***-                        #
                  #######################################################


                         Program Version 4.0.0.2 - RELEASE -


 With contributions from (in alphabetic order):
   Daniel Aravena         : Magnetic Properties
   Michael Atanasov       : Ab Initio Ligand Field Theory
   Ute Becker             : Parallelization
   Martin Brehm           : Molecular dynamics
   Dmytro Bykov           : SCF Hessian
   Vijay G. Chilkuri      : MRCI spin determinant printing
   Dipayan Datta          : RHF DLPNO-CCSD density
   Achintya Kumar Dutta   : EOM-CC, STEOM-CC
   Dmitry Ganyushin       : Spin-Orbit,Spin-Spin,Magnetic field MRCI
   Yang Guo               : DLPNO-NEVPT2, CIM, IAO-localization
   Andreas Hansen         : Spin unrestricted coupled pair/coupled cluster methods
   Lee Huntington         : MR-EOM, pCC
   Robert Izsak           : Overlap fitted RIJCOSX, COSX-SCS-MP3, EOM
   Christian Kollmar      : KDIIS, OOCD, Brueckner-CCSD(T), CCSD density
   Simone Kossmann        : Meta GGA functionals, TD-DFT gradient, OOMP2, MP2 Hessian
   Martin Krupicka        : AUTO-CI
   Dagmar Lenk            : GEPOL surface
   Dimitrios Liakos       : Extrapolation schemes; parallel MDCI
   Dimitrios Manganas     : ROCIS; embedding schemes
   Dimitrios Pantazis     : SARC Basis sets
   Taras Petrenko         : DFT Hessian,TD-DFT gradient, ASA, ECA, R-Raman, ABS, FL, XAS/XES, NRVS
   Peter Pinski           : DLPNO-MP2
   Christoph Reimann      : Effective Core Potentials
   Marius Retegan         : Local ZFS, SOC
   Christoph Riplinger    : Optimizer, TS searches, QM/MM, DLPNO-CCSD(T), (RO)-DLPNO pert. Triples
   Tobias Risthaus        : Range-separated hybrids, TD-DFT gradient, RPA, STAB
   Michael Roemelt        : Restricted open shell CIS
   Masaaki Saitow         : Open-shell DLPNO
   Barbara Sandhoefer     : DKH picture change effects
   Kantharuban Sivalingam : CASSCF convergence, NEVPT2, FIC-MRCI
   Georgi Stoychev        : AutoAux
   Boris Wezisla          : Elementary symmetry handling
   Frank Wennmohs         : Technical directorship


 We gratefully acknowledge several colleagues who have allowed us to
 interface, adapt or use parts of their codes:
   Stefan Grimme, W. Hujo, H. Kruse,             : VdW corrections, initial TS optimization,
                  C. Bannwarth                     DFT functionals, gCP, sTDA/sTD-DF
   Ed Valeev                                     : LibInt (2-el integral package), F12 methods
   Garnet Chan, S. Sharma, J. Yang, R. Olivares  : DMRG
   Ulf Ekstrom                                   : XCFun DFT Library
   Mihaly Kallay                                 : mrcc  (arbitrary order and MRCC methods)
   Jiri Pittner, Ondrej Demel                    : Mk-CCSD
   Frank Weinhold                                : gennbo (NPA and NBO analysis)
   Christopher J. Cramer and Donald G. Truhlar   : smd solvation model


 Your calculation uses the libint2 library for the computation of 2-el integrals
 For citations please refer to: http://libint.valeyev.net

 This ORCA versions uses:
   CBLAS   interface :  Fast vector & matrix operations
   LAPACKE interface :  Fast linear algebra routines
   SCALAPACK package :  Parallel linear algebra routines


Your calculation utilizes the atom-pairwise dispersion correction
with the zero-damping scheme (D30)
Cite in your paper:
S.Grimme, J.Antony, S.Ehrlich and H.Krieg, J.Chem.Phys., 132, (2010), 154104 
   

XCFun DFT library Copyright 2009-2010 Ulf Ekstrom and contributors.
See http://admol.org/xcfun for more information. This is free soft-
ware; see the source code for copying conditions. There is ABSOLUTELY
NO WARRANTY; not even for MERCHANTABILITY or FITNESS FOR A PARTICULAR
PURPOSE. For details see the documentation. Scientific users of this 
library should cite U. Ekstrom, L. Visscher, R. Bast, A. J. Thorvald-
sen and K. Ruud; J.Chem.Theor.Comp. 2010, DOI: 10.1021/ct100117s
XCFun Version 0.99 
Your calculation utilizes the basis: 6-31G(d)
   H-He, Li-Ne : W. J. Hehre, R. Ditchfield and J.A. Pople, J. Chem. Phys. 56, 2257 (1972).
                 Note: He and Ne are unpublished basis sets taken from the Gaussian program.
                 Note: Li and B from J. D. Dill and J. A. Pople, J. Chem. Phys. 62, 2921 (1975).
   Na - Ar     : M. M. Francl, W. J. Pietro, W. J. Hehre, J. S. Binkley, M. S. Gordon, 
                 D. J. DeFrees and J. A. Pople, J. Chem. Phys. 77, 3654 (1982).
   K - Zn      : V. A. Rassolov, J. A. Pople, M. A. Ratner, and T. L. Windus, J. Chem. Phys. 109, 1223 (1998).

================================================================================
                                        WARNINGS
                       Please study these warnings very carefully!
================================================================================

Warning: TCutStore was < 0. Adjusted to Thresh (uncritical)

INFO   : the flag for use of LIBINT has been found!

================================================================================
                                       INPUT FILE
================================================================================
NAME = initial19.inp
|  1> ! WB97X-D3 6-31G(d) VerySlowConv
|  2> ! KDIIS NOSOSCF
|  3> %base "Scan_19"
|  4> 
|  5> %scf
|  6> maxiter 999
|  7> end
|  8> 
|  9> * xyz 0 1
| 10> N         -0.313698474419    0.277810792489    0.119016203079
| 11> H          1.868094895694    1.042616892464    0.002393284434
| 12> H         -0.676262161825    1.697046610832   -1.673487435886
| 13> H         -0.676284259449    2.166745704215    1.407117948374
| 14> **                         ****END OF INPUT****
================================================================================

                       ****************************
                       * Single Point Calculation *
                       ****************************

---------------------------------
CARTESIAN COORDINATES (ANGSTROEM)
---------------------------------
  N     -0.313698    0.277811    0.119016
  H      1.868095    1.042617    0.002393
  H     -0.676262    1.697047   -1.673487
  H     -0.676284    2.166746    1.407118

----------------------------
CARTESIAN COORDINATES (A.U.)
----------------------------
  NO LB      ZA    FRAG     MASS         X           Y           Z
   0 N     7.0000    0    14.007   -0.592804    0.524986    0.224908
   1 H     1.0000    0     1.008    3.530188    1.970260    0.004523
   2 H     1.0000    0     1.008   -1.277950    3.206953   -3.162433
   3 H     1.0000    0     1.008   -1.277992    4.094556    2.659068

--------------------------------
INTERNAL COORDINATES (ANGSTROEM)
--------------------------------
 N      0   0   0     0.000000000000     0.00000000     0.00000000
 H      1   0   0     2.314897748407     0.00000000     0.00000000
 H      1   2   0     2.314897844657    84.60918155     0.00000000
 H      1   2   3     2.314897332167    84.61013265   274.92597183

---------------------------
INTERNAL COORDINATES (A.U.)
---------------------------
 N      0   0   0     0.000000000000     0.00000000     0.00000000
 H      1   0   0     4.374522772521     0.00000000     0.00000000
 H      1   2   0     4.374522954406    84.60918155     0.00000000
 H      1   2   3     4.374521985941    84.61013265   274.92597183

---------------------
BASIS SET INFORMATION
---------------------
There are 2 groups of distinct atoms

 Group   1 Type N   : 10s4p1d contracted to 3s2p1d pattern {631/31/1}
 Group   2 Type H   : 4s contracted to 2s pattern {31}

Atom   0N    basis set group =>   1
Atom   1H    basis set group =>   2
Atom   2H    basis set group =>   2
Atom   3H    basis set group =>   2
------------------------------------------------------------------------------
                           ORCA GTO INTEGRAL CALCULATION
------------------------------------------------------------------------------

                         BASIS SET STATISTICS AND STARTUP INFO

 # of primitive gaussian shells          ...   27
 # of primitive gaussian functions       ...   39
 # of contracted shells                  ...   12
 # of contracted basis functions         ...   20
 Highest angular momentum                ...    2
 Maximum contraction depth               ...    6
 Integral package used                   ... LIBINT
 Integral threshhold            Thresh   ...  1.000e-10
 Primitive cut-off              TCut     ...  1.000e-11


------------------------------ INTEGRAL EVALUATION ----------------------------


 * One electron integrals 
 Pre-screening matrix                    ... done
 Shell pair data                         ... done (   0.000 sec)

-------------------------------------------------------------------------------
                                 ORCA SCF
-------------------------------------------------------------------------------

------------
SCF SETTINGS
------------
Hamiltonian:
 Density Functional     Method          .... DFT(GTOs)
 Exchange Functional    Exchange        .... WB97X-D3
 Correlation Functional Correlation     .... WB97X-D3
 Gradients option       PostSCFGGA      .... off
 Hybrid DFT is turned on
   Fraction HF Exchange ScalHFX         ....  0.195728
   Scaling of DF-GGA-X  ScalDFX         ....  0.000000
   Scaling of DF-GGA-C  ScalDFC         ....  1.000000
   Scaling of DF-LDA-C  ScalLDAC        ....  1.000000
   Perturbative correction              ....  0.000000
 Long-range corrected/Screened/Range-Separated Hybrid DFT is turned on
   Amount of maximum screened exact exchange              ....  0.804272
   Range separation parameter mu (erf(mu*r12)/r12)        ....  0.250000


General Settings:
 Integral files         IntName         .... Scan_19
 Hartree-Fock type      HFTyp           .... RHF
 Total Charge           Charge          ....    0
 Multiplicity           Mult            ....    1
 Number of Electrons    NEL             ....   10
 Basis Dimension        Dim             ....   20
 Nuclear Repulsion      ENuc            ....      5.3099683279 Eh

Convergence Acceleration:
 DIIS                   CNVDIIS         .... on
   Start iteration      DIISMaxIt       ....     0
   Startup error        DIISStart       ....  0.200000
   # of expansion vecs  DIISMaxEq       ....     5
   Bias factor          DIISBfac        ....   1.050
   Max. coefficient     DIISMaxC        ....  10.000
 Newton-Raphson         CNVNR           .... off
 SOSCF                  CNVSOSCF        .... off
 Level Shifting         CNVShift        .... off
 Zerner damping         CNVZerner       .... off
 Static damping         CNVDamp         .... off
 Fernandez-Rico         CNVRico         .... off

SCF Procedure:
 Maximum # iterations   MaxIter         ....   999
 SCF integral mode      SCFMode         .... Direct
   Integral package                     .... LIBINT
 Reset frequeny         DirectResetFreq ....    20
 Integral Threshold     Thresh          ....  1.000e-10 Eh
 Primitive CutOff       TCut            ....  1.000e-11 Eh

Convergence Tolerance:
 Convergence Check Mode ConvCheckMode   .... All-Criteria
 Convergence forced     ConvForced      .... 0
 Energy Change          TolE            ....  1.000e-06 Eh
 Max Density Change     TolMaxP         ....  1.000e-05
 RMS Density Change     TolRMSP         ....  1.000e-06
 DIIS Error             TolErr          ....  1.000e-06


Diagonalization of the overlap matrix:
Smallest eigenvalue                        ... 1.761e-01
Time for diagonalization                   ...    0.000 sec
Threshold for overlap eigenvalues          ... 1.000e-08
Number of eigenvalues below threshold      ... 0
Time for construction of square roots      ...    0.004 sec
Total time needed                          ...    0.005 sec

-------------------
DFT GRID GENERATION
-------------------

General Integration Accuracy     IntAcc      ...  4.340
Radial Grid Type                 RadialGrid  ... Gauss-Chebyshev
Angular Grid (max. acc.)         AngularGrid ... Lebedev-110
Angular grid pruning method      GridPruning ... 3 (G Style)
Weight generation scheme         WeightScheme... Becke
Basis function cutoff            BFCut       ...    1.0000e-10
Integration weight cutoff        WCut        ...    1.0000e-14
Grids for H and He will be reduced by one unit

# of grid points (after initial pruning)     ...   4084 (   0.0 sec)
# of grid points (after weights+screening)   ...   4071 (   0.0 sec)
nearest neighbour list constructed           ...    0.0 sec
Grid point re-assignment to atoms done       ...    0.0 sec
Grid point division into batches done        ...    0.0 sec
Reduced shell lists constructed in    0.0 sec

Total number of grid points                  ...     4071
Total number of batches                      ...       67
Average number of points per batch           ...       60
Average number of grid points per atom       ...     1018
Average number of shells per batch           ...    10.56 (87.99%)
Average number of basis functions per batch  ...    17.94 (89.71%)
Average number of large shells per batch     ...     8.97 (84.96%)
Average number of large basis fcns per batch ...    15.68 (87.38%)
Maximum spatial batch extension              ...  18.77, 20.95, 19.31 au
Average spatial batch extension              ...   5.45,  5.47,  4.75 au

Time for grid setup =    0.022 sec

------------------------------
INITIAL GUESS: MODEL POTENTIAL
------------------------------
Loading Hartree-Fock densities                     ... done
Calculating cut-offs                               ... done
Setting up the integral package                    ... done
Initializing the effective Hamiltonian             ... done
Starting the Coulomb interaction                   ... done (   0.0 sec)
Reading the grid                                   ... done
Mapping shells                                     ... done
Starting the XC term evaluation                    ... done (   0.0 sec)
  promolecular density results
     # of electrons  =      9.998052474
     EX              =     -7.130660300
     EC              =     -0.251244293
     EX+EC           =     -7.381904594
Transforming the Hamiltonian                       ... done (   0.0 sec)
Diagonalizing the Hamiltonian                      ... done (   0.0 sec)
Back transforming the eigenvectors                 ... done (   0.0 sec)
Now organizing SCF variables                       ... done
                      ------------------
                      INITIAL GUESS DONE (   0.1 sec)
                      ------------------
--------------
SCF ITERATIONS
--------------
ITER       Energy         Delta-E        Max-DP      RMS-DP      [F,P]   Gradient Norm
               ***  Starting incremental Fock matrix formation  ***
                             ****Resetting KDIIS****
                             ****Turning on KDIIS(Cayley)****
  0    -55.7787068825   0.000000000000 0.03362951  0.00378195  0.1790258   0.159282209
  1    -55.8272360306  -0.048529148150 0.04957581  0.00706234  0.1478412   0.126722190
  2    -55.8976722821  -0.070436251502 0.10417127  0.01474000  0.0846075   0.069480961
  3    -55.9223534157  -0.024681133556 0.04190354  0.00632886  0.0464851   0.046497962
  4    -55.9319905998  -0.009637184148 0.00945000  0.00116511  0.0134039   0.009992531
  5    -55.9326566586  -0.000666058723 0.00038084  0.00006052  0.0084334   0.006141854
  6    -55.9326650415  -0.000008382893 0.00875684  0.00134777  0.0084130   0.006138363
Warning: badly conditioned DIIS matrix, 1 vectors out of 5 destroyed
  7    -55.9330558775  -0.000390836054 0.00372312  0.00061746  0.0026903   0.002040993
  8    -55.9331033389  -0.000047461365 0.00063635  0.00011227  0.0001359   0.000140181
                          ***Energy convergence achieved***
  9    -55.9331042123  -0.000000873394 0.00046723  0.00006491  0.0000670   0.000078188
 10    -55.9331044214  -0.000000209155 0.00009104  0.00001299  0.0000457   0.000038173

            ***Energy convergence in two consecutive cycles with***
                    ***'reasonable' density convergence***
                       *** signaling convergence ***

                    *** KDIIS BlockDiag ( 0.000 sec) ***

               *****************************************************
               *                     SUCCESS                       *
               *           SCF CONVERGED AFTER  11 CYCLES          *
               *****************************************************

Setting up the final grid:

General Integration Accuracy     IntAcc      ...  4.670
Radial Grid Type                 RadialGrid  ... Gauss-Chebyshev
Angular Grid (max. acc.)         AngularGrid ... Lebedev-302
Angular grid pruning method      GridPruning ... 3 (G Style)
Weight generation scheme         WeightScheme... Becke
Basis function cutoff            BFCut       ...    1.0000e-10
Integration weight cutoff        WCut        ...    1.0000e-14
Grids for H and He will be reduced by one unit

# of grid points (after initial pruning)     ...  16394 (   0.0 sec)
# of grid points (after weights+screening)   ...  16294 (   0.0 sec)
nearest neighbour list constructed           ...    0.0 sec
Grid point re-assignment to atoms done       ...    0.0 sec
Grid point division into batches done        ...    0.0 sec
Reduced shell lists constructed in    0.1 sec

Total number of grid points                  ...    16294
Total number of batches                      ...      257
Average number of points per batch           ...       63
Average number of grid points per atom       ...     4074
Average number of shells per batch           ...     9.61 (80.10%)
Average number of basis functions per batch  ...    16.36 (81.78%)
Average number of large shells per batch     ...     7.90 (82.22%)
Average number of large basis fcns per batch ...    13.66 (83.53%)
Maximum spatial batch extension              ...  17.96, 16.88, 16.88 au
Average spatial batch extension              ...   3.37,  3.34,  3.18 au

Final grid set up in    0.1 sec
Final integration                            ... done (   0.1 sec)
Change in XC energy                          ...    -0.000087129
Integrated number of electrons               ...     9.999998673
Previous integrated no of electrons          ...    10.000341625

----------------
TOTAL SCF ENERGY
----------------

Total Energy       :          -55.93319157 Eh           -1522.01952 eV

Components:
Nuclear Repulsion  :            5.30996833 Eh             144.49158 eV
Electronic Energy  :          -61.24315990 Eh           -1666.51110 eV
One Electron Energy:          -86.08600590 Eh           -2342.51931 eV
Two Electron Energy:           24.84284600 Eh             676.00821 eV

Virial components:
Potential Energy   :         -110.82325122 Eh           -3015.65398 eV
Kinetic Energy     :           54.89005965 Eh            1493.63446 eV
Virial Ratio       :            2.01900402


DFT components:
N(Alpha)           :        4.999999336557 electrons
N(Beta)            :        4.999999336557 electrons
N(Total)           :        9.999998673113 electrons
E(XC)              :       -4.945243231866 Eh       

---------------
SCF CONVERGENCE
---------------

  Last Energy change         ...   -1.6937e-08  Tolerance :   1.0000e-06
  Last MAX-Density change    ...    7.1367e-05  Tolerance :   1.0000e-05
  Last RMS-Density change    ...    8.3027e-06  Tolerance :   1.0000e-06
  Last DIIS Error            ...    3.5520e-05  Tolerance :   1.0000e-06

             **** THE GBW FILE WAS UPDATED (Scan_19.gbw) ****
             **** DENSITY FILE WAS UPDATED (Scan_19.scfp.tmp) ****
             **** ENERGY FILE WAS UPDATED (Scan_19.en.tmp) ****
----------------
ORBITAL ENERGIES
----------------

  NO   OCC          E(Eh)            E(eV) 
   0   2.0000     -14.599248      -397.2657 
   1   2.0000      -0.836539       -22.7634 
   2   2.0000      -0.374068       -10.1789 
   3   2.0000      -0.369094       -10.0436 
   4   2.0000      -0.368811       -10.0359 
   5   0.0000      -0.086589        -2.3562 
   6   0.0000      -0.086231        -2.3465 
   7   0.0000      -0.084457        -2.2982 
   8   0.0000       0.770513        20.9667 
   9   0.0000       0.795441        21.6450 
  10   0.0000       0.795899        21.6575 
  11   0.0000       0.801431        21.8081 
  12   0.0000       0.932444        25.3731 
  13   0.0000       0.932802        25.3828 
  14   0.0000       1.011034        27.5116 
  15   0.0000       1.807021        49.1715 
  16   0.0000       1.811509        49.2937 
  17   0.0000       1.812503        49.3207 
  18   0.0000       1.827883        49.7392 
  19   0.0000       1.829375        49.7798 

                    ********************************
                    * MULLIKEN POPULATION ANALYSIS *
                    ********************************

-----------------------
MULLIKEN ATOMIC CHARGES
-----------------------
   0 N :   -0.131165
   1 H :    0.043624
   2 H :    0.044039
   3 H :    0.043502
Sum of atomic charges:   -0.0000000

--------------------------------
MULLIKEN REDUCED ORBITAL CHARGES
--------------------------------
  0 N s       :     3.992873  s :     3.992873
      pz      :     1.124410  p :     3.136685
      px      :     1.104616
      py      :     0.907659
      dz2     :     0.000196  d :     0.001606
      dxz     :     0.000026
      dyz     :     0.000692
      dx2y2   :     0.000460
      dxy     :     0.000233
  1 H s       :     0.956376  s :     0.956376
  2 H s       :     0.955961  s :     0.955961
  3 H s       :     0.956498  s :     0.956498


                     *******************************
                     * LOEWDIN POPULATION ANALYSIS *
                     *******************************

----------------------
LOEWDIN ATOMIC CHARGES
----------------------
   0 N :   -0.170649
   1 H :    0.056747
   2 H :    0.057243
   3 H :    0.056658

-------------------------------
LOEWDIN REDUCED ORBITAL CHARGES
-------------------------------
  0 N s       :     3.984670  s :     3.984670
      pz      :     1.138585  p :     3.183801
      px      :     1.119139
      py      :     0.926077
      dz2     :     0.000275  d :     0.002178
      dxz     :     0.000040
      dyz     :     0.000940
      dx2y2   :     0.000622
      dxy     :     0.000301
  1 H s       :     0.943253  s :     0.943253
  2 H s       :     0.942757  s :     0.942757
  3 H s       :     0.943342  s :     0.943342


                      *****************************
                      * MAYER POPULATION ANALYSIS *
                      *****************************

  NA   - Mulliken gross atomic population
  ZA   - Total nuclear charge
  QA   - Mulliken gross atomic charge
  VA   - Mayer's total valence
  BVA  - Mayer's bonded valence
  FA   - Mayer's free valence

  ATOM       NA         ZA         QA         VA         BVA        FA
  0 N      7.1312     7.0000    -0.1312     2.9423     2.9423     0.0000
  1 H      0.9564     1.0000     0.0436     0.9973     0.9973     0.0000
  2 H      0.9560     1.0000     0.0440     0.9972     0.9972     0.0000
  3 H      0.9565     1.0000     0.0435     0.9973     0.9973    -0.0000

  Mayer bond orders larger than 0.1
B(  0-N ,  1-H ) :   0.9802 B(  0-N ,  2-H ) :   0.9810 B(  0-N ,  3-H ) :   0.9811 


-------
TIMINGS
-------

Total SCF time: 0 days 0 hours 0 min 3 sec 

Total time                  ....       3.908 sec
Sum of individual times     ....       3.768 sec  ( 96.4%)

Fock matrix formation       ....       3.493 sec  ( 89.4%)
  XC integration            ....       0.995 sec  ( 28.5% of F)
    Basis function eval.    ....       0.175 sec  ( 17.6% of XC)
    Density eval.           ....       0.028 sec  (  2.8% of XC)
    XC-Functional eval.     ....       0.207 sec  ( 20.8% of XC)
    XC-Potential eval.      ....       0.014 sec  (  1.4% of XC)
Diagonalization             ....       0.006 sec  (  0.1%)
Density matrix formation    ....       0.000 sec  (  0.0%)
Population analysis         ....       0.023 sec  (  0.6%)
Initial guess               ....       0.113 sec  (  2.9%)
Orbital Transformation      ....       0.000 sec  (  0.0%)
Orbital Orthonormalization  ....       0.000 sec  (  0.0%)
DIIS solution               ....       0.000 sec  (  0.0%)
Grid generation             ....       0.133 sec  (  3.4%)


-------------------------------------------------------------------------------
                          DFT DISPERSION CORRECTION                            
                                                                               
                              DFTD3 V3.1  Rev 1                                
                              USING zero damping                               
-------------------------------------------------------------------------------
The omegaB97X-D3 functional is recognized. Fit by Chai et al.
Active option DFTDOPT                   ...         3   

molecular C6(AA) [au] = 171.722582 


            DFT-D V3
 parameters
 s6 scaling factor         :     1.0000 
 rs6 scaling factor        :     1.2810 
 s8 scaling factor         :     1.0000 
 rs8 scaling factor        :     1.0940 
 Damping factor alpha6     :    14.0000 
 Damping factor alpha8     :    16.0000 
 ad hoc parameters k1-k3   :    16.0000     1.3333    -4.0000 

 Edisp/kcal,au: -0.347850443662  -0.000554334908 
 E6   /kcal   :  -0.157972425 
 E8   /kcal   :  -0.189878018 
 % E8         :  54.586107862 

-------------------------   ----------------
Dispersion correction           -0.000554335
-------------------------   ----------------


-------------------------   --------------------
FINAL SINGLE POINT ENERGY       -55.933745902736
-------------------------   --------------------


                            ***************************************
                            *     ORCA property calculations      *
                            ***************************************

                                    ---------------------
                                    Active property flags
                                    ---------------------
   (+) Dipole Moment


------------------------------------------------------------------------------
                       ORCA ELECTRIC PROPERTIES CALCULATION
------------------------------------------------------------------------------

Dipole Moment Calculation                       ... on
Quadrupole Moment Calculation                   ... off
Polarizability Calculation                      ... off
GBWName                                         ... Scan_19.gbw
Electron density file                           ... Scan_19.scfp.tmp

-------------
DIPOLE MOMENT
-------------
                                X             Y             Z
Electronic contribution:     -0.96083      -2.68372       0.40773
Nuclear contribution   :      1.12346       3.14136      -0.47898
                        -----------------------------------------
Total Dipole Moment    :      0.16263       0.45764      -0.07125
                        -----------------------------------------
Magnitude (a.u.)       :      0.49087
Magnitude (Debye)      :      1.24770


Timings for individual modules:

Sum of individual times         ...        4.240 sec (=   0.071 min)
GTO integral calculation        ...        0.308 sec (=   0.005 min)   7.3 %
SCF iterations                  ...        3.932 sec (=   0.066 min)  92.7 %
                             ****ORCA TERMINATED NORMALLY****
TOTAL RUN TIME: 0 days 0 hours 0 minutes 4 seconds 569 msec
