
                                 *****************
                                 * O   R   C   A *
                                 *****************

           --- An Ab Initio, DFT and Semiempirical electronic structure package ---

                  #######################################################
                  #                        -***-                        #
                  #  Department of molecular theory and spectroscopy    #
                  #              Directorship: Frank Neese              #
                  # Max Planck Institute for Chemical Energy Conversion #
                  #                  D-45470 Muelheim/Ruhr              #
                  #                       Germany                       #
                  #                                                     #
                  #                  All rights reserved                #
                  #                        -***-                        #
                  #######################################################


                         Program Version 4.0.0.2 - RELEASE -


 With contributions from (in alphabetic order):
   Daniel Aravena         : Magnetic Properties
   Michael Atanasov       : Ab Initio Ligand Field Theory
   Ute Becker             : Parallelization
   Martin Brehm           : Molecular dynamics
   Dmytro Bykov           : SCF Hessian
   Vijay G. Chilkuri      : MRCI spin determinant printing
   Dipayan Datta          : RHF DLPNO-CCSD density
   Achintya Kumar Dutta   : EOM-CC, STEOM-CC
   Dmitry Ganyushin       : Spin-Orbit,Spin-Spin,Magnetic field MRCI
   Yang Guo               : DLPNO-NEVPT2, CIM, IAO-localization
   Andreas Hansen         : Spin unrestricted coupled pair/coupled cluster methods
   Lee Huntington         : MR-EOM, pCC
   Robert Izsak           : Overlap fitted RIJCOSX, COSX-SCS-MP3, EOM
   Christian Kollmar      : KDIIS, OOCD, Brueckner-CCSD(T), CCSD density
   Simone Kossmann        : Meta GGA functionals, TD-DFT gradient, OOMP2, MP2 Hessian
   Martin Krupicka        : AUTO-CI
   Dagmar Lenk            : GEPOL surface
   Dimitrios Liakos       : Extrapolation schemes; parallel MDCI
   Dimitrios Manganas     : ROCIS; embedding schemes
   Dimitrios Pantazis     : SARC Basis sets
   Taras Petrenko         : DFT Hessian,TD-DFT gradient, ASA, ECA, R-Raman, ABS, FL, XAS/XES, NRVS
   Peter Pinski           : DLPNO-MP2
   Christoph Reimann      : Effective Core Potentials
   Marius Retegan         : Local ZFS, SOC
   Christoph Riplinger    : Optimizer, TS searches, QM/MM, DLPNO-CCSD(T), (RO)-DLPNO pert. Triples
   Tobias Risthaus        : Range-separated hybrids, TD-DFT gradient, RPA, STAB
   Michael Roemelt        : Restricted open shell CIS
   Masaaki Saitow         : Open-shell DLPNO
   Barbara Sandhoefer     : DKH picture change effects
   Kantharuban Sivalingam : CASSCF convergence, NEVPT2, FIC-MRCI
   Georgi Stoychev        : AutoAux
   Boris Wezisla          : Elementary symmetry handling
   Frank Wennmohs         : Technical directorship


 We gratefully acknowledge several colleagues who have allowed us to
 interface, adapt or use parts of their codes:
   Stefan Grimme, W. Hujo, H. Kruse,             : VdW corrections, initial TS optimization,
                  C. Bannwarth                     DFT functionals, gCP, sTDA/sTD-DF
   Ed Valeev                                     : LibInt (2-el integral package), F12 methods
   Garnet Chan, S. Sharma, J. Yang, R. Olivares  : DMRG
   Ulf Ekstrom                                   : XCFun DFT Library
   Mihaly Kallay                                 : mrcc  (arbitrary order and MRCC methods)
   Jiri Pittner, Ondrej Demel                    : Mk-CCSD
   Frank Weinhold                                : gennbo (NPA and NBO analysis)
   Christopher J. Cramer and Donald G. Truhlar   : smd solvation model


 Your calculation uses the libint2 library for the computation of 2-el integrals
 For citations please refer to: http://libint.valeyev.net

 This ORCA versions uses:
   CBLAS   interface :  Fast vector & matrix operations
   LAPACKE interface :  Fast linear algebra routines
   SCALAPACK package :  Parallel linear algebra routines


Your calculation utilizes the atom-pairwise dispersion correction
with the zero-damping scheme (D30)
Cite in your paper:
S.Grimme, J.Antony, S.Ehrlich and H.Krieg, J.Chem.Phys., 132, (2010), 154104 
   

XCFun DFT library Copyright 2009-2010 Ulf Ekstrom and contributors.
See http://admol.org/xcfun for more information. This is free soft-
ware; see the source code for copying conditions. There is ABSOLUTELY
NO WARRANTY; not even for MERCHANTABILITY or FITNESS FOR A PARTICULAR
PURPOSE. For details see the documentation. Scientific users of this 
library should cite U. Ekstrom, L. Visscher, R. Bast, A. J. Thorvald-
sen and K. Ruud; J.Chem.Theor.Comp. 2010, DOI: 10.1021/ct100117s
XCFun Version 0.99 
Your calculation utilizes the basis: 6-31G(d)
   H-He, Li-Ne : W. J. Hehre, R. Ditchfield and J.A. Pople, J. Chem. Phys. 56, 2257 (1972).
                 Note: He and Ne are unpublished basis sets taken from the Gaussian program.
                 Note: Li and B from J. D. Dill and J. A. Pople, J. Chem. Phys. 62, 2921 (1975).
   Na - Ar     : M. M. Francl, W. J. Pietro, W. J. Hehre, J. S. Binkley, M. S. Gordon, 
                 D. J. DeFrees and J. A. Pople, J. Chem. Phys. 77, 3654 (1982).
   K - Zn      : V. A. Rassolov, J. A. Pople, M. A. Ratner, and T. L. Windus, J. Chem. Phys. 109, 1223 (1998).

================================================================================
                                        WARNINGS
                       Please study these warnings very carefully!
================================================================================

Warning: TCutStore was < 0. Adjusted to Thresh (uncritical)

INFO   : the flag for use of LIBINT has been found!

================================================================================
                                       INPUT FILE
================================================================================
NAME = initial20.inp
|  1> ! WB97X-D3 6-31G(d) VerySlowConv
|  2> ! KDIIS NOSOSCF
|  3> %base "Scan_20"
|  4> 
|  5> %scf
|  6> maxiter 999
|  7> end
|  8> 
|  9> * xyz 0 1
| 10> N         -0.436487123091   -0.304162857450    0.383209835833
| 11> H          0.937990839154    1.396214409447   -0.713095029982
| 12> H          0.250425683951    1.953034386977   -0.208427125170
| 13> H         -0.550079400014    2.139134061027    0.393352319319
| 14> **                         ****END OF INPUT****
================================================================================

                       ****************************
                       * Single Point Calculation *
                       ****************************

---------------------------------
CARTESIAN COORDINATES (ANGSTROEM)
---------------------------------
  N     -0.436487   -0.304163    0.383210
  H      0.937991    1.396214   -0.713095
  H      0.250426    1.953034   -0.208427
  H     -0.550079    2.139134    0.393352

----------------------------
CARTESIAN COORDINATES (A.U.)
----------------------------
  NO LB      ZA    FRAG     MASS         X           Y           Z
   0 N     7.0000    0    14.007   -0.824841   -0.574785    0.724162
   1 H     1.0000    0     1.008    1.772546    2.638463   -1.347554
   2 H     1.0000    0     1.008    0.473236    3.690700   -0.393870
   3 H     1.0000    0     1.008   -1.039499    4.042378    0.743328

--------------------------------
INTERNAL COORDINATES (ANGSTROEM)
--------------------------------
 N      0   0   0     0.000000000000     0.00000000     0.00000000
 H      1   0   0     2.445885704052     0.00000000     0.00000000
 H      2   1   0     1.018569597118    77.21027875     0.00000000
 H      3   2   1     1.018616698246   157.38018443     0.00000000

---------------------------
INTERNAL COORDINATES (A.U.)
---------------------------
 N      0   0   0     0.000000000000     0.00000000     0.00000000
 H      1   0   0     4.622054135532     0.00000000     0.00000000
 H      2   1   0     1.924817586892    77.21027875     0.00000000
 H      3   2   1     1.924906595123   157.38018443     0.00000000

---------------------
BASIS SET INFORMATION
---------------------
There are 2 groups of distinct atoms

 Group   1 Type N   : 10s4p1d contracted to 3s2p1d pattern {631/31/1}
 Group   2 Type H   : 4s contracted to 2s pattern {31}

Atom   0N    basis set group =>   1
Atom   1H    basis set group =>   2
Atom   2H    basis set group =>   2
Atom   3H    basis set group =>   2
------------------------------------------------------------------------------
                           ORCA GTO INTEGRAL CALCULATION
------------------------------------------------------------------------------

                         BASIS SET STATISTICS AND STARTUP INFO

 # of primitive gaussian shells          ...   27
 # of primitive gaussian functions       ...   39
 # of contracted shells                  ...   12
 # of contracted basis functions         ...   20
 Highest angular momentum                ...    2
 Maximum contraction depth               ...    6
 Integral package used                   ... LIBINT
 Integral threshhold            Thresh   ...  1.000e-10
 Primitive cut-off              TCut     ...  1.000e-11


------------------------------ INTEGRAL EVALUATION ----------------------------


 * One electron integrals 
 Pre-screening matrix                    ... done
 Shell pair data                         ... done (   0.000 sec)

-------------------------------------------------------------------------------
                                 ORCA SCF
-------------------------------------------------------------------------------

------------
SCF SETTINGS
------------
Hamiltonian:
 Density Functional     Method          .... DFT(GTOs)
 Exchange Functional    Exchange        .... WB97X-D3
 Correlation Functional Correlation     .... WB97X-D3
 Gradients option       PostSCFGGA      .... off
 Hybrid DFT is turned on
   Fraction HF Exchange ScalHFX         ....  0.195728
   Scaling of DF-GGA-X  ScalDFX         ....  0.000000
   Scaling of DF-GGA-C  ScalDFC         ....  1.000000
   Scaling of DF-LDA-C  ScalLDAC        ....  1.000000
   Perturbative correction              ....  0.000000
 Long-range corrected/Screened/Range-Separated Hybrid DFT is turned on
   Amount of maximum screened exact exchange              ....  0.804272
   Range separation parameter mu (erf(mu*r12)/r12)        ....  0.250000


General Settings:
 Integral files         IntName         .... Scan_20
 Hartree-Fock type      HFTyp           .... RHF
 Total Charge           Charge          ....    0
 Multiplicity           Mult            ....    1
 Number of Electrons    NEL             ....   10
 Basis Dimension        Dim             ....   20
 Nuclear Repulsion      ENuc            ....      5.8556928253 Eh

Convergence Acceleration:
 DIIS                   CNVDIIS         .... on
   Start iteration      DIISMaxIt       ....     0
   Startup error        DIISStart       ....  0.200000
   # of expansion vecs  DIISMaxEq       ....     5
   Bias factor          DIISBfac        ....   1.050
   Max. coefficient     DIISMaxC        ....  10.000
 Newton-Raphson         CNVNR           .... off
 SOSCF                  CNVSOSCF        .... off
 Level Shifting         CNVShift        .... off
 Zerner damping         CNVZerner       .... off
 Static damping         CNVDamp         .... off
 Fernandez-Rico         CNVRico         .... off

SCF Procedure:
 Maximum # iterations   MaxIter         ....   999
 SCF integral mode      SCFMode         .... Direct
   Integral package                     .... LIBINT
 Reset frequeny         DirectResetFreq ....    20
 Integral Threshold     Thresh          ....  1.000e-10 Eh
 Primitive CutOff       TCut            ....  1.000e-11 Eh

Convergence Tolerance:
 Convergence Check Mode ConvCheckMode   .... All-Criteria
 Convergence forced     ConvForced      .... 0
 Energy Change          TolE            ....  1.000e-06 Eh
 Max Density Change     TolMaxP         ....  1.000e-05
 RMS Density Change     TolRMSP         ....  1.000e-06
 DIIS Error             TolErr          ....  1.000e-06


Diagonalization of the overlap matrix:
Smallest eigenvalue                        ... 6.452e-02
Time for diagonalization                   ...    0.000 sec
Threshold for overlap eigenvalues          ... 1.000e-08
Number of eigenvalues below threshold      ... 0
Time for construction of square roots      ...    0.004 sec
Total time needed                          ...    0.005 sec

-------------------
DFT GRID GENERATION
-------------------

General Integration Accuracy     IntAcc      ...  4.340
Radial Grid Type                 RadialGrid  ... Gauss-Chebyshev
Angular Grid (max. acc.)         AngularGrid ... Lebedev-110
Angular grid pruning method      GridPruning ... 3 (G Style)
Weight generation scheme         WeightScheme... Becke
Basis function cutoff            BFCut       ...    1.0000e-10
Integration weight cutoff        WCut        ...    1.0000e-14
Grids for H and He will be reduced by one unit

# of grid points (after initial pruning)     ...   4084 (   0.0 sec)
# of grid points (after weights+screening)   ...   4028 (   0.0 sec)
nearest neighbour list constructed           ...    0.0 sec
Grid point re-assignment to atoms done       ...    0.0 sec
Grid point division into batches done        ...    0.0 sec
Reduced shell lists constructed in    0.0 sec

Total number of grid points                  ...     4028
Total number of batches                      ...       65
Average number of points per batch           ...       61
Average number of grid points per atom       ...     1007
Average number of shells per batch           ...    10.67 (88.89%)
Average number of basis functions per batch  ...    18.15 (90.76%)
Average number of large shells per batch     ...     9.47 (88.78%)
Average number of large basis fcns per batch ...    15.65 (86.23%)
Maximum spatial batch extension              ...  19.07, 22.50, 25.65 au
Average spatial batch extension              ...   5.18,  5.12,  5.66 au

Time for grid setup =    0.024 sec

------------------------------
INITIAL GUESS: MODEL POTENTIAL
------------------------------
Loading Hartree-Fock densities                     ... done
Calculating cut-offs                               ... done
Setting up the integral package                    ... done
Initializing the effective Hamiltonian             ... done
Starting the Coulomb interaction                   ... done (   0.0 sec)
Reading the grid                                   ... done
Mapping shells                                     ... done
Starting the XC term evaluation                    ... done (   0.0 sec)
  promolecular density results
     # of electrons  =      9.996341889
     EX              =     -7.187959760
     EC              =     -0.267717277
     EX+EC           =     -7.455677036
Transforming the Hamiltonian                       ... done (   0.0 sec)
Diagonalizing the Hamiltonian                      ... done (   0.0 sec)
Back transforming the eigenvectors                 ... done (   0.0 sec)
Now organizing SCF variables                       ... done
                      ------------------
                      INITIAL GUESS DONE (   0.1 sec)
                      ------------------
--------------
SCF ITERATIONS
--------------
ITER       Energy         Delta-E        Max-DP      RMS-DP      [F,P]   Gradient Norm
               ***  Starting incremental Fock matrix formation  ***
                             ****Resetting KDIIS****
                             ****Turning on KDIIS(Cayley)****
  0    -55.9954823889   0.000000000000 0.02353809  0.00249700  0.1186371   0.083399332
  1    -56.0110866902  -0.015604301226 0.03239028  0.00453064  0.1071442   0.069892565
  2    -56.0358665399  -0.024779849732 0.08605546  0.01170119  0.0836759   0.050203202
  3    -56.0658603596  -0.029993819662 0.03509197  0.00396409  0.0148763   0.010923753
  4    -56.0673525238  -0.001492164264 0.00689993  0.00080222  0.0013365   0.001199273
  5    -56.0673372518   0.000015271973 0.00268561  0.00036604  0.0026363   0.001222161
  6    -56.0673668007  -0.000029548815 0.00119143  0.00021434  0.0009081   0.000443445
  7    -56.0673729786  -0.000006177897 0.00155358  0.00024992  0.0003437   0.000191036
  8    -56.0673759984  -0.000003019861 0.00215896  0.00034149  0.0001557   0.000099134
  9    -56.0673778983  -0.000001899845 0.00056851  0.00009041  0.0000369   0.000039664
                          ***Energy convergence achieved***
 10    -56.0673780040  -0.000000105758 0.00004263  0.00000449  0.0000102   0.000008083

            ***Energy convergence in two consecutive cycles with***
                    ***'reasonable' density convergence***
                       *** signaling convergence ***

                    *** KDIIS BlockDiag ( 0.000 sec) ***

               *****************************************************
               *                     SUCCESS                       *
               *           SCF CONVERGED AFTER  11 CYCLES          *
               *****************************************************

Setting up the final grid:

General Integration Accuracy     IntAcc      ...  4.670
Radial Grid Type                 RadialGrid  ... Gauss-Chebyshev
Angular Grid (max. acc.)         AngularGrid ... Lebedev-302
Angular grid pruning method      GridPruning ... 3 (G Style)
Weight generation scheme         WeightScheme... Becke
Basis function cutoff            BFCut       ...    1.0000e-10
Integration weight cutoff        WCut        ...    1.0000e-14
Grids for H and He will be reduced by one unit

# of grid points (after initial pruning)     ...  16394 (   0.0 sec)
# of grid points (after weights+screening)   ...  16222 (   0.0 sec)
nearest neighbour list constructed           ...    0.0 sec
Grid point re-assignment to atoms done       ...    0.0 sec
Grid point division into batches done        ...    0.0 sec
Reduced shell lists constructed in    0.1 sec

Total number of grid points                  ...    16222
Total number of batches                      ...      255
Average number of points per batch           ...       63
Average number of grid points per atom       ...     4056
Average number of shells per batch           ...     9.81 (81.77%)
Average number of basis functions per batch  ...    16.53 (82.66%)
Average number of large shells per batch     ...     8.36 (85.15%)
Average number of large basis fcns per batch ...    13.64 (82.54%)
Maximum spatial batch extension              ...  16.88, 15.98, 15.31 au
Average spatial batch extension              ...   3.26,  3.26,  3.28 au

Final grid set up in    0.1 sec
Final integration                            ... done (   0.1 sec)
Change in XC energy                          ...    -0.000318990
Integrated number of electrons               ...     9.999992498
Previous integrated no of electrons          ...     9.999251711

----------------
TOTAL SCF ENERGY
----------------

Total Energy       :          -56.06769700 Eh           -1525.67960 eV

Components:
Nuclear Repulsion  :            5.85569283 Eh             159.34150 eV
Electronic Energy  :          -61.92338982 Eh           -1685.02110 eV
One Electron Energy:          -87.08284835 Eh           -2369.64477 eV
Two Electron Energy:           25.15945853 Eh             684.62367 eV

Virial components:
Potential Energy   :         -111.49740060 Eh           -3033.99852 eV
Kinetic Energy     :           55.42970360 Eh            1508.31892 eV
Virial Ratio       :            2.01150996


DFT components:
N(Alpha)           :        4.999996249129 electrons
N(Beta)            :        4.999996249129 electrons
N(Total)           :        9.999992498259 electrons
E(XC)              :       -5.112164667443 Eh       

---------------
SCF CONVERGENCE
---------------

  Last Energy change         ...   -2.2887e-09  Tolerance :   1.0000e-06
  Last MAX-Density change    ...    3.3896e-05  Tolerance :   1.0000e-05
  Last RMS-Density change    ...    3.9047e-06  Tolerance :   1.0000e-06
  Last DIIS Error            ...    9.9027e-06  Tolerance :   1.0000e-06

             **** THE GBW FILE WAS UPDATED (Scan_20.gbw) ****
             **** DENSITY FILE WAS UPDATED (Scan_20.scfp.tmp) ****
             **** ENERGY FILE WAS UPDATED (Scan_20.en.tmp) ****
----------------
ORBITAL ENERGIES
----------------

  NO   OCC          E(Eh)            E(eV) 
   0   2.0000     -14.560858      -396.2211 
   1   2.0000      -0.821438       -22.3525 
   2   2.0000      -0.595384       -16.2012 
   3   2.0000      -0.353205        -9.6112 
   4   2.0000      -0.341388        -9.2896 
   5   0.0000      -0.104023        -2.8306 
   6   0.0000      -0.077445        -2.1074 
   7   0.0000       0.192316         5.2332 
   8   0.0000       0.762561        20.7503 
   9   0.0000       0.770083        20.9550 
  10   0.0000       0.788353        21.4522 
  11   0.0000       0.812111        22.0987 
  12   0.0000       0.910910        24.7871 
  13   0.0000       0.955932        26.0122 
  14   0.0000       1.034074        28.1386 
  15   0.0000       1.809002        49.2254 
  16   0.0000       1.810035        49.2536 
  17   0.0000       1.814515        49.3755 
  18   0.0000       1.833851        49.9016 
  19   0.0000       1.841897        50.1206 

                    ********************************
                    * MULLIKEN POPULATION ANALYSIS *
                    ********************************

-----------------------
MULLIKEN ATOMIC CHARGES
-----------------------
   0 N :   -0.105010
   1 H :    0.090604
   2 H :   -0.075972
   3 H :    0.090378
Sum of atomic charges:   -0.0000000

--------------------------------
MULLIKEN REDUCED ORBITAL CHARGES
--------------------------------
  0 N s       :     3.999429  s :     3.999429
      pz      :     1.602115  p :     3.104982
      px      :     1.333099
      py      :     0.169768
      dz2     :     0.000087  d :     0.000599
      dxz     :     0.000117
      dyz     :     0.000074
      dx2y2   :     0.000196
      dxy     :     0.000126
  1 H s       :     0.909396  s :     0.909396
  2 H s       :     1.075972  s :     1.075972
  3 H s       :     0.909622  s :     0.909622


                     *******************************
                     * LOEWDIN POPULATION ANALYSIS *
                     *******************************

----------------------
LOEWDIN ATOMIC CHARGES
----------------------
   0 N :   -0.122639
   1 H :    0.052654
   2 H :    0.017692
   3 H :    0.052293

-------------------------------
LOEWDIN REDUCED ORBITAL CHARGES
-------------------------------
  0 N s       :     3.995340  s :     3.995340
      pz      :     1.606931  p :     3.126397
      px      :     1.341598
      py      :     0.177869
      dz2     :     0.000109  d :     0.000902
      dxz     :     0.000139
      dyz     :     0.000128
      dx2y2   :     0.000302
      dxy     :     0.000224
  1 H s       :     0.947346  s :     0.947346
  2 H s       :     0.982308  s :     0.982308
  3 H s       :     0.947707  s :     0.947707


                      *****************************
                      * MAYER POPULATION ANALYSIS *
                      *****************************

  NA   - Mulliken gross atomic population
  ZA   - Total nuclear charge
  QA   - Mulliken gross atomic charge
  VA   - Mayer's total valence
  BVA  - Mayer's bonded valence
  FA   - Mayer's free valence

  ATOM       NA         ZA         QA         VA         BVA        FA
  0 N      7.1050     7.0000    -0.1050     1.0443     1.0443    -0.0000
  1 H      0.9094     1.0000     0.0906     0.9601     0.9601    -0.0000
  2 H      1.0760     1.0000    -0.0760     0.9916     0.9916    -0.0000
  3 H      0.9096     1.0000     0.0904     0.9601     0.9601     0.0000

  Mayer bond orders larger than 0.1
B(  0-N ,  1-H ) :   0.5100 B(  0-N ,  3-H ) :   0.5091 B(  1-H ,  2-H ) :   0.4828 
B(  2-H ,  3-H ) :   0.4836 

-------
TIMINGS
-------

Total SCF time: 0 days 0 hours 0 min 3 sec 

Total time                  ....       3.428 sec
Sum of individual times     ....       3.312 sec  ( 96.6%)

Fock matrix formation       ....       3.048 sec  ( 88.9%)
  XC integration            ....       0.623 sec  ( 20.4% of F)
    Basis function eval.    ....       0.171 sec  ( 27.5% of XC)
    Density eval.           ....       0.027 sec  (  4.4% of XC)
    XC-Functional eval.     ....       0.197 sec  ( 31.7% of XC)
    XC-Potential eval.      ....       0.014 sec  (  2.2% of XC)
Diagonalization             ....       0.007 sec  (  0.2%)
Density matrix formation    ....       0.000 sec  (  0.0%)
Population analysis         ....       0.008 sec  (  0.2%)
Initial guess               ....       0.112 sec  (  3.3%)
Orbital Transformation      ....       0.000 sec  (  0.0%)
Orbital Orthonormalization  ....       0.000 sec  (  0.0%)
DIIS solution               ....       0.000 sec  (  0.0%)
Grid generation             ....       0.136 sec  (  4.0%)


-------------------------------------------------------------------------------
                          DFT DISPERSION CORRECTION                            
                                                                               
                              DFTD3 V3.1  Rev 1                                
                              USING zero damping                               
-------------------------------------------------------------------------------
The omegaB97X-D3 functional is recognized. Fit by Chai et al.
Active option DFTDOPT                   ...         3   

molecular C6(AA) [au] = 169.122382 


            DFT-D V3
 parameters
 s6 scaling factor         :     1.0000 
 rs6 scaling factor        :     1.2810 
 s8 scaling factor         :     1.0000 
 rs8 scaling factor        :     1.0940 
 Damping factor alpha6     :    14.0000 
 Damping factor alpha8     :    16.0000 
 ad hoc parameters k1-k3   :    16.0000     1.3333    -4.0000 

 Edisp/kcal,au: -0.156372061862  -0.000249194716 
 E6   /kcal   :  -0.022907930 
 E8   /kcal   :  -0.133464132 
 % E8         :  85.350368859 

-------------------------   ----------------
Dispersion correction           -0.000249195
-------------------------   ----------------


-------------------------   --------------------
FINAL SINGLE POINT ENERGY       -56.067946190772
-------------------------   --------------------


                            ***************************************
                            *     ORCA property calculations      *
                            ***************************************

                                    ---------------------
                                    Active property flags
                                    ---------------------
   (+) Dipole Moment


------------------------------------------------------------------------------
                       ORCA ELECTRIC PROPERTIES CALCULATION
------------------------------------------------------------------------------

Dipole Moment Calculation                       ... on
Quadrupole Moment Calculation                   ... off
Polarizability Calculation                      ... off
GBWName                                         ... Scan_20.gbw
Electron density file                           ... Scan_20.scfp.tmp

-------------
DIPOLE MOMENT
-------------
                                X             Y             Z
Electronic contribution:     -1.37301      -4.51219       1.18260
Nuclear contribution   :      1.50228       4.93680      -1.29404
                        -----------------------------------------
Total Dipole Moment    :      0.12927       0.42460      -0.11144
                        -----------------------------------------
Magnitude (a.u.)       :      0.45762
Magnitude (Debye)      :      1.16318


Timings for individual modules:

Sum of individual times         ...        3.753 sec (=   0.063 min)
GTO integral calculation        ...        0.302 sec (=   0.005 min)   8.0 %
SCF iterations                  ...        3.451 sec (=   0.058 min)  92.0 %
                             ****ORCA TERMINATED NORMALLY****
TOTAL RUN TIME: 0 days 0 hours 0 minutes 4 seconds 77 msec
