
                                 *****************
                                 * O   R   C   A *
                                 *****************

           --- An Ab Initio, DFT and Semiempirical electronic structure package ---

                  #######################################################
                  #                        -***-                        #
                  #  Department of molecular theory and spectroscopy    #
                  #              Directorship: Frank Neese              #
                  # Max Planck Institute for Chemical Energy Conversion #
                  #                  D-45470 Muelheim/Ruhr              #
                  #                       Germany                       #
                  #                                                     #
                  #                  All rights reserved                #
                  #                        -***-                        #
                  #######################################################


                         Program Version 4.0.0.2 - RELEASE -


 With contributions from (in alphabetic order):
   Daniel Aravena         : Magnetic Properties
   Michael Atanasov       : Ab Initio Ligand Field Theory
   Ute Becker             : Parallelization
   Martin Brehm           : Molecular dynamics
   Dmytro Bykov           : SCF Hessian
   Vijay G. Chilkuri      : MRCI spin determinant printing
   Dipayan Datta          : RHF DLPNO-CCSD density
   Achintya Kumar Dutta   : EOM-CC, STEOM-CC
   Dmitry Ganyushin       : Spin-Orbit,Spin-Spin,Magnetic field MRCI
   Yang Guo               : DLPNO-NEVPT2, CIM, IAO-localization
   Andreas Hansen         : Spin unrestricted coupled pair/coupled cluster methods
   Lee Huntington         : MR-EOM, pCC
   Robert Izsak           : Overlap fitted RIJCOSX, COSX-SCS-MP3, EOM
   Christian Kollmar      : KDIIS, OOCD, Brueckner-CCSD(T), CCSD density
   Simone Kossmann        : Meta GGA functionals, TD-DFT gradient, OOMP2, MP2 Hessian
   Martin Krupicka        : AUTO-CI
   Dagmar Lenk            : GEPOL surface
   Dimitrios Liakos       : Extrapolation schemes; parallel MDCI
   Dimitrios Manganas     : ROCIS; embedding schemes
   Dimitrios Pantazis     : SARC Basis sets
   Taras Petrenko         : DFT Hessian,TD-DFT gradient, ASA, ECA, R-Raman, ABS, FL, XAS/XES, NRVS
   Peter Pinski           : DLPNO-MP2
   Christoph Reimann      : Effective Core Potentials
   Marius Retegan         : Local ZFS, SOC
   Christoph Riplinger    : Optimizer, TS searches, QM/MM, DLPNO-CCSD(T), (RO)-DLPNO pert. Triples
   Tobias Risthaus        : Range-separated hybrids, TD-DFT gradient, RPA, STAB
   Michael Roemelt        : Restricted open shell CIS
   Masaaki Saitow         : Open-shell DLPNO
   Barbara Sandhoefer     : DKH picture change effects
   Kantharuban Sivalingam : CASSCF convergence, NEVPT2, FIC-MRCI
   Georgi Stoychev        : AutoAux
   Boris Wezisla          : Elementary symmetry handling
   Frank Wennmohs         : Technical directorship


 We gratefully acknowledge several colleagues who have allowed us to
 interface, adapt or use parts of their codes:
   Stefan Grimme, W. Hujo, H. Kruse,             : VdW corrections, initial TS optimization,
                  C. Bannwarth                     DFT functionals, gCP, sTDA/sTD-DF
   Ed Valeev                                     : LibInt (2-el integral package), F12 methods
   Garnet Chan, S. Sharma, J. Yang, R. Olivares  : DMRG
   Ulf Ekstrom                                   : XCFun DFT Library
   Mihaly Kallay                                 : mrcc  (arbitrary order and MRCC methods)
   Jiri Pittner, Ondrej Demel                    : Mk-CCSD
   Frank Weinhold                                : gennbo (NPA and NBO analysis)
   Christopher J. Cramer and Donald G. Truhlar   : smd solvation model


 Your calculation uses the libint2 library for the computation of 2-el integrals
 For citations please refer to: http://libint.valeyev.net

 This ORCA versions uses:
   CBLAS   interface :  Fast vector & matrix operations
   LAPACKE interface :  Fast linear algebra routines
   SCALAPACK package :  Parallel linear algebra routines


Your calculation utilizes the atom-pairwise dispersion correction
with the zero-damping scheme (D30)
Cite in your paper:
S.Grimme, J.Antony, S.Ehrlich and H.Krieg, J.Chem.Phys., 132, (2010), 154104 
   

XCFun DFT library Copyright 2009-2010 Ulf Ekstrom and contributors.
See http://admol.org/xcfun for more information. This is free soft-
ware; see the source code for copying conditions. There is ABSOLUTELY
NO WARRANTY; not even for MERCHANTABILITY or FITNESS FOR A PARTICULAR
PURPOSE. For details see the documentation. Scientific users of this 
library should cite U. Ekstrom, L. Visscher, R. Bast, A. J. Thorvald-
sen and K. Ruud; J.Chem.Theor.Comp. 2010, DOI: 10.1021/ct100117s
XCFun Version 0.99 
Your calculation utilizes the basis: 6-31G(d)
   H-He, Li-Ne : W. J. Hehre, R. Ditchfield and J.A. Pople, J. Chem. Phys. 56, 2257 (1972).
                 Note: He and Ne are unpublished basis sets taken from the Gaussian program.
                 Note: Li and B from J. D. Dill and J. A. Pople, J. Chem. Phys. 62, 2921 (1975).
   Na - Ar     : M. M. Francl, W. J. Pietro, W. J. Hehre, J. S. Binkley, M. S. Gordon, 
                 D. J. DeFrees and J. A. Pople, J. Chem. Phys. 77, 3654 (1982).
   K - Zn      : V. A. Rassolov, J. A. Pople, M. A. Ratner, and T. L. Windus, J. Chem. Phys. 109, 1223 (1998).

================================================================================
                                        WARNINGS
                       Please study these warnings very carefully!
================================================================================

Warning: TCutStore was < 0. Adjusted to Thresh (uncritical)

INFO   : the flag for use of LIBINT has been found!

================================================================================
                                       INPUT FILE
================================================================================
NAME = initial21.inp
|  1> ! WB97X-D3 6-31G(d) VerySlowConv
|  2> ! KDIIS NOSOSCF
|  3> %base "Scan_21"
|  4> 
|  5> %scf
|  6> maxiter 999
|  7> end
|  8> 
|  9> * xyz 0 1
| 10> N         -0.459537112198   -0.379812112704    0.403037592995
| 11> H          0.947530427894    1.424175424332   -0.721058998659
| 12> H          0.256053045825    1.971983406227   -0.213560177582
| 13> H         -0.542196361521    2.167873282145    0.386621583245
| 14> **                         ****END OF INPUT****
================================================================================

                       ****************************
                       * Single Point Calculation *
                       ****************************

---------------------------------
CARTESIAN COORDINATES (ANGSTROEM)
---------------------------------
  N     -0.459537   -0.379812    0.403038
  H      0.947530    1.424175   -0.721059
  H      0.256053    1.971983   -0.213560
  H     -0.542196    2.167873    0.386622

----------------------------
CARTESIAN COORDINATES (A.U.)
----------------------------
  NO LB      ZA    FRAG     MASS         X           Y           Z
   0 N     7.0000    0    14.007   -0.868399   -0.717741    0.761631
   1 H     1.0000    0     1.008    1.790573    2.691302   -1.362604
   2 H     1.0000    0     1.008    0.483870    3.726509   -0.403570
   3 H     1.0000    0     1.008   -1.024603    4.096687    0.730609

--------------------------------
INTERNAL COORDINATES (ANGSTROEM)
--------------------------------
 N      0   0   0     0.000000000000     0.00000000     0.00000000
 H      1   0   0     2.549078901001     0.00000000     0.00000000
 H      2   1   0     1.017737494807    77.64278202     0.00000000
 H      3   2   1     1.017739213082   158.52333202     0.07956845

---------------------------
INTERNAL COORDINATES (A.U.)
---------------------------
 N      0   0   0     0.000000000000     0.00000000     0.00000000
 H      1   0   0     4.817061016649     0.00000000     0.00000000
 H      2   1   0     1.923245141408    77.64278202     0.00000000
 H      3   2   1     1.923248388478   158.52333202     0.07956845

---------------------
BASIS SET INFORMATION
---------------------
There are 2 groups of distinct atoms

 Group   1 Type N   : 10s4p1d contracted to 3s2p1d pattern {631/31/1}
 Group   2 Type H   : 4s contracted to 2s pattern {31}

Atom   0N    basis set group =>   1
Atom   1H    basis set group =>   2
Atom   2H    basis set group =>   2
Atom   3H    basis set group =>   2
------------------------------------------------------------------------------
                           ORCA GTO INTEGRAL CALCULATION
------------------------------------------------------------------------------

                         BASIS SET STATISTICS AND STARTUP INFO

 # of primitive gaussian shells          ...   27
 # of primitive gaussian functions       ...   39
 # of contracted shells                  ...   12
 # of contracted basis functions         ...   20
 Highest angular momentum                ...    2
 Maximum contraction depth               ...    6
 Integral package used                   ... LIBINT
 Integral threshhold            Thresh   ...  1.000e-10
 Primitive cut-off              TCut     ...  1.000e-11


------------------------------ INTEGRAL EVALUATION ----------------------------


 * One electron integrals 
 Pre-screening matrix                    ... done
 Shell pair data                         ... done (   0.000 sec)

-------------------------------------------------------------------------------
                                 ORCA SCF
-------------------------------------------------------------------------------

------------
SCF SETTINGS
------------
Hamiltonian:
 Density Functional     Method          .... DFT(GTOs)
 Exchange Functional    Exchange        .... WB97X-D3
 Correlation Functional Correlation     .... WB97X-D3
 Gradients option       PostSCFGGA      .... off
 Hybrid DFT is turned on
   Fraction HF Exchange ScalHFX         ....  0.195728
   Scaling of DF-GGA-X  ScalDFX         ....  0.000000
   Scaling of DF-GGA-C  ScalDFC         ....  1.000000
   Scaling of DF-LDA-C  ScalLDAC        ....  1.000000
   Perturbative correction              ....  0.000000
 Long-range corrected/Screened/Range-Separated Hybrid DFT is turned on
   Amount of maximum screened exact exchange              ....  0.804272
   Range separation parameter mu (erf(mu*r12)/r12)        ....  0.250000


General Settings:
 Integral files         IntName         .... Scan_21
 Hartree-Fock type      HFTyp           .... RHF
 Total Charge           Charge          ....    0
 Multiplicity           Mult            ....    1
 Number of Electrons    NEL             ....   10
 Basis Dimension        Dim             ....   20
 Nuclear Repulsion      ENuc            ....      5.6724378522 Eh

Convergence Acceleration:
 DIIS                   CNVDIIS         .... on
   Start iteration      DIISMaxIt       ....     0
   Startup error        DIISStart       ....  0.200000
   # of expansion vecs  DIISMaxEq       ....     5
   Bias factor          DIISBfac        ....   1.050
   Max. coefficient     DIISMaxC        ....  10.000
 Newton-Raphson         CNVNR           .... off
 SOSCF                  CNVSOSCF        .... off
 Level Shifting         CNVShift        .... off
 Zerner damping         CNVZerner       .... off
 Static damping         CNVDamp         .... off
 Fernandez-Rico         CNVRico         .... off

SCF Procedure:
 Maximum # iterations   MaxIter         ....   999
 SCF integral mode      SCFMode         .... Direct
   Integral package                     .... LIBINT
 Reset frequeny         DirectResetFreq ....    20
 Integral Threshold     Thresh          ....  1.000e-10 Eh
 Primitive CutOff       TCut            ....  1.000e-11 Eh

Convergence Tolerance:
 Convergence Check Mode ConvCheckMode   .... All-Criteria
 Convergence forced     ConvForced      .... 0
 Energy Change          TolE            ....  1.000e-06 Eh
 Max Density Change     TolMaxP         ....  1.000e-05
 RMS Density Change     TolRMSP         ....  1.000e-06
 DIIS Error             TolErr          ....  1.000e-06


Diagonalization of the overlap matrix:
Smallest eigenvalue                        ... 6.414e-02
Time for diagonalization                   ...    0.000 sec
Threshold for overlap eigenvalues          ... 1.000e-08
Number of eigenvalues below threshold      ... 0
Time for construction of square roots      ...    0.005 sec
Total time needed                          ...    0.005 sec

-------------------
DFT GRID GENERATION
-------------------

General Integration Accuracy     IntAcc      ...  4.340
Radial Grid Type                 RadialGrid  ... Gauss-Chebyshev
Angular Grid (max. acc.)         AngularGrid ... Lebedev-110
Angular grid pruning method      GridPruning ... 3 (G Style)
Weight generation scheme         WeightScheme... Becke
Basis function cutoff            BFCut       ...    1.0000e-10
Integration weight cutoff        WCut        ...    1.0000e-14
Grids for H and He will be reduced by one unit

# of grid points (after initial pruning)     ...   4084 (   0.0 sec)
# of grid points (after weights+screening)   ...   4031 (   0.0 sec)
nearest neighbour list constructed           ...    0.0 sec
Grid point re-assignment to atoms done       ...    0.0 sec
Grid point division into batches done        ...    0.0 sec
Reduced shell lists constructed in    0.0 sec

Total number of grid points                  ...     4031
Total number of batches                      ...       65
Average number of points per batch           ...       62
Average number of grid points per atom       ...     1008
Average number of shells per batch           ...    10.61 (88.38%)
Average number of basis functions per batch  ...    18.00 (90.00%)
Average number of large shells per batch     ...     9.26 (87.29%)
Average number of large basis fcns per batch ...    15.14 (84.09%)
Maximum spatial batch extension              ...  19.13, 22.69, 25.65 au
Average spatial batch extension              ...   5.20,  5.10,  5.76 au

Time for grid setup =    0.023 sec

------------------------------
INITIAL GUESS: MODEL POTENTIAL
------------------------------
Loading Hartree-Fock densities                     ... done
Calculating cut-offs                               ... done
Setting up the integral package                    ... done
Initializing the effective Hamiltonian             ... done
Starting the Coulomb interaction                   ... done (   0.0 sec)
Reading the grid                                   ... done
Mapping shells                                     ... done
Starting the XC term evaluation                    ... done (   0.0 sec)
  promolecular density results
     # of electrons  =      9.996051671
     EX              =     -7.186397328
     EC              =     -0.266721282
     EX+EC           =     -7.453118610
Transforming the Hamiltonian                       ... done (   0.0 sec)
Diagonalizing the Hamiltonian                      ... done (   0.0 sec)
Back transforming the eigenvectors                 ... done (   0.0 sec)
Now organizing SCF variables                       ... done
                      ------------------
                      INITIAL GUESS DONE (   0.1 sec)
                      ------------------
--------------
SCF ITERATIONS
--------------
ITER       Energy         Delta-E        Max-DP      RMS-DP      [F,P]   Gradient Norm
               ***  Starting incremental Fock matrix formation  ***
                             ****Resetting KDIIS****
                             ****Turning on KDIIS(Cayley)****
  0    -55.9677504462   0.000000000000 0.02512331  0.00266757  0.1256519   0.090640446
  1    -55.9852515127  -0.017501066418 0.03377487  0.00461664  0.1156587   0.076817151
  2    -56.0134726229  -0.028221110283 0.08325091  0.01175244  0.0956327   0.057460328
  3    -56.0528960290  -0.039423406064 0.06230523  0.00711018  0.0312121   0.016912281
  4    -56.0576140085  -0.004717979528 0.01544467  0.00192671  0.0018108   0.001584864
  5    -56.0573547450   0.000259263495 0.01833195  0.00227619  0.0080675   0.003699828
  6    -56.0576203251  -0.000265580107 0.00494548  0.00059270  0.0024735   0.001305914
  7    -56.0576511459  -0.000030820793 0.00085473  0.00012989  0.0002795   0.000180081
  8    -56.0576531481  -0.000002002148 0.00194919  0.00030106  0.0002476   0.000116376
  9    -56.0576566129  -0.000003464805 0.00326262  0.00051001  0.0001617   0.000106135
 10    -56.0576592256  -0.000002612723 0.00032437  0.00005294  0.0000211   0.000024278
                          ***Energy convergence achieved***
 11    -56.0576592554  -0.000000029813 0.00002080  0.00000260  0.0000065   0.000005178

            ***Energy convergence in two consecutive cycles with***
                    ***'reasonable' density convergence***
                       *** signaling convergence ***

                    *** KDIIS BlockDiag ( 0.000 sec) ***

               *****************************************************
               *                     SUCCESS                       *
               *           SCF CONVERGED AFTER  12 CYCLES          *
               *****************************************************

Setting up the final grid:

General Integration Accuracy     IntAcc      ...  4.670
Radial Grid Type                 RadialGrid  ... Gauss-Chebyshev
Angular Grid (max. acc.)         AngularGrid ... Lebedev-302
Angular grid pruning method      GridPruning ... 3 (G Style)
Weight generation scheme         WeightScheme... Becke
Basis function cutoff            BFCut       ...    1.0000e-10
Integration weight cutoff        WCut        ...    1.0000e-14
Grids for H and He will be reduced by one unit

# of grid points (after initial pruning)     ...  16394 (   0.0 sec)
# of grid points (after weights+screening)   ...  16228 (   0.0 sec)
nearest neighbour list constructed           ...    0.0 sec
Grid point re-assignment to atoms done       ...    0.0 sec
Grid point division into batches done        ...    0.0 sec
Reduced shell lists constructed in    0.1 sec

Total number of grid points                  ...    16228
Total number of batches                      ...      256
Average number of points per batch           ...       63
Average number of grid points per atom       ...     4057
Average number of shells per batch           ...     9.72 (81.00%)
Average number of basis functions per batch  ...    16.32 (81.60%)
Average number of large shells per batch     ...     8.12 (83.51%)
Average number of large basis fcns per batch ...    13.00 (79.69%)
Maximum spatial batch extension              ...  17.48, 15.98, 15.22 au
Average spatial batch extension              ...   3.27,  3.27,  3.25 au

Final grid set up in    0.1 sec
Final integration                            ... done (   0.1 sec)
Change in XC energy                          ...    -0.000341653
Integrated number of electrons               ...     9.999994669
Previous integrated no of electrons          ...     9.998829985

----------------
TOTAL SCF ENERGY
----------------

Total Energy       :          -56.05800091 Eh           -1525.41576 eV

Components:
Nuclear Repulsion  :            5.67243785 Eh             154.35488 eV
Electronic Energy  :          -61.73043876 Eh           -1679.77064 eV
One Electron Energy:          -86.72047766 Eh           -2359.78417 eV
Two Electron Energy:           24.99003890 Eh             680.01353 eV

Virial components:
Potential Energy   :         -111.49931481 Eh           -3034.05060 eV
Kinetic Energy     :           55.44131390 Eh            1508.63485 eV
Virial Ratio       :            2.01112324


DFT components:
N(Alpha)           :        4.999997334543 electrons
N(Beta)            :        4.999997334543 electrons
N(Total)           :        9.999994669086 electrons
E(XC)              :       -5.111795338584 Eh       

---------------
SCF CONVERGENCE
---------------

  Last Energy change         ...   -5.6600e-10  Tolerance :   1.0000e-06
  Last MAX-Density change    ...    1.0726e-05  Tolerance :   1.0000e-05
  Last RMS-Density change    ...    1.2810e-06  Tolerance :   1.0000e-06
  Last DIIS Error            ...    4.5101e-06  Tolerance :   1.0000e-06

             **** THE GBW FILE WAS UPDATED (Scan_21.gbw) ****
             **** DENSITY FILE WAS UPDATED (Scan_21.scfp.tmp) ****
             **** ENERGY FILE WAS UPDATED (Scan_21.en.tmp) ****
----------------
ORBITAL ENERGIES
----------------

  NO   OCC          E(Eh)            E(eV) 
   0   2.0000     -14.558795      -396.1649 
   1   2.0000      -0.819232       -22.2924 
   2   2.0000      -0.595574       -16.2064 
   3   2.0000      -0.352139        -9.5822 
   4   2.0000      -0.334901        -9.1131 
   5   0.0000      -0.110220        -2.9992 
   6   0.0000      -0.077636        -2.1126 
   7   0.0000       0.192933         5.2500 
   8   0.0000       0.742789        20.2123 
   9   0.0000       0.766293        20.8519 
  10   0.0000       0.789725        21.4895 
  11   0.0000       0.818538        22.2736 
  12   0.0000       0.910957        24.7884 
  13   0.0000       0.963890        26.2288 
  14   0.0000       1.033256        28.1163 
  15   0.0000       1.807517        49.1850 
  16   0.0000       1.808982        49.2249 
  17   0.0000       1.815310        49.3971 
  18   0.0000       1.834713        49.9251 
  19   0.0000       1.842200        50.1288 

                    ********************************
                    * MULLIKEN POPULATION ANALYSIS *
                    ********************************

-----------------------
MULLIKEN ATOMIC CHARGES
-----------------------
   0 N :   -0.103316
   1 H :    0.090848
   2 H :   -0.078076
   3 H :    0.090544
Sum of atomic charges:   -0.0000000

--------------------------------
MULLIKEN REDUCED ORBITAL CHARGES
--------------------------------
  0 N s       :     3.999431  s :     3.999431
      pz      :     1.605395  p :     3.103408
      px      :     1.335017
      py      :     0.162997
      dz2     :     0.000073  d :     0.000477
      dxz     :     0.000104
      dyz     :     0.000055
      dx2y2   :     0.000152
      dxy     :     0.000093
  1 H s       :     0.909152  s :     0.909152
  2 H s       :     1.078076  s :     1.078076
  3 H s       :     0.909456  s :     0.909456


                     *******************************
                     * LOEWDIN POPULATION ANALYSIS *
                     *******************************

----------------------
LOEWDIN ATOMIC CHARGES
----------------------
   0 N :   -0.117638
   1 H :    0.051652
   2 H :    0.014759
   3 H :    0.051226

-------------------------------
LOEWDIN REDUCED ORBITAL CHARGES
-------------------------------
  0 N s       :     3.996518  s :     3.996518
      pz      :     1.609360  p :     3.120436
      px      :     1.342039
      py      :     0.169037
      dz2     :     0.000088  d :     0.000684
      dxz     :     0.000119
      dyz     :     0.000092
      dx2y2   :     0.000225
      dxy     :     0.000160
  1 H s       :     0.948348  s :     0.948348
  2 H s       :     0.985241  s :     0.985241
  3 H s       :     0.948774  s :     0.948774


                      *****************************
                      * MAYER POPULATION ANALYSIS *
                      *****************************

  NA   - Mulliken gross atomic population
  ZA   - Total nuclear charge
  QA   - Mulliken gross atomic charge
  VA   - Mayer's total valence
  BVA  - Mayer's bonded valence
  FA   - Mayer's free valence

  ATOM       NA         ZA         QA         VA         BVA        FA
  0 N      7.1033     7.0000    -0.1033     1.0284     1.0284     0.0000
  1 H      0.9092     1.0000     0.0908     0.9591     0.9591    -0.0000
  2 H      1.0781     1.0000    -0.0781     0.9919     0.9919    -0.0000
  3 H      0.9095     1.0000     0.0905     0.9590     0.9590    -0.0000

  Mayer bond orders larger than 0.1
B(  0-N ,  1-H ) :   0.5059 B(  0-N ,  3-H ) :   0.5051 B(  1-H ,  2-H ) :   0.4869 
B(  2-H ,  3-H ) :   0.4876 

-------
TIMINGS
-------

Total SCF time: 0 days 0 hours 0 min 4 sec 

Total time                  ....       4.778 sec
Sum of individual times     ....       4.638 sec  ( 97.1%)

Fock matrix formation       ....       4.341 sec  ( 90.8%)
  XC integration            ....       0.711 sec  ( 16.4% of F)
    Basis function eval.    ....       0.187 sec  ( 26.3% of XC)
    Density eval.           ....       0.031 sec  (  4.4% of XC)
    XC-Functional eval.     ....       0.218 sec  ( 30.7% of XC)
    XC-Potential eval.      ....       0.015 sec  (  2.1% of XC)
Diagonalization             ....       0.016 sec  (  0.3%)
Density matrix formation    ....       0.000 sec  (  0.0%)
Population analysis         ....       0.009 sec  (  0.2%)
Initial guess               ....       0.134 sec  (  2.8%)
Orbital Transformation      ....       0.000 sec  (  0.0%)
Orbital Orthonormalization  ....       0.000 sec  (  0.0%)
DIIS solution               ....       0.000 sec  (  0.0%)
Grid generation             ....       0.138 sec  (  2.9%)


-------------------------------------------------------------------------------
                          DFT DISPERSION CORRECTION                            
                                                                               
                              DFTD3 V3.1  Rev 1                                
                              USING zero damping                               
-------------------------------------------------------------------------------
The omegaB97X-D3 functional is recognized. Fit by Chai et al.
Active option DFTDOPT                   ...         3   

molecular C6(AA) [au] = 169.095502 


            DFT-D V3
 parameters
 s6 scaling factor         :     1.0000 
 rs6 scaling factor        :     1.2810 
 s8 scaling factor         :     1.0000 
 rs8 scaling factor        :     1.0940 
 Damping factor alpha6     :    14.0000 
 Damping factor alpha8     :    16.0000 
 ad hoc parameters k1-k3   :    16.0000     1.3333    -4.0000 

 Edisp/kcal,au: -0.202366578006  -0.000322491635 
 E6   /kcal   :  -0.030762832 
 E8   /kcal   :  -0.171603746 
 % E8         :  84.798462015 

-------------------------   ----------------
Dispersion correction           -0.000322492
-------------------------   ----------------


-------------------------   --------------------
FINAL SINGLE POINT ENERGY       -56.058323400784
-------------------------   --------------------


                            ***************************************
                            *     ORCA property calculations      *
                            ***************************************

                                    ---------------------
                                    Active property flags
                                    ---------------------
   (+) Dipole Moment


------------------------------------------------------------------------------
                       ORCA ELECTRIC PROPERTIES CALCULATION
------------------------------------------------------------------------------

Dipole Moment Calculation                       ... on
Quadrupole Moment Calculation                   ... off
Polarizability Calculation                      ... off
GBWName                                         ... Scan_21.gbw
Electron density file                           ... Scan_21.scfp.tmp

-------------
DIPOLE MOMENT
-------------
                                X             Y             Z
Electronic contribution:     -1.44036      -4.73421       1.24064
Nuclear contribution   :      1.57339       5.17018      -1.35521
                        -----------------------------------------
Total Dipole Moment    :      0.13302       0.43597      -0.11456
                        -----------------------------------------
Magnitude (a.u.)       :      0.46999
Magnitude (Debye)      :      1.19462


Timings for individual modules:

Sum of individual times         ...        5.233 sec (=   0.087 min)
GTO integral calculation        ...        0.431 sec (=   0.007 min)   8.2 %
SCF iterations                  ...        4.802 sec (=   0.080 min)  91.8 %
                             ****ORCA TERMINATED NORMALLY****
TOTAL RUN TIME: 0 days 0 hours 0 minutes 5 seconds 632 msec
