
                                 *****************
                                 * O   R   C   A *
                                 *****************

           --- An Ab Initio, DFT and Semiempirical electronic structure package ---

                  #######################################################
                  #                        -***-                        #
                  #  Department of molecular theory and spectroscopy    #
                  #              Directorship: Frank Neese              #
                  # Max Planck Institute for Chemical Energy Conversion #
                  #                  D-45470 Muelheim/Ruhr              #
                  #                       Germany                       #
                  #                                                     #
                  #                  All rights reserved                #
                  #                        -***-                        #
                  #######################################################


                         Program Version 4.0.0.2 - RELEASE -


 With contributions from (in alphabetic order):
   Daniel Aravena         : Magnetic Properties
   Michael Atanasov       : Ab Initio Ligand Field Theory
   Ute Becker             : Parallelization
   Martin Brehm           : Molecular dynamics
   Dmytro Bykov           : SCF Hessian
   Vijay G. Chilkuri      : MRCI spin determinant printing
   Dipayan Datta          : RHF DLPNO-CCSD density
   Achintya Kumar Dutta   : EOM-CC, STEOM-CC
   Dmitry Ganyushin       : Spin-Orbit,Spin-Spin,Magnetic field MRCI
   Yang Guo               : DLPNO-NEVPT2, CIM, IAO-localization
   Andreas Hansen         : Spin unrestricted coupled pair/coupled cluster methods
   Lee Huntington         : MR-EOM, pCC
   Robert Izsak           : Overlap fitted RIJCOSX, COSX-SCS-MP3, EOM
   Christian Kollmar      : KDIIS, OOCD, Brueckner-CCSD(T), CCSD density
   Simone Kossmann        : Meta GGA functionals, TD-DFT gradient, OOMP2, MP2 Hessian
   Martin Krupicka        : AUTO-CI
   Dagmar Lenk            : GEPOL surface
   Dimitrios Liakos       : Extrapolation schemes; parallel MDCI
   Dimitrios Manganas     : ROCIS; embedding schemes
   Dimitrios Pantazis     : SARC Basis sets
   Taras Petrenko         : DFT Hessian,TD-DFT gradient, ASA, ECA, R-Raman, ABS, FL, XAS/XES, NRVS
   Peter Pinski           : DLPNO-MP2
   Christoph Reimann      : Effective Core Potentials
   Marius Retegan         : Local ZFS, SOC
   Christoph Riplinger    : Optimizer, TS searches, QM/MM, DLPNO-CCSD(T), (RO)-DLPNO pert. Triples
   Tobias Risthaus        : Range-separated hybrids, TD-DFT gradient, RPA, STAB
   Michael Roemelt        : Restricted open shell CIS
   Masaaki Saitow         : Open-shell DLPNO
   Barbara Sandhoefer     : DKH picture change effects
   Kantharuban Sivalingam : CASSCF convergence, NEVPT2, FIC-MRCI
   Georgi Stoychev        : AutoAux
   Boris Wezisla          : Elementary symmetry handling
   Frank Wennmohs         : Technical directorship


 We gratefully acknowledge several colleagues who have allowed us to
 interface, adapt or use parts of their codes:
   Stefan Grimme, W. Hujo, H. Kruse,             : VdW corrections, initial TS optimization,
                  C. Bannwarth                     DFT functionals, gCP, sTDA/sTD-DF
   Ed Valeev                                     : LibInt (2-el integral package), F12 methods
   Garnet Chan, S. Sharma, J. Yang, R. Olivares  : DMRG
   Ulf Ekstrom                                   : XCFun DFT Library
   Mihaly Kallay                                 : mrcc  (arbitrary order and MRCC methods)
   Jiri Pittner, Ondrej Demel                    : Mk-CCSD
   Frank Weinhold                                : gennbo (NPA and NBO analysis)
   Christopher J. Cramer and Donald G. Truhlar   : smd solvation model


 Your calculation uses the libint2 library for the computation of 2-el integrals
 For citations please refer to: http://libint.valeyev.net

 This ORCA versions uses:
   CBLAS   interface :  Fast vector & matrix operations
   LAPACKE interface :  Fast linear algebra routines
   SCALAPACK package :  Parallel linear algebra routines


Your calculation utilizes the atom-pairwise dispersion correction
with the zero-damping scheme (D30)
Cite in your paper:
S.Grimme, J.Antony, S.Ehrlich and H.Krieg, J.Chem.Phys., 132, (2010), 154104 
   

XCFun DFT library Copyright 2009-2010 Ulf Ekstrom and contributors.
See http://admol.org/xcfun for more information. This is free soft-
ware; see the source code for copying conditions. There is ABSOLUTELY
NO WARRANTY; not even for MERCHANTABILITY or FITNESS FOR A PARTICULAR
PURPOSE. For details see the documentation. Scientific users of this 
library should cite U. Ekstrom, L. Visscher, R. Bast, A. J. Thorvald-
sen and K. Ruud; J.Chem.Theor.Comp. 2010, DOI: 10.1021/ct100117s
XCFun Version 0.99 
Your calculation utilizes the basis: 6-31G(d)
   H-He, Li-Ne : W. J. Hehre, R. Ditchfield and J.A. Pople, J. Chem. Phys. 56, 2257 (1972).
                 Note: He and Ne are unpublished basis sets taken from the Gaussian program.
                 Note: Li and B from J. D. Dill and J. A. Pople, J. Chem. Phys. 62, 2921 (1975).
   Na - Ar     : M. M. Francl, W. J. Pietro, W. J. Hehre, J. S. Binkley, M. S. Gordon, 
                 D. J. DeFrees and J. A. Pople, J. Chem. Phys. 77, 3654 (1982).
   K - Zn      : V. A. Rassolov, J. A. Pople, M. A. Ratner, and T. L. Windus, J. Chem. Phys. 109, 1223 (1998).

================================================================================
                                        WARNINGS
                       Please study these warnings very carefully!
================================================================================

Warning: TCutStore was < 0. Adjusted to Thresh (uncritical)

INFO   : the flag for use of LIBINT has been found!

================================================================================
                                       INPUT FILE
================================================================================
NAME = initial22.inp
|  1> ! WB97X-D3 6-31G(d) VerySlowConv
|  2> ! KDIIS NOSOSCF
|  3> %base "Scan_22"
|  4> 
|  5> %scf
|  6> maxiter 999
|  7> end
|  8> 
|  9> * xyz 0 1
| 10> N         -0.482355939414   -0.454940913421    0.422789874447
| 11> H          0.956665104239    1.451397335367   -0.729468185756
| 12> H          0.262597142840    1.991672379676   -0.217977171567
| 13> H         -0.535056307665    2.196091198379    0.379695482876
| 14> **                         ****END OF INPUT****
================================================================================

                       ****************************
                       * Single Point Calculation *
                       ****************************

---------------------------------
CARTESIAN COORDINATES (ANGSTROEM)
---------------------------------
  N     -0.482356   -0.454941    0.422790
  H      0.956665    1.451397   -0.729468
  H      0.262597    1.991672   -0.217977
  H     -0.535056    2.196091    0.379695

----------------------------
CARTESIAN COORDINATES (A.U.)
----------------------------
  NO LB      ZA    FRAG     MASS         X           Y           Z
   0 N     7.0000    0    14.007   -0.911521   -0.859714    0.798957
   1 H     1.0000    0     1.008    1.807835    2.742743   -1.378495
   2 H     1.0000    0     1.008    0.496237    3.763715   -0.411917
   3 H     1.0000    0     1.008   -1.011110    4.150011    0.717520

--------------------------------
INTERNAL COORDINATES (ANGSTROEM)
--------------------------------
 N      0   0   0     0.000000000000     0.00000000     0.00000000
 H      1   0   0     2.651906054175     0.00000000     0.00000000
 H      2   1   0     1.017472611985    78.06066834     0.00000000
 H      3   2   1     1.017472693693   159.51293706   359.64343793

---------------------------
INTERNAL COORDINATES (A.U.)
---------------------------
 N      0   0   0     0.000000000000     0.00000000     0.00000000
 H      1   0   0     5.011376175279     0.00000000     0.00000000
 H      2   1   0     1.922744585417    78.06066834     0.00000000
 H      3   2   1     1.922744739823   159.51293706   359.64343793

---------------------
BASIS SET INFORMATION
---------------------
There are 2 groups of distinct atoms

 Group   1 Type N   : 10s4p1d contracted to 3s2p1d pattern {631/31/1}
 Group   2 Type H   : 4s contracted to 2s pattern {31}

Atom   0N    basis set group =>   1
Atom   1H    basis set group =>   2
Atom   2H    basis set group =>   2
Atom   3H    basis set group =>   2
------------------------------------------------------------------------------
                           ORCA GTO INTEGRAL CALCULATION
------------------------------------------------------------------------------

                         BASIS SET STATISTICS AND STARTUP INFO

 # of primitive gaussian shells          ...   27
 # of primitive gaussian functions       ...   39
 # of contracted shells                  ...   12
 # of contracted basis functions         ...   20
 Highest angular momentum                ...    2
 Maximum contraction depth               ...    6
 Integral package used                   ... LIBINT
 Integral threshhold            Thresh   ...  1.000e-10
 Primitive cut-off              TCut     ...  1.000e-11


------------------------------ INTEGRAL EVALUATION ----------------------------


 * One electron integrals 
 Pre-screening matrix                    ... done
 Shell pair data                         ... done (   0.000 sec)

-------------------------------------------------------------------------------
                                 ORCA SCF
-------------------------------------------------------------------------------

------------
SCF SETTINGS
------------
Hamiltonian:
 Density Functional     Method          .... DFT(GTOs)
 Exchange Functional    Exchange        .... WB97X-D3
 Correlation Functional Correlation     .... WB97X-D3
 Gradients option       PostSCFGGA      .... off
 Hybrid DFT is turned on
   Fraction HF Exchange ScalHFX         ....  0.195728
   Scaling of DF-GGA-X  ScalDFX         ....  0.000000
   Scaling of DF-GGA-C  ScalDFC         ....  1.000000
   Scaling of DF-LDA-C  ScalLDAC        ....  1.000000
   Perturbative correction              ....  0.000000
 Long-range corrected/Screened/Range-Separated Hybrid DFT is turned on
   Amount of maximum screened exact exchange              ....  0.804272
   Range separation parameter mu (erf(mu*r12)/r12)        ....  0.250000


General Settings:
 Integral files         IntName         .... Scan_22
 Hartree-Fock type      HFTyp           .... RHF
 Total Charge           Charge          ....    0
 Multiplicity           Mult            ....    1
 Number of Electrons    NEL             ....   10
 Basis Dimension        Dim             ....   20
 Nuclear Repulsion      ENuc            ....      5.5030320288 Eh

Convergence Acceleration:
 DIIS                   CNVDIIS         .... on
   Start iteration      DIISMaxIt       ....     0
   Startup error        DIISStart       ....  0.200000
   # of expansion vecs  DIISMaxEq       ....     5
   Bias factor          DIISBfac        ....   1.050
   Max. coefficient     DIISMaxC        ....  10.000
 Newton-Raphson         CNVNR           .... off
 SOSCF                  CNVSOSCF        .... off
 Level Shifting         CNVShift        .... off
 Zerner damping         CNVZerner       .... off
 Static damping         CNVDamp         .... off
 Fernandez-Rico         CNVRico         .... off

SCF Procedure:
 Maximum # iterations   MaxIter         ....   999
 SCF integral mode      SCFMode         .... Direct
   Integral package                     .... LIBINT
 Reset frequeny         DirectResetFreq ....    20
 Integral Threshold     Thresh          ....  1.000e-10 Eh
 Primitive CutOff       TCut            ....  1.000e-11 Eh

Convergence Tolerance:
 Convergence Check Mode ConvCheckMode   .... All-Criteria
 Convergence forced     ConvForced      .... 0
 Energy Change          TolE            ....  1.000e-06 Eh
 Max Density Change     TolMaxP         ....  1.000e-05
 RMS Density Change     TolRMSP         ....  1.000e-06
 DIIS Error             TolErr          ....  1.000e-06


Diagonalization of the overlap matrix:
Smallest eigenvalue                        ... 6.388e-02
Time for diagonalization                   ...    0.000 sec
Threshold for overlap eigenvalues          ... 1.000e-08
Number of eigenvalues below threshold      ... 0
Time for construction of square roots      ...    0.005 sec
Total time needed                          ...    0.006 sec

-------------------
DFT GRID GENERATION
-------------------

General Integration Accuracy     IntAcc      ...  4.340
Radial Grid Type                 RadialGrid  ... Gauss-Chebyshev
Angular Grid (max. acc.)         AngularGrid ... Lebedev-110
Angular grid pruning method      GridPruning ... 3 (G Style)
Weight generation scheme         WeightScheme... Becke
Basis function cutoff            BFCut       ...    1.0000e-10
Integration weight cutoff        WCut        ...    1.0000e-14
Grids for H and He will be reduced by one unit

# of grid points (after initial pruning)     ...   4084 (   0.0 sec)
# of grid points (after weights+screening)   ...   4035 (   0.0 sec)
nearest neighbour list constructed           ...    0.0 sec
Grid point re-assignment to atoms done       ...    0.0 sec
Grid point division into batches done        ...    0.0 sec
Reduced shell lists constructed in    0.0 sec

Total number of grid points                  ...     4035
Total number of batches                      ...       65
Average number of points per batch           ...       62
Average number of grid points per atom       ...     1009
Average number of shells per batch           ...    10.58 (88.13%)
Average number of basis functions per batch  ...    17.97 (89.85%)
Average number of large shells per batch     ...     9.03 (85.39%)
Average number of large basis fcns per batch ...    14.70 (81.79%)
Maximum spatial batch extension              ...  19.19, 22.89, 25.65 au
Average spatial batch extension              ...   4.99,  5.06,  5.52 au

Time for grid setup =    0.022 sec

------------------------------
INITIAL GUESS: MODEL POTENTIAL
------------------------------
Loading Hartree-Fock densities                     ... done
Calculating cut-offs                               ... done
Setting up the integral package                    ... done
Initializing the effective Hamiltonian             ... done
Starting the Coulomb interaction                   ... done (   0.0 sec)
Reading the grid                                   ... done
Mapping shells                                     ... done
Starting the XC term evaluation                    ... done (   0.0 sec)
  promolecular density results
     # of electrons  =      9.995814100
     EX              =     -7.185201725
     EC              =     -0.265876605
     EX+EC           =     -7.451078329
Transforming the Hamiltonian                       ... done (   0.0 sec)
Diagonalizing the Hamiltonian                      ... done (   0.0 sec)
Back transforming the eigenvectors                 ... done (   0.0 sec)
Now organizing SCF variables                       ... done
                      ------------------
                      INITIAL GUESS DONE (   0.1 sec)
                      ------------------
--------------
SCF ITERATIONS
--------------
ITER       Energy         Delta-E        Max-DP      RMS-DP      [F,P]   Gradient Norm
               ***  Starting incremental Fock matrix formation  ***
                             ****Resetting KDIIS****
                             ****Turning on KDIIS(Cayley)****
  0    -55.9384566461   0.000000000000 0.02705707  0.00288906  0.1297993   0.097459233
  1    -55.9580186942  -0.019562048129 0.03478870  0.00468609  0.1214544   0.083107720
  2    -55.9892323621  -0.031213667869 0.07884181  0.01171447  0.1057458   0.064342233
  3    -56.0380017634  -0.048769401294 0.50472719  0.05696221  0.0485141   0.024629435
  4    -55.8965314877   0.141470275666 0.32871109  0.03879524  0.1041592   0.055468738
  5    -56.0394028330  -0.142871345228 0.04085536  0.00662507  0.0256311   0.017701668
  6    -56.0302254563   0.009177376636 0.08474054  0.00993532  0.0590746   0.026593889
  7    -56.0467191739  -0.016493717550 0.03264497  0.00430150  0.0186478   0.008774572
  8    -56.0488855177  -0.002166343806 0.00505752  0.00058387  0.0056316   0.003261751
  9    -56.0489885715  -0.000103053803 0.00187064  0.00027260  0.0018549   0.000952584
 10    -56.0490048838  -0.000016312312 0.00194955  0.00032267  0.0007066   0.000372870
 11    -56.0490117563  -0.000006872498 0.00381363  0.00060498  0.0002412   0.000122627
 12    -56.0490176341  -0.000005877797 0.00258557  0.00039464  0.0001100   0.000111779
 13    -56.0490190226  -0.000001388539 0.00033829  0.00005327  0.0000835   0.000057241
                          ***Energy convergence achieved***
 14    -56.0490190788  -0.000000056131 0.00009223  0.00001382  0.0000123   0.000009871

            ***Energy convergence in two consecutive cycles with***
                    ***'reasonable' density convergence***
                       *** signaling convergence ***

                    *** KDIIS BlockDiag ( 0.000 sec) ***

               *****************************************************
               *                     SUCCESS                       *
               *           SCF CONVERGED AFTER  15 CYCLES          *
               *****************************************************

Setting up the final grid:

General Integration Accuracy     IntAcc      ...  4.670
Radial Grid Type                 RadialGrid  ... Gauss-Chebyshev
Angular Grid (max. acc.)         AngularGrid ... Lebedev-302
Angular grid pruning method      GridPruning ... 3 (G Style)
Weight generation scheme         WeightScheme... Becke
Basis function cutoff            BFCut       ...    1.0000e-10
Integration weight cutoff        WCut        ...    1.0000e-14
Grids for H and He will be reduced by one unit

# of grid points (after initial pruning)     ...  16394 (   0.0 sec)
# of grid points (after weights+screening)   ...  16237 (   0.0 sec)
nearest neighbour list constructed           ...    0.0 sec
Grid point re-assignment to atoms done       ...    0.0 sec
Grid point division into batches done        ...    0.0 sec
Reduced shell lists constructed in    0.1 sec

Total number of grid points                  ...    16237
Total number of batches                      ...      256
Average number of points per batch           ...       63
Average number of grid points per atom       ...     4059
Average number of shells per batch           ...     9.71 (80.93%)
Average number of basis functions per batch  ...    16.33 (81.63%)
Average number of large shells per batch     ...     7.98 (82.17%)
Average number of large basis fcns per batch ...    12.74 (78.05%)
Maximum spatial batch extension              ...  16.88, 15.48, 15.22 au
Average spatial batch extension              ...   3.27,  3.27,  3.27 au

Final grid set up in    0.1 sec
Final integration                            ... done (   0.1 sec)
Change in XC energy                          ...    -0.000339423
Integrated number of electrons               ...     9.999993074
Previous integrated no of electrons          ...     9.998453516

----------------
TOTAL SCF ENERGY
----------------

Total Energy       :          -56.04935851 Eh           -1525.18058 eV

Components:
Nuclear Repulsion  :            5.50303203 Eh             149.74511 eV
Electronic Energy  :          -61.55239053 Eh           -1674.92570 eV
One Electron Energy:          -86.38595184 Eh           -2350.68126 eV
Two Electron Energy:           24.83356131 Eh             675.75556 eV

Virial components:
Potential Energy   :         -111.50213432 Eh           -3034.12733 eV
Kinetic Energy     :           55.45277582 Eh            1508.94674 eV
Virial Ratio       :            2.01075839


DFT components:
N(Alpha)           :        4.999996536934 electrons
N(Beta)            :        4.999996536934 electrons
N(Total)           :        9.999993073869 electrons
E(XC)              :       -5.111737470141 Eh       

---------------
SCF CONVERGENCE
---------------

  Last Energy change         ...   -2.8837e-09  Tolerance :   1.0000e-06
  Last MAX-Density change    ...    1.6929e-05  Tolerance :   1.0000e-05
  Last RMS-Density change    ...    1.7035e-06  Tolerance :   1.0000e-06
  Last DIIS Error            ...    3.5160e-06  Tolerance :   1.0000e-06

             **** THE GBW FILE WAS UPDATED (Scan_22.gbw) ****
             **** DENSITY FILE WAS UPDATED (Scan_22.scfp.tmp) ****
             **** ENERGY FILE WAS UPDATED (Scan_22.en.tmp) ****
----------------
ORBITAL ENERGIES
----------------

  NO   OCC          E(Eh)            E(eV) 
   0   2.0000     -14.556825      -396.1114 
   1   2.0000      -0.817398       -22.2425 
   2   2.0000      -0.595498       -16.2043 
   3   2.0000      -0.351146        -9.5552 
   4   2.0000      -0.329038        -8.9536 
   5   0.0000      -0.115649        -3.1470 
   6   0.0000      -0.077407        -2.1063 
   7   0.0000       0.193275         5.2593 
   8   0.0000       0.726752        19.7759 
   9   0.0000       0.764514        20.8035 
  10   0.0000       0.791016        21.5247 
  11   0.0000       0.824342        22.4315 
  12   0.0000       0.909561        24.7504 
  13   0.0000       0.967577        26.3291 
  14   0.0000       1.032175        28.0869 
  15   0.0000       1.806109        49.1467 
  16   0.0000       1.807947        49.1967 
  17   0.0000       1.815997        49.4158 
  18   0.0000       1.835484        49.9461 
  19   0.0000       1.842477        50.1363 

                    ********************************
                    * MULLIKEN POPULATION ANALYSIS *
                    ********************************

-----------------------
MULLIKEN ATOMIC CHARGES
-----------------------
   0 N :   -0.102055
   1 H :    0.090814
   2 H :   -0.079285
   3 H :    0.090526
Sum of atomic charges:    0.0000000

--------------------------------
MULLIKEN REDUCED ORBITAL CHARGES
--------------------------------
  0 N s       :     3.999466  s :     3.999466
      pz      :     1.611482  p :     3.102195
      px      :     1.334104
      py      :     0.156609
      dz2     :     0.000065  d :     0.000394
      dxz     :     0.000095
      dyz     :     0.000041
      dx2y2   :     0.000122
      dxy     :     0.000071
  1 H s       :     0.909186  s :     0.909186
  2 H s       :     1.079285  s :     1.079285
  3 H s       :     0.909474  s :     0.909474


                     *******************************
                     * LOEWDIN POPULATION ANALYSIS *
                     *******************************

----------------------
LOEWDIN ATOMIC CHARGES
----------------------
   0 N :   -0.113609
   1 H :    0.050661
   2 H :    0.012814
   3 H :    0.050134

-------------------------------
LOEWDIN REDUCED ORBITAL CHARGES
-------------------------------
  0 N s       :     3.997406  s :     3.997406
      pz      :     1.614733  p :     3.115670
      px      :     1.339885
      py      :     0.161052
      dz2     :     0.000075  d :     0.000533
      dxz     :     0.000104
      dyz     :     0.000067
      dx2y2   :     0.000171
      dxy     :     0.000116
  1 H s       :     0.949339  s :     0.949339
  2 H s       :     0.987186  s :     0.987186
  3 H s       :     0.949866  s :     0.949866


                      *****************************
                      * MAYER POPULATION ANALYSIS *
                      *****************************

  NA   - Mulliken gross atomic population
  ZA   - Total nuclear charge
  QA   - Mulliken gross atomic charge
  VA   - Mayer's total valence
  BVA  - Mayer's bonded valence
  FA   - Mayer's free valence

  ATOM       NA         ZA         QA         VA         BVA        FA
  0 N      7.1021     7.0000    -0.1021     1.0175     1.0175    -0.0000
  1 H      0.9092     1.0000     0.0908     0.9580     0.9580    -0.0000
  2 H      1.0793     1.0000    -0.0793     0.9922     0.9922    -0.0000
  3 H      0.9095     1.0000     0.0905     0.9579     0.9579     0.0000

  Mayer bond orders larger than 0.1
B(  0-N ,  1-H ) :   0.5034 B(  0-N ,  3-H ) :   0.5019 B(  1-H ,  2-H ) :   0.4893 
B(  2-H ,  3-H ) :   0.4907 

-------
TIMINGS
-------

Total SCF time: 0 days 0 hours 0 min 4 sec 

Total time                  ....       4.294 sec
Sum of individual times     ....       4.146 sec  ( 96.5%)

Fock matrix formation       ....       3.893 sec  ( 90.7%)
  XC integration            ....       0.779 sec  ( 20.0% of F)
    Basis function eval.    ....       0.206 sec  ( 26.5% of XC)
    Density eval.           ....       0.033 sec  (  4.3% of XC)
    XC-Functional eval.     ....       0.241 sec  ( 30.9% of XC)
    XC-Potential eval.      ....       0.016 sec  (  2.1% of XC)
Diagonalization             ....       0.006 sec  (  0.1%)
Density matrix formation    ....       0.000 sec  (  0.0%)
Population analysis         ....       0.008 sec  (  0.2%)
Initial guess               ....       0.109 sec  (  2.5%)
Orbital Transformation      ....       0.000 sec  (  0.0%)
Orbital Orthonormalization  ....       0.000 sec  (  0.0%)
DIIS solution               ....       0.000 sec  (  0.0%)
Grid generation             ....       0.129 sec  (  3.0%)


-------------------------------------------------------------------------------
                          DFT DISPERSION CORRECTION                            
                                                                               
                              DFTD3 V3.1  Rev 1                                
                              USING zero damping                               
-------------------------------------------------------------------------------
The omegaB97X-D3 functional is recognized. Fit by Chai et al.
Active option DFTDOPT                   ...         3   

molecular C6(AA) [au] = 169.090848 


            DFT-D V3
 parameters
 s6 scaling factor         :     1.0000 
 rs6 scaling factor        :     1.2810 
 s8 scaling factor         :     1.0000 
 rs8 scaling factor        :     1.0940 
 Damping factor alpha6     :    14.0000 
 Damping factor alpha8     :    16.0000 
 ad hoc parameters k1-k3   :    16.0000     1.3333    -4.0000 

 Edisp/kcal,au: -0.252109479869  -0.000401761987 
 E6   /kcal   :  -0.040931074 
 E8   /kcal   :  -0.211178406 
 % E8         :  83.764563799 

-------------------------   ----------------
Dispersion correction           -0.000401762
-------------------------   ----------------


-------------------------   --------------------
FINAL SINGLE POINT ENERGY       -56.049760267000
-------------------------   --------------------


                            ***************************************
                            *     ORCA property calculations      *
                            ***************************************

                                    ---------------------
                                    Active property flags
                                    ---------------------
   (+) Dipole Moment


------------------------------------------------------------------------------
                       ORCA ELECTRIC PROPERTIES CALCULATION
------------------------------------------------------------------------------

Dipole Moment Calculation                       ... on
Quadrupole Moment Calculation                   ... off
Polarizability Calculation                      ... off
GBWName                                         ... Scan_22.gbw
Electron density file                           ... Scan_22.scfp.tmp

-------------
DIPOLE MOMENT
-------------
                                X             Y             Z
Electronic contribution:     -1.50709      -4.95398       1.29816
Nuclear contribution   :      1.64379       5.40196      -1.41614
                        -----------------------------------------
Total Dipole Moment    :      0.13669       0.44798      -0.11799
                        -----------------------------------------
Magnitude (a.u.)       :      0.48300
Magnitude (Debye)      :      1.22768


Timings for individual modules:

Sum of individual times         ...        4.609 sec (=   0.077 min)
GTO integral calculation        ...        0.292 sec (=   0.005 min)   6.3 %
SCF iterations                  ...        4.317 sec (=   0.072 min)  93.7 %
                             ****ORCA TERMINATED NORMALLY****
TOTAL RUN TIME: 0 days 0 hours 0 minutes 4 seconds 919 msec
