
                                 *****************
                                 * O   R   C   A *
                                 *****************

           --- An Ab Initio, DFT and Semiempirical electronic structure package ---

                  #######################################################
                  #                        -***-                        #
                  #  Department of molecular theory and spectroscopy    #
                  #              Directorship: Frank Neese              #
                  # Max Planck Institute for Chemical Energy Conversion #
                  #                  D-45470 Muelheim/Ruhr              #
                  #                       Germany                       #
                  #                                                     #
                  #                  All rights reserved                #
                  #                        -***-                        #
                  #######################################################


                         Program Version 4.0.0.2 - RELEASE -


 With contributions from (in alphabetic order):
   Daniel Aravena         : Magnetic Properties
   Michael Atanasov       : Ab Initio Ligand Field Theory
   Ute Becker             : Parallelization
   Martin Brehm           : Molecular dynamics
   Dmytro Bykov           : SCF Hessian
   Vijay G. Chilkuri      : MRCI spin determinant printing
   Dipayan Datta          : RHF DLPNO-CCSD density
   Achintya Kumar Dutta   : EOM-CC, STEOM-CC
   Dmitry Ganyushin       : Spin-Orbit,Spin-Spin,Magnetic field MRCI
   Yang Guo               : DLPNO-NEVPT2, CIM, IAO-localization
   Andreas Hansen         : Spin unrestricted coupled pair/coupled cluster methods
   Lee Huntington         : MR-EOM, pCC
   Robert Izsak           : Overlap fitted RIJCOSX, COSX-SCS-MP3, EOM
   Christian Kollmar      : KDIIS, OOCD, Brueckner-CCSD(T), CCSD density
   Simone Kossmann        : Meta GGA functionals, TD-DFT gradient, OOMP2, MP2 Hessian
   Martin Krupicka        : AUTO-CI
   Dagmar Lenk            : GEPOL surface
   Dimitrios Liakos       : Extrapolation schemes; parallel MDCI
   Dimitrios Manganas     : ROCIS; embedding schemes
   Dimitrios Pantazis     : SARC Basis sets
   Taras Petrenko         : DFT Hessian,TD-DFT gradient, ASA, ECA, R-Raman, ABS, FL, XAS/XES, NRVS
   Peter Pinski           : DLPNO-MP2
   Christoph Reimann      : Effective Core Potentials
   Marius Retegan         : Local ZFS, SOC
   Christoph Riplinger    : Optimizer, TS searches, QM/MM, DLPNO-CCSD(T), (RO)-DLPNO pert. Triples
   Tobias Risthaus        : Range-separated hybrids, TD-DFT gradient, RPA, STAB
   Michael Roemelt        : Restricted open shell CIS
   Masaaki Saitow         : Open-shell DLPNO
   Barbara Sandhoefer     : DKH picture change effects
   Kantharuban Sivalingam : CASSCF convergence, NEVPT2, FIC-MRCI
   Georgi Stoychev        : AutoAux
   Boris Wezisla          : Elementary symmetry handling
   Frank Wennmohs         : Technical directorship


 We gratefully acknowledge several colleagues who have allowed us to
 interface, adapt or use parts of their codes:
   Stefan Grimme, W. Hujo, H. Kruse,             : VdW corrections, initial TS optimization,
                  C. Bannwarth                     DFT functionals, gCP, sTDA/sTD-DF
   Ed Valeev                                     : LibInt (2-el integral package), F12 methods
   Garnet Chan, S. Sharma, J. Yang, R. Olivares  : DMRG
   Ulf Ekstrom                                   : XCFun DFT Library
   Mihaly Kallay                                 : mrcc  (arbitrary order and MRCC methods)
   Jiri Pittner, Ondrej Demel                    : Mk-CCSD
   Frank Weinhold                                : gennbo (NPA and NBO analysis)
   Christopher J. Cramer and Donald G. Truhlar   : smd solvation model


 Your calculation uses the libint2 library for the computation of 2-el integrals
 For citations please refer to: http://libint.valeyev.net

 This ORCA versions uses:
   CBLAS   interface :  Fast vector & matrix operations
   LAPACKE interface :  Fast linear algebra routines
   SCALAPACK package :  Parallel linear algebra routines


Your calculation utilizes the atom-pairwise dispersion correction
with the zero-damping scheme (D30)
Cite in your paper:
S.Grimme, J.Antony, S.Ehrlich and H.Krieg, J.Chem.Phys., 132, (2010), 154104 
   

XCFun DFT library Copyright 2009-2010 Ulf Ekstrom and contributors.
See http://admol.org/xcfun for more information. This is free soft-
ware; see the source code for copying conditions. There is ABSOLUTELY
NO WARRANTY; not even for MERCHANTABILITY or FITNESS FOR A PARTICULAR
PURPOSE. For details see the documentation. Scientific users of this 
library should cite U. Ekstrom, L. Visscher, R. Bast, A. J. Thorvald-
sen and K. Ruud; J.Chem.Theor.Comp. 2010, DOI: 10.1021/ct100117s
XCFun Version 0.99 
Your calculation utilizes the basis: 6-31G(d)
   H-He, Li-Ne : W. J. Hehre, R. Ditchfield and J.A. Pople, J. Chem. Phys. 56, 2257 (1972).
                 Note: He and Ne are unpublished basis sets taken from the Gaussian program.
                 Note: Li and B from J. D. Dill and J. A. Pople, J. Chem. Phys. 62, 2921 (1975).
   Na - Ar     : M. M. Francl, W. J. Pietro, W. J. Hehre, J. S. Binkley, M. S. Gordon, 
                 D. J. DeFrees and J. A. Pople, J. Chem. Phys. 77, 3654 (1982).
   K - Zn      : V. A. Rassolov, J. A. Pople, M. A. Ratner, and T. L. Windus, J. Chem. Phys. 109, 1223 (1998).

================================================================================
                                        WARNINGS
                       Please study these warnings very carefully!
================================================================================

Warning: TCutStore was < 0. Adjusted to Thresh (uncritical)

INFO   : the flag for use of LIBINT has been found!

================================================================================
                                       INPUT FILE
================================================================================
NAME = initial23.inp
|  1> ! WB97X-D3 6-31G(d) VerySlowConv
|  2> ! KDIIS NOSOSCF
|  3> %base "Scan_23"
|  4> 
|  5> %scf
|  6> maxiter 999
|  7> end
|  8> 
|  9> * xyz 0 1
| 10> N         -0.505151851362   -0.529542494408    0.442219095610
| 11> H          0.967121079865    1.477815701425   -0.736751660976
| 12> H          0.267458816856    2.011950690407   -0.225053509068
| 13> H         -0.527578045359    2.223996102575    0.374626074434
| 14> **                         ****END OF INPUT****
================================================================================

                       ****************************
                       * Single Point Calculation *
                       ****************************

---------------------------------
CARTESIAN COORDINATES (ANGSTROEM)
---------------------------------
  N     -0.505152   -0.529542    0.442219
  H      0.967121    1.477816   -0.736752
  H      0.267459    2.011951   -0.225054
  H     -0.527578    2.223996    0.374626

----------------------------
CARTESIAN COORDINATES (A.U.)
----------------------------
  NO LB      ZA    FRAG     MASS         X           Y           Z
   0 N     7.0000    0    14.007   -0.954599   -1.000690    0.835673
   1 H     1.0000    0     1.008    1.827594    2.792667   -1.392259
   2 H     1.0000    0     1.008    0.505424    3.802036   -0.425289
   3 H     1.0000    0     1.008   -0.996978    4.202744    0.707941

--------------------------------
INTERNAL COORDINATES (ANGSTROEM)
--------------------------------
 N      0   0   0     0.000000000000     0.00000000     0.00000000
 H      1   0   0     2.754459394380     0.00000000     0.00000000
 H      2   1   0     1.018166227784    78.45738576     0.00000000
 H      3   2   1     1.018166230029   160.36337233     0.71264735

---------------------------
INTERNAL COORDINATES (A.U.)
---------------------------
 N      0   0   0     0.000000000000     0.00000000     0.00000000
 H      1   0   0     5.205173902384     0.00000000     0.00000000
 H      2   1   0     1.924055329319    78.45738576     0.00000000
 H      3   2   1     1.924055333562   160.36337233     0.71264735

---------------------
BASIS SET INFORMATION
---------------------
There are 2 groups of distinct atoms

 Group   1 Type N   : 10s4p1d contracted to 3s2p1d pattern {631/31/1}
 Group   2 Type H   : 4s contracted to 2s pattern {31}

Atom   0N    basis set group =>   1
Atom   1H    basis set group =>   2
Atom   2H    basis set group =>   2
Atom   3H    basis set group =>   2
------------------------------------------------------------------------------
                           ORCA GTO INTEGRAL CALCULATION
------------------------------------------------------------------------------

                         BASIS SET STATISTICS AND STARTUP INFO

 # of primitive gaussian shells          ...   27
 # of primitive gaussian functions       ...   39
 # of contracted shells                  ...   12
 # of contracted basis functions         ...   20
 Highest angular momentum                ...    2
 Maximum contraction depth               ...    6
 Integral package used                   ... LIBINT
 Integral threshhold            Thresh   ...  1.000e-10
 Primitive cut-off              TCut     ...  1.000e-11


------------------------------ INTEGRAL EVALUATION ----------------------------


 * One electron integrals 
 Pre-screening matrix                    ... done
 Shell pair data                         ... done (   0.000 sec)

-------------------------------------------------------------------------------
                                 ORCA SCF
-------------------------------------------------------------------------------

------------
SCF SETTINGS
------------
Hamiltonian:
 Density Functional     Method          .... DFT(GTOs)
 Exchange Functional    Exchange        .... WB97X-D3
 Correlation Functional Correlation     .... WB97X-D3
 Gradients option       PostSCFGGA      .... off
 Hybrid DFT is turned on
   Fraction HF Exchange ScalHFX         ....  0.195728
   Scaling of DF-GGA-X  ScalDFX         ....  0.000000
   Scaling of DF-GGA-C  ScalDFC         ....  1.000000
   Scaling of DF-LDA-C  ScalLDAC        ....  1.000000
   Perturbative correction              ....  0.000000
 Long-range corrected/Screened/Range-Separated Hybrid DFT is turned on
   Amount of maximum screened exact exchange              ....  0.804272
   Range separation parameter mu (erf(mu*r12)/r12)        ....  0.250000


General Settings:
 Integral files         IntName         .... Scan_23
 Hartree-Fock type      HFTyp           .... RHF
 Total Charge           Charge          ....    0
 Multiplicity           Mult            ....    1
 Number of Electrons    NEL             ....   10
 Basis Dimension        Dim             ....   20
 Nuclear Repulsion      ENuc            ....      5.3453073051 Eh

Convergence Acceleration:
 DIIS                   CNVDIIS         .... on
   Start iteration      DIISMaxIt       ....     0
   Startup error        DIISStart       ....  0.200000
   # of expansion vecs  DIISMaxEq       ....     5
   Bias factor          DIISBfac        ....   1.050
   Max. coefficient     DIISMaxC        ....  10.000
 Newton-Raphson         CNVNR           .... off
 SOSCF                  CNVSOSCF        .... off
 Level Shifting         CNVShift        .... off
 Zerner damping         CNVZerner       .... off
 Static damping         CNVDamp         .... off
 Fernandez-Rico         CNVRico         .... off

SCF Procedure:
 Maximum # iterations   MaxIter         ....   999
 SCF integral mode      SCFMode         .... Direct
   Integral package                     .... LIBINT
 Reset frequeny         DirectResetFreq ....    20
 Integral Threshold     Thresh          ....  1.000e-10 Eh
 Primitive CutOff       TCut            ....  1.000e-11 Eh

Convergence Tolerance:
 Convergence Check Mode ConvCheckMode   .... All-Criteria
 Convergence forced     ConvForced      .... 0
 Energy Change          TolE            ....  1.000e-06 Eh
 Max Density Change     TolMaxP         ....  1.000e-05
 RMS Density Change     TolRMSP         ....  1.000e-06
 DIIS Error             TolErr          ....  1.000e-06


Diagonalization of the overlap matrix:
Smallest eigenvalue                        ... 6.379e-02
Time for diagonalization                   ...    0.000 sec
Threshold for overlap eigenvalues          ... 1.000e-08
Number of eigenvalues below threshold      ... 0
Time for construction of square roots      ...    0.005 sec
Total time needed                          ...    0.006 sec

-------------------
DFT GRID GENERATION
-------------------

General Integration Accuracy     IntAcc      ...  4.340
Radial Grid Type                 RadialGrid  ... Gauss-Chebyshev
Angular Grid (max. acc.)         AngularGrid ... Lebedev-110
Angular grid pruning method      GridPruning ... 3 (G Style)
Weight generation scheme         WeightScheme... Becke
Basis function cutoff            BFCut       ...    1.0000e-10
Integration weight cutoff        WCut        ...    1.0000e-14
Grids for H and He will be reduced by one unit

# of grid points (after initial pruning)     ...   4084 (   0.0 sec)
# of grid points (after weights+screening)   ...   4039 (   0.0 sec)
nearest neighbour list constructed           ...    0.0 sec
Grid point re-assignment to atoms done       ...    0.0 sec
Grid point division into batches done        ...    0.0 sec
Reduced shell lists constructed in    0.0 sec

Total number of grid points                  ...     4039
Total number of batches                      ...       64
Average number of points per batch           ...       63
Average number of grid points per atom       ...     1010
Average number of shells per batch           ...    10.52 (87.69%)
Average number of basis functions per batch  ...    17.85 (89.23%)
Average number of large shells per batch     ...     8.89 (84.50%)
Average number of large basis fcns per batch ...    14.55 (81.55%)
Maximum spatial batch extension              ...  19.24, 17.62, 25.65 au
Average spatial batch extension              ...   5.33,  5.20,  5.79 au

Time for grid setup =    0.022 sec

------------------------------
INITIAL GUESS: MODEL POTENTIAL
------------------------------
Loading Hartree-Fock densities                     ... done
Calculating cut-offs                               ... done
Setting up the integral package                    ... done
Initializing the effective Hamiltonian             ... done
Starting the Coulomb interaction                   ... done (   0.0 sec)
Reading the grid                                   ... done
Mapping shells                                     ... done
Starting the XC term evaluation                    ... done (   0.0 sec)
  promolecular density results
     # of electrons  =      9.995620824
     EX              =     -7.184202487
     EC              =     -0.265186282
     EX+EC           =     -7.449388769
Transforming the Hamiltonian                       ... done (   0.0 sec)
Diagonalizing the Hamiltonian                      ... done (   0.0 sec)
Back transforming the eigenvectors                 ... done (   0.0 sec)
Now organizing SCF variables                       ... done
                      ------------------
                      INITIAL GUESS DONE (   0.1 sec)
                      ------------------
--------------
SCF ITERATIONS
--------------
ITER       Energy         Delta-E        Max-DP      RMS-DP      [F,P]   Gradient Norm
               ***  Starting incremental Fock matrix formation  ***
                             ****Resetting KDIIS****
                             ****Turning on KDIIS(Cayley)****
  0    -55.9089148206   0.000000000000 0.02888263  0.00311281  0.1302227   0.103188922
  1    -55.9303973136  -0.021482493025 0.03553321  0.00476775  0.1237486   0.088287719
  2    -55.9640176156  -0.033620301993 0.07510826  0.01168444  0.1128714   0.070235244
  3    -56.0212189285  -0.057201312897 0.15279418  0.02027998  0.0646744   0.032367074
  4    -56.0224886587  -0.001269730175 0.16892760  0.02238291  0.0666412   0.051697189
  5    -56.0154928466   0.006995812122 0.02075769  0.00310483  0.0657775   0.029568890
  6    -56.0059568417   0.009536004812 0.00613889  0.00071323  0.0739606   0.033372773
  7    -56.0072572337  -0.001300391996 0.33943408  0.04208344  0.0730967   0.033183498
  8    -55.9909848888   0.016272344943 0.12445062  0.01564675  0.0977758   0.045191666
  9    -55.9160857563   0.074899132541 0.25786554  0.03174226  0.1236477   0.058631719
 10    -56.0371537015  -0.121067945250 0.08315970  0.01026681  0.0294412   0.013285628
 11    -56.0400845854  -0.002930883937 0.04589895  0.00563243  0.0162983   0.007550290
 12    -56.0408960085  -0.000811423087 0.01068485  0.00131369  0.0092363   0.004143080
 13    -56.0412425880  -0.000346579512 0.00216371  0.00038550  0.0033082   0.001550286
 14    -56.0412103691   0.000032218970 0.00908193  0.00167321  0.0042796   0.002007983
 15    -56.0412865452  -0.000076176084 0.00526871  0.00081664  0.0004046   0.000305648
 16    -56.0413003330  -0.000013787831 0.01032086  0.00162207  0.0005518   0.000414106
 17    -56.0413149530  -0.000014619963 0.00062700  0.00009758  0.0002952   0.000182524
                          ***Energy convergence achieved***
 18    -56.0413154443  -0.000000491368 0.00009566  0.00001511  0.0000239   0.000021381

            ***Energy convergence in two consecutive cycles with***
                    ***'reasonable' density convergence***
                       *** signaling convergence ***

                    *** KDIIS BlockDiag ( 0.000 sec) ***

               *****************************************************
               *                     SUCCESS                       *
               *           SCF CONVERGED AFTER  19 CYCLES          *
               *****************************************************

Setting up the final grid:

General Integration Accuracy     IntAcc      ...  4.670
Radial Grid Type                 RadialGrid  ... Gauss-Chebyshev
Angular Grid (max. acc.)         AngularGrid ... Lebedev-302
Angular grid pruning method      GridPruning ... 3 (G Style)
Weight generation scheme         WeightScheme... Becke
Basis function cutoff            BFCut       ...    1.0000e-10
Integration weight cutoff        WCut        ...    1.0000e-14
Grids for H and He will be reduced by one unit

# of grid points (after initial pruning)     ...  16394 (   0.0 sec)
# of grid points (after weights+screening)   ...  16244 (   0.0 sec)
nearest neighbour list constructed           ...    0.0 sec
Grid point re-assignment to atoms done       ...    0.0 sec
Grid point division into batches done        ...    0.0 sec
Reduced shell lists constructed in    0.1 sec

Total number of grid points                  ...    16244
Total number of batches                      ...      255
Average number of points per batch           ...       63
Average number of grid points per atom       ...     4061
Average number of shells per batch           ...     9.64 (80.37%)
Average number of basis functions per batch  ...    16.21 (81.07%)
Average number of large shells per batch     ...     7.87 (81.57%)
Average number of large basis fcns per batch ...    12.46 (76.85%)
Maximum spatial batch extension              ...  16.88, 14.37, 16.92 au
Average spatial batch extension              ...   3.29,  3.31,  3.34 au

Final grid set up in    0.1 sec
Final integration                            ... done (   0.1 sec)
Change in XC energy                          ...    -0.000313199
Integrated number of electrons               ...     9.999988264
Previous integrated no of electrons          ...     9.998109426

----------------
TOTAL SCF ENERGY
----------------

Total Energy       :          -56.04162865 Eh           -1524.97024 eV

Components:
Nuclear Repulsion  :            5.34530731 Eh             145.45321 eV
Electronic Energy  :          -61.38693596 Eh           -1670.42345 eV
One Electron Energy:          -86.07609481 Eh           -2342.24962 eV
Two Electron Energy:           24.68915885 Eh             671.82617 eV

Virial components:
Potential Energy   :         -111.50469436 Eh           -3034.19699 eV
Kinetic Energy     :           55.46306571 Eh            1509.22675 eV
Virial Ratio       :            2.01043150


DFT components:
N(Alpha)           :        4.999994132153 electrons
N(Beta)            :        4.999994132153 electrons
N(Total)           :        9.999988264305 electrons
E(XC)              :       -5.111857688832 Eh       

---------------
SCF CONVERGENCE
---------------

  Last Energy change         ...   -9.3610e-09  Tolerance :   1.0000e-06
  Last MAX-Density change    ...    6.2427e-05  Tolerance :   1.0000e-05
  Last RMS-Density change    ...    6.8329e-06  Tolerance :   1.0000e-06
  Last DIIS Error            ...    1.5542e-05  Tolerance :   1.0000e-06

             **** THE GBW FILE WAS UPDATED (Scan_23.gbw) ****
             **** DENSITY FILE WAS UPDATED (Scan_23.scfp.tmp) ****
             **** ENERGY FILE WAS UPDATED (Scan_23.en.tmp) ****
----------------
ORBITAL ENERGIES
----------------

  NO   OCC          E(Eh)            E(eV) 
   0   2.0000     -14.554849      -396.0576 
   1   2.0000      -0.815796       -22.1989 
   2   2.0000      -0.594942       -16.1892 
   3   2.0000      -0.350093        -9.5265 
   4   2.0000      -0.323663        -8.8073 
   5   0.0000      -0.120407        -3.2764 
   6   0.0000      -0.077039        -2.0963 
   7   0.0000       0.193340         5.2611 
   8   0.0000       0.715386        19.4666 
   9   0.0000       0.764489        20.8028 
  10   0.0000       0.792321        21.5601 
  11   0.0000       0.829183        22.5632 
  12   0.0000       0.907172        24.6854 
  13   0.0000       0.966498        26.2997 
  14   0.0000       1.030969        28.0541 
  15   0.0000       1.805002        49.1166 
  16   0.0000       1.807007        49.1712 
  17   0.0000       1.816736        49.4359 
  18   0.0000       1.836337        49.9693 
  19   0.0000       1.842853        50.1466 

                    ********************************
                    * MULLIKEN POPULATION ANALYSIS *
                    ********************************

-----------------------
MULLIKEN ATOMIC CHARGES
-----------------------
   0 N :   -0.101648
   1 H :    0.090969
   2 H :   -0.080123
   3 H :    0.090802
Sum of atomic charges:   -0.0000000

--------------------------------
MULLIKEN REDUCED ORBITAL CHARGES
--------------------------------
  0 N s       :     3.999518  s :     3.999518
      pz      :     1.620389  p :     3.101789
      px      :     1.329445
      py      :     0.151955
      dz2     :     0.000061  d :     0.000340
      dxz     :     0.000088
      dyz     :     0.000032
      dx2y2   :     0.000103
      dxy     :     0.000057
  1 H s       :     0.909031  s :     0.909031
  2 H s       :     1.080123  s :     1.080123
  3 H s       :     0.909198  s :     0.909198


                     *******************************
                     * LOEWDIN POPULATION ANALYSIS *
                     *******************************

----------------------
LOEWDIN ATOMIC CHARGES
----------------------
   0 N :   -0.110916
   1 H :    0.050024
   2 H :    0.011340
   3 H :    0.049551

-------------------------------
LOEWDIN REDUCED ORBITAL CHARGES
-------------------------------
  0 N s       :     3.998071  s :     3.998071
      pz      :     1.623039  p :     3.112413
      px      :     1.334180
      py      :     0.155194
      dz2     :     0.000067  d :     0.000431
      dxz     :     0.000094
      dyz     :     0.000049
      dx2y2   :     0.000136
      dxy     :     0.000086
  1 H s       :     0.949976  s :     0.949976
  2 H s       :     0.988660  s :     0.988660
  3 H s       :     0.950449  s :     0.950449


                      *****************************
                      * MAYER POPULATION ANALYSIS *
                      *****************************

  NA   - Mulliken gross atomic population
  ZA   - Total nuclear charge
  QA   - Mulliken gross atomic charge
  VA   - Mayer's total valence
  BVA  - Mayer's bonded valence
  FA   - Mayer's free valence

  ATOM       NA         ZA         QA         VA         BVA        FA
  0 N      7.1016     7.0000    -0.1016     1.0097     1.0097    -0.0000
  1 H      0.9090     1.0000     0.0910     0.9571     0.9571    -0.0000
  2 H      1.0801     1.0000    -0.0801     0.9924     0.9924    -0.0000
  3 H      0.9092     1.0000     0.0908     0.9569     0.9569    -0.0000

  Mayer bond orders larger than 0.1
B(  0-N ,  1-H ) :   0.5014 B(  0-N ,  3-H ) :   0.4998 B(  1-H ,  2-H ) :   0.4912 
B(  2-H ,  3-H ) :   0.4927 

-------
TIMINGS
-------

Total SCF time: 0 days 0 hours 0 min 5 sec 

Total time                  ....       5.672 sec
Sum of individual times     ....       5.479 sec  ( 96.6%)

Fock matrix formation       ....       5.201 sec  ( 91.7%)
  XC integration            ....       1.016 sec  ( 19.5% of F)
    Basis function eval.    ....       0.255 sec  ( 25.1% of XC)
    Density eval.           ....       0.042 sec  (  4.2% of XC)
    XC-Functional eval.     ....       0.306 sec  ( 30.2% of XC)
    XC-Potential eval.      ....       0.020 sec  (  2.0% of XC)
Diagonalization             ....       0.020 sec  (  0.4%)
Density matrix formation    ....       0.000 sec  (  0.0%)
Population analysis         ....       0.009 sec  (  0.2%)
Initial guess               ....       0.114 sec  (  2.0%)
Orbital Transformation      ....       0.000 sec  (  0.0%)
Orbital Orthonormalization  ....       0.000 sec  (  0.0%)
DIIS solution               ....       0.000 sec  (  0.0%)
Grid generation             ....       0.134 sec  (  2.4%)


-------------------------------------------------------------------------------
                          DFT DISPERSION CORRECTION                            
                                                                               
                              DFTD3 V3.1  Rev 1                                
                              USING zero damping                               
-------------------------------------------------------------------------------
The omegaB97X-D3 functional is recognized. Fit by Chai et al.
Active option DFTDOPT                   ...         3   

molecular C6(AA) [au] = 169.126830 


            DFT-D V3
 parameters
 s6 scaling factor         :     1.0000 
 rs6 scaling factor        :     1.2810 
 s8 scaling factor         :     1.0000 
 rs8 scaling factor        :     1.0940 
 Damping factor alpha6     :    14.0000 
 Damping factor alpha8     :    16.0000 
 ad hoc parameters k1-k3   :    16.0000     1.3333    -4.0000 

 Edisp/kcal,au: -0.298431652147  -0.000475581059 
 E6   /kcal   :  -0.053769670 
 E8   /kcal   :  -0.244661982 
 % E8         :  81.982584776 

-------------------------   ----------------
Dispersion correction           -0.000475581
-------------------------   ----------------


-------------------------   --------------------
FINAL SINGLE POINT ENERGY       -56.042104233290
-------------------------   --------------------


                            ***************************************
                            *     ORCA property calculations      *
                            ***************************************

                                    ---------------------
                                    Active property flags
                                    ---------------------
   (+) Dipole Moment


------------------------------------------------------------------------------
                       ORCA ELECTRIC PROPERTIES CALCULATION
------------------------------------------------------------------------------

Dipole Moment Calculation                       ... on
Quadrupole Moment Calculation                   ... off
Polarizability Calculation                      ... off
GBWName                                         ... Scan_23.gbw
Electron density file                           ... Scan_23.scfp.tmp

-------------
DIPOLE MOMENT
-------------
                                X             Y             Z
Electronic contribution:     -1.57280      -5.17004       1.35497
Nuclear contribution   :      1.71411       5.63211      -1.47608
                        -----------------------------------------
Total Dipole Moment    :      0.14132       0.46206      -0.12112
                        -----------------------------------------
Magnitude (a.u.)       :      0.49814
Magnitude (Debye)      :      1.26617


Timings for individual modules:

Sum of individual times         ...        6.011 sec (=   0.100 min)
GTO integral calculation        ...        0.316 sec (=   0.005 min)   5.3 %
SCF iterations                  ...        5.695 sec (=   0.095 min)  94.7 %
                             ****ORCA TERMINATED NORMALLY****
TOTAL RUN TIME: 0 days 0 hours 0 minutes 6 seconds 344 msec
