
                                 *****************
                                 * O   R   C   A *
                                 *****************

           --- An Ab Initio, DFT and Semiempirical electronic structure package ---

                  #######################################################
                  #                        -***-                        #
                  #  Department of molecular theory and spectroscopy    #
                  #              Directorship: Frank Neese              #
                  # Max Planck Institute for Chemical Energy Conversion #
                  #                  D-45470 Muelheim/Ruhr              #
                  #                       Germany                       #
                  #                                                     #
                  #                  All rights reserved                #
                  #                        -***-                        #
                  #######################################################


                         Program Version 4.0.0.2 - RELEASE -


 With contributions from (in alphabetic order):
   Daniel Aravena         : Magnetic Properties
   Michael Atanasov       : Ab Initio Ligand Field Theory
   Ute Becker             : Parallelization
   Martin Brehm           : Molecular dynamics
   Dmytro Bykov           : SCF Hessian
   Vijay G. Chilkuri      : MRCI spin determinant printing
   Dipayan Datta          : RHF DLPNO-CCSD density
   Achintya Kumar Dutta   : EOM-CC, STEOM-CC
   Dmitry Ganyushin       : Spin-Orbit,Spin-Spin,Magnetic field MRCI
   Yang Guo               : DLPNO-NEVPT2, CIM, IAO-localization
   Andreas Hansen         : Spin unrestricted coupled pair/coupled cluster methods
   Lee Huntington         : MR-EOM, pCC
   Robert Izsak           : Overlap fitted RIJCOSX, COSX-SCS-MP3, EOM
   Christian Kollmar      : KDIIS, OOCD, Brueckner-CCSD(T), CCSD density
   Simone Kossmann        : Meta GGA functionals, TD-DFT gradient, OOMP2, MP2 Hessian
   Martin Krupicka        : AUTO-CI
   Dagmar Lenk            : GEPOL surface
   Dimitrios Liakos       : Extrapolation schemes; parallel MDCI
   Dimitrios Manganas     : ROCIS; embedding schemes
   Dimitrios Pantazis     : SARC Basis sets
   Taras Petrenko         : DFT Hessian,TD-DFT gradient, ASA, ECA, R-Raman, ABS, FL, XAS/XES, NRVS
   Peter Pinski           : DLPNO-MP2
   Christoph Reimann      : Effective Core Potentials
   Marius Retegan         : Local ZFS, SOC
   Christoph Riplinger    : Optimizer, TS searches, QM/MM, DLPNO-CCSD(T), (RO)-DLPNO pert. Triples
   Tobias Risthaus        : Range-separated hybrids, TD-DFT gradient, RPA, STAB
   Michael Roemelt        : Restricted open shell CIS
   Masaaki Saitow         : Open-shell DLPNO
   Barbara Sandhoefer     : DKH picture change effects
   Kantharuban Sivalingam : CASSCF convergence, NEVPT2, FIC-MRCI
   Georgi Stoychev        : AutoAux
   Boris Wezisla          : Elementary symmetry handling
   Frank Wennmohs         : Technical directorship


 We gratefully acknowledge several colleagues who have allowed us to
 interface, adapt or use parts of their codes:
   Stefan Grimme, W. Hujo, H. Kruse,             : VdW corrections, initial TS optimization,
                  C. Bannwarth                     DFT functionals, gCP, sTDA/sTD-DF
   Ed Valeev                                     : LibInt (2-el integral package), F12 methods
   Garnet Chan, S. Sharma, J. Yang, R. Olivares  : DMRG
   Ulf Ekstrom                                   : XCFun DFT Library
   Mihaly Kallay                                 : mrcc  (arbitrary order and MRCC methods)
   Jiri Pittner, Ondrej Demel                    : Mk-CCSD
   Frank Weinhold                                : gennbo (NPA and NBO analysis)
   Christopher J. Cramer and Donald G. Truhlar   : smd solvation model


 Your calculation uses the libint2 library for the computation of 2-el integrals
 For citations please refer to: http://libint.valeyev.net

 This ORCA versions uses:
   CBLAS   interface :  Fast vector & matrix operations
   LAPACKE interface :  Fast linear algebra routines
   SCALAPACK package :  Parallel linear algebra routines


Your calculation utilizes the atom-pairwise dispersion correction
with the zero-damping scheme (D30)
Cite in your paper:
S.Grimme, J.Antony, S.Ehrlich and H.Krieg, J.Chem.Phys., 132, (2010), 154104 
   

XCFun DFT library Copyright 2009-2010 Ulf Ekstrom and contributors.
See http://admol.org/xcfun for more information. This is free soft-
ware; see the source code for copying conditions. There is ABSOLUTELY
NO WARRANTY; not even for MERCHANTABILITY or FITNESS FOR A PARTICULAR
PURPOSE. For details see the documentation. Scientific users of this 
library should cite U. Ekstrom, L. Visscher, R. Bast, A. J. Thorvald-
sen and K. Ruud; J.Chem.Theor.Comp. 2010, DOI: 10.1021/ct100117s
XCFun Version 0.99 
Your calculation utilizes the basis: 6-31G(d)
   H-He, Li-Ne : W. J. Hehre, R. Ditchfield and J.A. Pople, J. Chem. Phys. 56, 2257 (1972).
                 Note: He and Ne are unpublished basis sets taken from the Gaussian program.
                 Note: Li and B from J. D. Dill and J. A. Pople, J. Chem. Phys. 62, 2921 (1975).
   Na - Ar     : M. M. Francl, W. J. Pietro, W. J. Hehre, J. S. Binkley, M. S. Gordon, 
                 D. J. DeFrees and J. A. Pople, J. Chem. Phys. 77, 3654 (1982).
   K - Zn      : V. A. Rassolov, J. A. Pople, M. A. Ratner, and T. L. Windus, J. Chem. Phys. 109, 1223 (1998).

================================================================================
                                        WARNINGS
                       Please study these warnings very carefully!
================================================================================

Warning: TCutStore was < 0. Adjusted to Thresh (uncritical)

INFO   : the flag for use of LIBINT has been found!

================================================================================
                                       INPUT FILE
================================================================================
NAME = initial25.inp
|  1> ! WB97X-D3 6-31G(d) VerySlowConv
|  2> ! KDIIS NOSOSCF
|  3> %base "Scan_25"
|  4> 
|  5> %scf
|  6> maxiter 999
|  7> end
|  8> 
|  9> * xyz 0 1
| 10> N         -0.550346034526   -0.678084547318    0.481168466288
| 11> H          0.985277046471    1.530325612157   -0.752303299553
| 12> H          0.280231511659    2.053530743586   -0.235792327799
| 13> H         -0.513312523603    2.278448191575    0.361967161064
| 14> **                         ****END OF INPUT****
================================================================================

                       ****************************
                       * Single Point Calculation *
                       ****************************

---------------------------------
CARTESIAN COORDINATES (ANGSTROEM)
---------------------------------
  N     -0.550346   -0.678085    0.481168
  H      0.985277    1.530326   -0.752303
  H      0.280232    2.053531   -0.235792
  H     -0.513313    2.278448    0.361967

----------------------------
CARTESIAN COORDINATES (A.U.)
----------------------------
  NO LB      ZA    FRAG     MASS         X           Y           Z
   0 N     7.0000    0    14.007   -1.040003   -1.281394    0.909277
   1 H     1.0000    0     1.008    1.861904    2.891896   -1.421647
   2 H     1.0000    0     1.008    0.529561    3.880611   -0.445583
   3 H     1.0000    0     1.008   -0.970020    4.305643    0.684019

--------------------------------
INTERNAL COORDINATES (ANGSTROEM)
--------------------------------
 N      0   0   0     0.000000000000     0.00000000     0.00000000
 H      1   0   0     2.959166483402     0.00000000     0.00000000
 H      2   1   0     1.018634576114    79.20949851     0.00000000
 H      3   2   1     1.018634576693   161.83634761     0.66478730

---------------------------
INTERNAL COORDINATES (A.U.)
---------------------------
 N      0   0   0     0.000000000000     0.00000000     0.00000000
 H      1   0   0     5.592014238309     0.00000000     0.00000000
 H      2   1   0     1.924940379398    79.20949851     0.00000000
 H      3   2   1     1.924940380494   161.83634761     0.66478730

---------------------
BASIS SET INFORMATION
---------------------
There are 2 groups of distinct atoms

 Group   1 Type N   : 10s4p1d contracted to 3s2p1d pattern {631/31/1}
 Group   2 Type H   : 4s contracted to 2s pattern {31}

Atom   0N    basis set group =>   1
Atom   1H    basis set group =>   2
Atom   2H    basis set group =>   2
Atom   3H    basis set group =>   2
------------------------------------------------------------------------------
                           ORCA GTO INTEGRAL CALCULATION
------------------------------------------------------------------------------

                         BASIS SET STATISTICS AND STARTUP INFO

 # of primitive gaussian shells          ...   27
 # of primitive gaussian functions       ...   39
 # of contracted shells                  ...   12
 # of contracted basis functions         ...   20
 Highest angular momentum                ...    2
 Maximum contraction depth               ...    6
 Integral package used                   ... LIBINT
 Integral threshhold            Thresh   ...  1.000e-10
 Primitive cut-off              TCut     ...  1.000e-11


------------------------------ INTEGRAL EVALUATION ----------------------------


 * One electron integrals 
 Pre-screening matrix                    ... done
 Shell pair data                         ... done (   0.000 sec)

-------------------------------------------------------------------------------
                                 ORCA SCF
-------------------------------------------------------------------------------

------------
SCF SETTINGS
------------
Hamiltonian:
 Density Functional     Method          .... DFT(GTOs)
 Exchange Functional    Exchange        .... WB97X-D3
 Correlation Functional Correlation     .... WB97X-D3
 Gradients option       PostSCFGGA      .... off
 Hybrid DFT is turned on
   Fraction HF Exchange ScalHFX         ....  0.195728
   Scaling of DF-GGA-X  ScalDFX         ....  0.000000
   Scaling of DF-GGA-C  ScalDFC         ....  1.000000
   Scaling of DF-LDA-C  ScalLDAC        ....  1.000000
   Perturbative correction              ....  0.000000
 Long-range corrected/Screened/Range-Separated Hybrid DFT is turned on
   Amount of maximum screened exact exchange              ....  0.804272
   Range separation parameter mu (erf(mu*r12)/r12)        ....  0.250000


General Settings:
 Integral files         IntName         .... Scan_25
 Hartree-Fock type      HFTyp           .... RHF
 Total Charge           Charge          ....    0
 Multiplicity           Mult            ....    1
 Number of Electrons    NEL             ....   10
 Basis Dimension        Dim             ....   20
 Nuclear Repulsion      ENuc            ....      5.0639535966 Eh

Convergence Acceleration:
 DIIS                   CNVDIIS         .... on
   Start iteration      DIISMaxIt       ....     0
   Startup error        DIISStart       ....  0.200000
   # of expansion vecs  DIISMaxEq       ....     5
   Bias factor          DIISBfac        ....   1.050
   Max. coefficient     DIISMaxC        ....  10.000
 Newton-Raphson         CNVNR           .... off
 SOSCF                  CNVSOSCF        .... off
 Level Shifting         CNVShift        .... off
 Zerner damping         CNVZerner       .... off
 Static damping         CNVDamp         .... off
 Fernandez-Rico         CNVRico         .... off

SCF Procedure:
 Maximum # iterations   MaxIter         ....   999
 SCF integral mode      SCFMode         .... Direct
   Integral package                     .... LIBINT
 Reset frequeny         DirectResetFreq ....    20
 Integral Threshold     Thresh          ....  1.000e-10 Eh
 Primitive CutOff       TCut            ....  1.000e-11 Eh

Convergence Tolerance:
 Convergence Check Mode ConvCheckMode   .... All-Criteria
 Convergence forced     ConvForced      .... 0
 Energy Change          TolE            ....  1.000e-06 Eh
 Max Density Change     TolMaxP         ....  1.000e-05
 RMS Density Change     TolRMSP         ....  1.000e-06
 DIIS Error             TolErr          ....  1.000e-06


Diagonalization of the overlap matrix:
Smallest eigenvalue                        ... 6.350e-02
Time for diagonalization                   ...    0.000 sec
Threshold for overlap eigenvalues          ... 1.000e-08
Number of eigenvalues below threshold      ... 0
Time for construction of square roots      ...    0.005 sec
Total time needed                          ...    0.006 sec

-------------------
DFT GRID GENERATION
-------------------

General Integration Accuracy     IntAcc      ...  4.340
Radial Grid Type                 RadialGrid  ... Gauss-Chebyshev
Angular Grid (max. acc.)         AngularGrid ... Lebedev-110
Angular grid pruning method      GridPruning ... 3 (G Style)
Weight generation scheme         WeightScheme... Becke
Basis function cutoff            BFCut       ...    1.0000e-10
Integration weight cutoff        WCut        ...    1.0000e-14
Grids for H and He will be reduced by one unit

# of grid points (after initial pruning)     ...   4084 (   0.0 sec)
# of grid points (after weights+screening)   ...   4042 (   0.0 sec)
nearest neighbour list constructed           ...    0.0 sec
Grid point re-assignment to atoms done       ...    0.0 sec
Grid point division into batches done        ...    0.0 sec
Reduced shell lists constructed in    0.0 sec

Total number of grid points                  ...     4042
Total number of batches                      ...       65
Average number of points per batch           ...       62
Average number of grid points per atom       ...     1010
Average number of shells per batch           ...    10.36 (86.36%)
Average number of basis functions per batch  ...    17.52 (87.58%)
Average number of large shells per batch     ...     8.74 (84.36%)
Average number of large basis fcns per batch ...    14.20 (81.06%)
Maximum spatial batch extension              ...  25.65, 17.62, 25.65 au
Average spatial batch extension              ...   5.33,  5.12,  5.59 au

Time for grid setup =    0.022 sec

------------------------------
INITIAL GUESS: MODEL POTENTIAL
------------------------------
Loading Hartree-Fock densities                     ... done
Calculating cut-offs                               ... done
Setting up the integral package                    ... done
Initializing the effective Hamiltonian             ... done
Starting the Coulomb interaction                   ... done (   0.0 sec)
Reading the grid                                   ... done
Mapping shells                                     ... done
Starting the XC term evaluation                    ... done (   0.0 sec)
  promolecular density results
     # of electrons  =      9.995600962
     EX              =     -7.183007423
     EC              =     -0.264246606
     EX+EC           =     -7.447254030
Transforming the Hamiltonian                       ... done (   0.0 sec)
Diagonalizing the Hamiltonian                      ... done (   0.0 sec)
Back transforming the eigenvectors                 ... done (   0.0 sec)
Now organizing SCF variables                       ... done
                      ------------------
                      INITIAL GUESS DONE (   0.1 sec)
                      ------------------
--------------
SCF ITERATIONS
--------------
ITER       Energy         Delta-E        Max-DP      RMS-DP      [F,P]   Gradient Norm
               ***  Starting incremental Fock matrix formation  ***
                             ****Resetting KDIIS****
                             ****Turning on KDIIS(Cayley)****
  0    -55.8543705033   0.000000000000 0.03185507  0.00352424  0.1266354   0.110844212
  1    -55.8787920238  -0.024421520550 0.03586440  0.00495809  0.1169488   0.094813563
  2    -55.9148682162  -0.036076192337 0.06888469  0.01168443  0.1161380   0.078056482
  3    -55.9839774289  -0.069109212753 0.14705931  0.02078123  0.0894614   0.045141933
  4    -56.0171758283  -0.033198399402 0.14228053  0.01979123  0.0603208   0.044894411
  5    -55.9892474175   0.027928410828 0.01336935  0.00195875  0.0777730   0.034904563
  6    -55.9824639524   0.006783465076 0.01486174  0.00220621  0.0818714   0.036957828
  7    -55.9899687508  -0.007504798422 0.01468368  0.00205690  0.0774128   0.035087408
  8    -55.9836844515   0.006284299342 0.34256253  0.04240579  0.0814793   0.036639554
  9    -55.9847005549  -0.001016103414 0.14664834  0.01854299  0.0939351   0.044124418
 10    -56.0279598625  -0.043259307605 0.05136347  0.00616730  0.0057516   0.004461642
 11    -56.0266884857   0.001271376803 0.08532192  0.01018720  0.0196026   0.009374326
 12    -56.0246979047   0.001990580980 0.04236368  0.00495190  0.0289873   0.013089501
 13    -56.0282479497  -0.003550044958 0.00825899  0.00093978  0.0057291   0.002634407
 14    -56.0283972965  -0.000149346807 0.00412197  0.00050128  0.0021145   0.000956546
 15    -56.0284200697  -0.000022773210 0.00069126  0.00010860  0.0002275   0.000135625
 16    -56.0284212809  -0.000001211183 0.00487894  0.00078520  0.0002170   0.000159094
 17    -56.0284295339  -0.000008252984 0.00863175  0.00134444  0.0001373   0.000086343
 18    -56.0284353066  -0.000005772701 0.00053259  0.00008602  0.0001271   0.000081948
                          ***Energy convergence achieved***
 19    -56.0284353453  -0.000000038698 0.00042948  0.00006660  0.0000508   0.000038091
               *** Restarting incremental Fock matrix formation ***
                             ****Resetting KDIIS****

            ***Energy convergence in two consecutive cycles with***
                    ***'reasonable' density convergence***
                       *** signaling convergence ***

                    *** KDIIS BlockDiag ( 0.000 sec) ***

               *****************************************************
               *                     SUCCESS                       *
               *           SCF CONVERGED AFTER  20 CYCLES          *
               *****************************************************

Setting up the final grid:

General Integration Accuracy     IntAcc      ...  4.670
Radial Grid Type                 RadialGrid  ... Gauss-Chebyshev
Angular Grid (max. acc.)         AngularGrid ... Lebedev-302
Angular grid pruning method      GridPruning ... 3 (G Style)
Weight generation scheme         WeightScheme... Becke
Basis function cutoff            BFCut       ...    1.0000e-10
Integration weight cutoff        WCut        ...    1.0000e-14
Grids for H and He will be reduced by one unit

# of grid points (after initial pruning)     ...  16394 (   0.0 sec)
# of grid points (after weights+screening)   ...  16252 (   0.0 sec)
nearest neighbour list constructed           ...    0.0 sec
Grid point re-assignment to atoms done       ...    0.0 sec
Grid point division into batches done        ...    0.0 sec
Reduced shell lists constructed in    0.1 sec

Total number of grid points                  ...    16252
Total number of batches                      ...      256
Average number of points per batch           ...       63
Average number of grid points per atom       ...     4063
Average number of shells per batch           ...     9.48 (79.02%)
Average number of basis functions per batch  ...    15.89 (79.47%)
Average number of large shells per batch     ...     7.72 (81.45%)
Average number of large basis fcns per batch ...    12.14 (76.40%)
Maximum spatial batch extension              ...  16.88, 14.76, 16.92 au
Average spatial batch extension              ...   3.33,  3.34,  3.36 au

Final grid set up in    0.1 sec
Final integration                            ... done (   0.1 sec)
Change in XC energy                          ...    -0.000277126
Integrated number of electrons               ...     9.999980774
Previous integrated no of electrons          ...     9.997767879

----------------
TOTAL SCF ENERGY
----------------

Total Energy       :          -56.02871256 Eh           -1524.61878 eV

Components:
Nuclear Repulsion  :            5.06395360 Eh             137.79718 eV
Electronic Energy  :          -61.09266615 Eh           -1662.41596 eV
One Electron Energy:          -85.52478426 Eh           -2327.24769 eV
Two Electron Energy:           24.43211810 Eh             664.83173 eV

Virial components:
Potential Energy   :         -111.51240201 Eh           -3034.40672 eV
Kinetic Energy     :           55.48368945 Eh            1509.78795 eV
Virial Ratio       :            2.00982312


DFT components:
N(Alpha)           :        4.999990387075 electrons
N(Beta)            :        4.999990387075 electrons
N(Total)           :        9.999980774150 electrons
E(XC)              :       -5.113123590075 Eh       

---------------
SCF CONVERGENCE
---------------

  Last Energy change         ...   -8.6992e-08  Tolerance :   1.0000e-06
  Last MAX-Density change    ...    1.0490e-05  Tolerance :   1.0000e-05
  Last RMS-Density change    ...    1.2794e-06  Tolerance :   1.0000e-06
  Last DIIS Error            ...    4.8766e-05  Tolerance :   1.0000e-06

             **** THE GBW FILE WAS UPDATED (Scan_25.gbw) ****
             **** DENSITY FILE WAS UPDATED (Scan_25.scfp.tmp) ****
             **** ENERGY FILE WAS UPDATED (Scan_25.en.tmp) ****
----------------
ORBITAL ENERGIES
----------------

  NO   OCC          E(Eh)            E(eV) 
   0   2.0000     -14.551067      -395.9547 
   1   2.0000      -0.813006       -22.1230 
   2   2.0000      -0.594036       -16.1645 
   3   2.0000      -0.348055        -9.4711 
   4   2.0000      -0.314110        -8.5474 
   5   0.0000      -0.128304        -3.4913 
   6   0.0000      -0.075363        -2.0507 
   7   0.0000       0.193876         5.2756 
   8   0.0000       0.705299        19.1922 
   9   0.0000       0.768190        20.9035 
  10   0.0000       0.794626        21.6229 
  11   0.0000       0.836258        22.7557 
  12   0.0000       0.899984        24.4898 
  13   0.0000       0.953292        25.9404 
  14   0.0000       1.031020        28.0555 
  15   0.0000       1.803938        49.0877 
  16   0.0000       1.805953        49.1425 
  17   0.0000       1.818270        49.4777 
  18   0.0000       1.838054        50.0160 
  19   0.0000       1.843862        50.1740 

                    ********************************
                    * MULLIKEN POPULATION ANALYSIS *
                    ********************************

-----------------------
MULLIKEN ATOMIC CHARGES
-----------------------
   0 N :   -0.101477
   1 H :    0.091394
   2 H :   -0.081267
   3 H :    0.091350
Sum of atomic charges:    0.0000000

--------------------------------
MULLIKEN REDUCED ORBITAL CHARGES
--------------------------------
  0 N s       :     3.999620  s :     3.999620
      pz      :     1.668888  p :     3.101587
      px      :     1.289596
      py      :     0.143103
      dz2     :     0.000061  d :     0.000270
      dxz     :     0.000075
      dyz     :     0.000017
      dx2y2   :     0.000075
      dxy     :     0.000042
  1 H s       :     0.908606  s :     0.908606
  2 H s       :     1.081267  s :     1.081267
  3 H s       :     0.908650  s :     0.908650


                     *******************************
                     * LOEWDIN POPULATION ANALYSIS *
                     *******************************

----------------------
LOEWDIN ATOMIC CHARGES
----------------------
   0 N :   -0.107364
   1 H :    0.049282
   2 H :    0.009567
   3 H :    0.048515

-------------------------------
LOEWDIN REDUCED ORBITAL CHARGES
-------------------------------
  0 N s       :     3.998929  s :     3.998929
      pz      :     1.670607  p :     3.108130
      px      :     1.292756
      py      :     0.144766
      dz2     :     0.000063  d :     0.000306
      dxz     :     0.000077
      dyz     :     0.000024
      dx2y2   :     0.000088
      dxy     :     0.000054
  1 H s       :     0.950718  s :     0.950718
  2 H s       :     0.990433  s :     0.990433
  3 H s       :     0.951485  s :     0.951485


                      *****************************
                      * MAYER POPULATION ANALYSIS *
                      *****************************

  NA   - Mulliken gross atomic population
  ZA   - Total nuclear charge
  QA   - Mulliken gross atomic charge
  VA   - Mayer's total valence
  BVA  - Mayer's bonded valence
  FA   - Mayer's free valence

  ATOM       NA         ZA         QA         VA         BVA        FA
  0 N      7.1015     7.0000    -0.1015     1.0000     1.0000     0.0000
  1 H      0.9086     1.0000     0.0914     0.9553     0.9553     0.0000
  2 H      1.0813     1.0000    -0.0813     0.9928     0.9928     0.0000
  3 H      0.9086     1.0000     0.0914     0.9551     0.9551     0.0000

  Mayer bond orders larger than 0.1
B(  0-N ,  1-H ) :   0.4998 B(  0-N ,  3-H ) :   0.4960 B(  1-H ,  2-H ) :   0.4925 
B(  2-H ,  3-H ) :   0.4961 

-------
TIMINGS
-------

Total SCF time: 0 days 0 hours 0 min 5 sec 

Total time                  ....       5.697 sec
Sum of individual times     ....       5.520 sec  ( 96.9%)

Fock matrix formation       ....       5.260 sec  ( 92.3%)
  XC integration            ....       0.979 sec  ( 18.6% of F)
    Basis function eval.    ....       0.252 sec  ( 25.7% of XC)
    Density eval.           ....       0.042 sec  (  4.2% of XC)
    XC-Functional eval.     ....       0.303 sec  ( 31.0% of XC)
    XC-Potential eval.      ....       0.020 sec  (  2.0% of XC)
Diagonalization             ....       0.008 sec  (  0.1%)
Density matrix formation    ....       0.000 sec  (  0.0%)
Population analysis         ....       0.010 sec  (  0.2%)
Initial guess               ....       0.111 sec  (  1.9%)
Orbital Transformation      ....       0.000 sec  (  0.0%)
Orbital Orthonormalization  ....       0.000 sec  (  0.0%)
DIIS solution               ....       0.000 sec  (  0.0%)
Grid generation             ....       0.132 sec  (  2.3%)


-------------------------------------------------------------------------------
                          DFT DISPERSION CORRECTION                            
                                                                               
                              DFTD3 V3.1  Rev 1                                
                              USING zero damping                               
-------------------------------------------------------------------------------
The omegaB97X-D3 functional is recognized. Fit by Chai et al.
Active option DFTDOPT                   ...         3   

molecular C6(AA) [au] = 169.153264 


            DFT-D V3
 parameters
 s6 scaling factor         :     1.0000 
 rs6 scaling factor        :     1.2810 
 s8 scaling factor         :     1.0000 
 rs8 scaling factor        :     1.0940 
 Damping factor alpha6     :    14.0000 
 Damping factor alpha8     :    16.0000 
 ad hoc parameters k1-k3   :    16.0000     1.3333    -4.0000 

 Edisp/kcal,au: -0.349760286981  -0.000557378437 
 E6   /kcal   :  -0.087651564 
 E8   /kcal   :  -0.262108723 
 % E8         :  74.939532264 

-------------------------   ----------------
Dispersion correction           -0.000557378
-------------------------   ----------------


-------------------------   --------------------
FINAL SINGLE POINT ENERGY       -56.029269936837
-------------------------   --------------------


                            ***************************************
                            *     ORCA property calculations      *
                            ***************************************

                                    ---------------------
                                    Active property flags
                                    ---------------------
   (+) Dipole Moment


------------------------------------------------------------------------------
                       ORCA ELECTRIC PROPERTIES CALCULATION
------------------------------------------------------------------------------

Dipole Moment Calculation                       ... on
Quadrupole Moment Calculation                   ... off
Polarizability Calculation                      ... off
GBWName                                         ... Scan_25.gbw
Electron density file                           ... Scan_25.scfp.tmp

-------------
DIPOLE MOMENT
-------------
                                X             Y             Z
Electronic contribution:     -1.70262      -5.59693       1.46683
Nuclear contribution   :      1.85354       6.09037      -1.59624
                        -----------------------------------------
Total Dipole Moment    :      0.15092       0.49344      -0.12942
                        -----------------------------------------
Magnitude (a.u.)       :      0.53199
Magnitude (Debye)      :      1.35221


Timings for individual modules:

Sum of individual times         ...        6.022 sec (=   0.100 min)
GTO integral calculation        ...        0.302 sec (=   0.005 min)   5.0 %
SCF iterations                  ...        5.720 sec (=   0.095 min)  95.0 %
                             ****ORCA TERMINATED NORMALLY****
TOTAL RUN TIME: 0 days 0 hours 0 minutes 6 seconds 342 msec
