
                                 *****************
                                 * O   R   C   A *
                                 *****************

           --- An Ab Initio, DFT and Semiempirical electronic structure package ---

                  #######################################################
                  #                        -***-                        #
                  #  Department of molecular theory and spectroscopy    #
                  #              Directorship: Frank Neese              #
                  # Max Planck Institute for Chemical Energy Conversion #
                  #                  D-45470 Muelheim/Ruhr              #
                  #                       Germany                       #
                  #                                                     #
                  #                  All rights reserved                #
                  #                        -***-                        #
                  #######################################################


                         Program Version 4.0.0.2 - RELEASE -


 With contributions from (in alphabetic order):
   Daniel Aravena         : Magnetic Properties
   Michael Atanasov       : Ab Initio Ligand Field Theory
   Ute Becker             : Parallelization
   Martin Brehm           : Molecular dynamics
   Dmytro Bykov           : SCF Hessian
   Vijay G. Chilkuri      : MRCI spin determinant printing
   Dipayan Datta          : RHF DLPNO-CCSD density
   Achintya Kumar Dutta   : EOM-CC, STEOM-CC
   Dmitry Ganyushin       : Spin-Orbit,Spin-Spin,Magnetic field MRCI
   Yang Guo               : DLPNO-NEVPT2, CIM, IAO-localization
   Andreas Hansen         : Spin unrestricted coupled pair/coupled cluster methods
   Lee Huntington         : MR-EOM, pCC
   Robert Izsak           : Overlap fitted RIJCOSX, COSX-SCS-MP3, EOM
   Christian Kollmar      : KDIIS, OOCD, Brueckner-CCSD(T), CCSD density
   Simone Kossmann        : Meta GGA functionals, TD-DFT gradient, OOMP2, MP2 Hessian
   Martin Krupicka        : AUTO-CI
   Dagmar Lenk            : GEPOL surface
   Dimitrios Liakos       : Extrapolation schemes; parallel MDCI
   Dimitrios Manganas     : ROCIS; embedding schemes
   Dimitrios Pantazis     : SARC Basis sets
   Taras Petrenko         : DFT Hessian,TD-DFT gradient, ASA, ECA, R-Raman, ABS, FL, XAS/XES, NRVS
   Peter Pinski           : DLPNO-MP2
   Christoph Reimann      : Effective Core Potentials
   Marius Retegan         : Local ZFS, SOC
   Christoph Riplinger    : Optimizer, TS searches, QM/MM, DLPNO-CCSD(T), (RO)-DLPNO pert. Triples
   Tobias Risthaus        : Range-separated hybrids, TD-DFT gradient, RPA, STAB
   Michael Roemelt        : Restricted open shell CIS
   Masaaki Saitow         : Open-shell DLPNO
   Barbara Sandhoefer     : DKH picture change effects
   Kantharuban Sivalingam : CASSCF convergence, NEVPT2, FIC-MRCI
   Georgi Stoychev        : AutoAux
   Boris Wezisla          : Elementary symmetry handling
   Frank Wennmohs         : Technical directorship


 We gratefully acknowledge several colleagues who have allowed us to
 interface, adapt or use parts of their codes:
   Stefan Grimme, W. Hujo, H. Kruse,             : VdW corrections, initial TS optimization,
                  C. Bannwarth                     DFT functionals, gCP, sTDA/sTD-DF
   Ed Valeev                                     : LibInt (2-el integral package), F12 methods
   Garnet Chan, S. Sharma, J. Yang, R. Olivares  : DMRG
   Ulf Ekstrom                                   : XCFun DFT Library
   Mihaly Kallay                                 : mrcc  (arbitrary order and MRCC methods)
   Jiri Pittner, Ondrej Demel                    : Mk-CCSD
   Frank Weinhold                                : gennbo (NPA and NBO analysis)
   Christopher J. Cramer and Donald G. Truhlar   : smd solvation model


 Your calculation uses the libint2 library for the computation of 2-el integrals
 For citations please refer to: http://libint.valeyev.net

 This ORCA versions uses:
   CBLAS   interface :  Fast vector & matrix operations
   LAPACKE interface :  Fast linear algebra routines
   SCALAPACK package :  Parallel linear algebra routines


Your calculation utilizes the atom-pairwise dispersion correction
with the zero-damping scheme (D30)
Cite in your paper:
S.Grimme, J.Antony, S.Ehrlich and H.Krieg, J.Chem.Phys., 132, (2010), 154104 
   

XCFun DFT library Copyright 2009-2010 Ulf Ekstrom and contributors.
See http://admol.org/xcfun for more information. This is free soft-
ware; see the source code for copying conditions. There is ABSOLUTELY
NO WARRANTY; not even for MERCHANTABILITY or FITNESS FOR A PARTICULAR
PURPOSE. For details see the documentation. Scientific users of this 
library should cite U. Ekstrom, L. Visscher, R. Bast, A. J. Thorvald-
sen and K. Ruud; J.Chem.Theor.Comp. 2010, DOI: 10.1021/ct100117s
XCFun Version 0.99 
Your calculation utilizes the basis: 6-31G(d)
   H-He, Li-Ne : W. J. Hehre, R. Ditchfield and J.A. Pople, J. Chem. Phys. 56, 2257 (1972).
                 Note: He and Ne are unpublished basis sets taken from the Gaussian program.
                 Note: Li and B from J. D. Dill and J. A. Pople, J. Chem. Phys. 62, 2921 (1975).
   Na - Ar     : M. M. Francl, W. J. Pietro, W. J. Hehre, J. S. Binkley, M. S. Gordon, 
                 D. J. DeFrees and J. A. Pople, J. Chem. Phys. 77, 3654 (1982).
   K - Zn      : V. A. Rassolov, J. A. Pople, M. A. Ratner, and T. L. Windus, J. Chem. Phys. 109, 1223 (1998).

================================================================================
                                        WARNINGS
                       Please study these warnings very carefully!
================================================================================

Warning: TCutStore was < 0. Adjusted to Thresh (uncritical)

INFO   : the flag for use of LIBINT has been found!

================================================================================
                                       INPUT FILE
================================================================================
NAME = initial26.inp
|  1> ! WB97X-D3 6-31G(d) VerySlowConv
|  2> ! KDIIS NOSOSCF
|  3> %base "Scan_26"
|  4> 
|  5> %scf
|  6> maxiter 999
|  7> end
|  8> 
|  9> * xyz 0 1
| 10> N         -0.572717509066   -0.751875635935    0.500624353058
| 11> H          0.993904740424    1.555800109714   -0.761328058012
| 12> H          0.288256122220    2.074920848139   -0.239361319271
| 13> H         -0.507593353578    2.305374678081    0.355105024224
| 14> **                         ****END OF INPUT****
================================================================================

                       ****************************
                       * Single Point Calculation *
                       ****************************

---------------------------------
CARTESIAN COORDINATES (ANGSTROEM)
---------------------------------
  N     -0.572718   -0.751876    0.500624
  H      0.993905    1.555800   -0.761328
  H      0.288256    2.074921   -0.239361
  H     -0.507593    2.305375    0.355105

----------------------------
CARTESIAN COORDINATES (A.U.)
----------------------------
  NO LB      ZA    FRAG     MASS         X           Y           Z
   0 N     7.0000    0    14.007   -1.082279   -1.420839    0.946043
   1 H     1.0000    0     1.008    1.878208    2.940036   -1.438702
   2 H     1.0000    0     1.008    0.544725    3.921032   -0.452327
   3 H     1.0000    0     1.008   -0.959212    4.356527    0.671051

--------------------------------
INTERNAL COORDINATES (ANGSTROEM)
--------------------------------
 N      0   0   0     0.000000000000     0.00000000     0.00000000
 H      1   0   0     3.061404335833     0.00000000     0.00000000
 H      2   1   0     1.019742903769    79.55023390     0.00000000
 H      3   2   1     1.019742903585   162.45756354   359.28795160

---------------------------
INTERNAL COORDINATES (A.U.)
---------------------------
 N      0   0   0     0.000000000000     0.00000000     0.00000000
 H      1   0   0     5.785215779924     0.00000000     0.00000000
 H      2   1   0     1.927034815134    79.55023390     0.00000000
 H      3   2   1     1.927034814785   162.45756354   359.28795160

---------------------
BASIS SET INFORMATION
---------------------
There are 2 groups of distinct atoms

 Group   1 Type N   : 10s4p1d contracted to 3s2p1d pattern {631/31/1}
 Group   2 Type H   : 4s contracted to 2s pattern {31}

Atom   0N    basis set group =>   1
Atom   1H    basis set group =>   2
Atom   2H    basis set group =>   2
Atom   3H    basis set group =>   2
------------------------------------------------------------------------------
                           ORCA GTO INTEGRAL CALCULATION
------------------------------------------------------------------------------

                         BASIS SET STATISTICS AND STARTUP INFO

 # of primitive gaussian shells          ...   27
 # of primitive gaussian functions       ...   39
 # of contracted shells                  ...   12
 # of contracted basis functions         ...   20
 Highest angular momentum                ...    2
 Maximum contraction depth               ...    6
 Integral package used                   ... LIBINT
 Integral threshhold            Thresh   ...  1.000e-10
 Primitive cut-off              TCut     ...  1.000e-11


------------------------------ INTEGRAL EVALUATION ----------------------------


 * One electron integrals 
 Pre-screening matrix                    ... done
 Shell pair data                         ... done (   0.000 sec)

-------------------------------------------------------------------------------
                                 ORCA SCF
-------------------------------------------------------------------------------

------------
SCF SETTINGS
------------
Hamiltonian:
 Density Functional     Method          .... DFT(GTOs)
 Exchange Functional    Exchange        .... WB97X-D3
 Correlation Functional Correlation     .... WB97X-D3
 Gradients option       PostSCFGGA      .... off
 Hybrid DFT is turned on
   Fraction HF Exchange ScalHFX         ....  0.195728
   Scaling of DF-GGA-X  ScalDFX         ....  0.000000
   Scaling of DF-GGA-C  ScalDFC         ....  1.000000
   Scaling of DF-LDA-C  ScalLDAC        ....  1.000000
   Perturbative correction              ....  0.000000
 Long-range corrected/Screened/Range-Separated Hybrid DFT is turned on
   Amount of maximum screened exact exchange              ....  0.804272
   Range separation parameter mu (erf(mu*r12)/r12)        ....  0.250000


General Settings:
 Integral files         IntName         .... Scan_26
 Hartree-Fock type      HFTyp           .... RHF
 Total Charge           Charge          ....    0
 Multiplicity           Mult            ....    1
 Number of Electrons    NEL             ....   10
 Basis Dimension        Dim             ....   20
 Nuclear Repulsion      ENuc            ....      4.9363624519 Eh

Convergence Acceleration:
 DIIS                   CNVDIIS         .... on
   Start iteration      DIISMaxIt       ....     0
   Startup error        DIISStart       ....  0.200000
   # of expansion vecs  DIISMaxEq       ....     5
   Bias factor          DIISBfac        ....   1.050
   Max. coefficient     DIISMaxC        ....  10.000
 Newton-Raphson         CNVNR           .... off
 SOSCF                  CNVSOSCF        .... off
 Level Shifting         CNVShift        .... off
 Zerner damping         CNVZerner       .... off
 Static damping         CNVDamp         .... off
 Fernandez-Rico         CNVRico         .... off

SCF Procedure:
 Maximum # iterations   MaxIter         ....   999
 SCF integral mode      SCFMode         .... Direct
   Integral package                     .... LIBINT
 Reset frequeny         DirectResetFreq ....    20
 Integral Threshold     Thresh          ....  1.000e-10 Eh
 Primitive CutOff       TCut            ....  1.000e-11 Eh

Convergence Tolerance:
 Convergence Check Mode ConvCheckMode   .... All-Criteria
 Convergence forced     ConvForced      .... 0
 Energy Change          TolE            ....  1.000e-06 Eh
 Max Density Change     TolMaxP         ....  1.000e-05
 RMS Density Change     TolRMSP         ....  1.000e-06
 DIIS Error             TolErr          ....  1.000e-06


Diagonalization of the overlap matrix:
Smallest eigenvalue                        ... 6.353e-02
Time for diagonalization                   ...    0.000 sec
Threshold for overlap eigenvalues          ... 1.000e-08
Number of eigenvalues below threshold      ... 0
Time for construction of square roots      ...    0.005 sec
Total time needed                          ...    0.005 sec

-------------------
DFT GRID GENERATION
-------------------

General Integration Accuracy     IntAcc      ...  4.340
Radial Grid Type                 RadialGrid  ... Gauss-Chebyshev
Angular Grid (max. acc.)         AngularGrid ... Lebedev-110
Angular grid pruning method      GridPruning ... 3 (G Style)
Weight generation scheme         WeightScheme... Becke
Basis function cutoff            BFCut       ...    1.0000e-10
Integration weight cutoff        WCut        ...    1.0000e-14
Grids for H and He will be reduced by one unit

# of grid points (after initial pruning)     ...   4084 (   0.0 sec)
# of grid points (after weights+screening)   ...   4044 (   0.0 sec)
nearest neighbour list constructed           ...    0.0 sec
Grid point re-assignment to atoms done       ...    0.0 sec
Grid point division into batches done        ...    0.0 sec
Reduced shell lists constructed in    0.0 sec

Total number of grid points                  ...     4044
Total number of batches                      ...       65
Average number of points per batch           ...       62
Average number of grid points per atom       ...     1011
Average number of shells per batch           ...    10.35 (86.24%)
Average number of basis functions per batch  ...    17.50 (87.50%)
Average number of large shells per batch     ...     8.70 (84.04%)
Average number of large basis fcns per batch ...    14.03 (80.17%)
Maximum spatial batch extension              ...  25.65, 17.62, 25.65 au
Average spatial batch extension              ...   5.35,  5.11,  5.67 au

Time for grid setup =    0.022 sec

------------------------------
INITIAL GUESS: MODEL POTENTIAL
------------------------------
Loading Hartree-Fock densities                     ... done
Calculating cut-offs                               ... done
Setting up the integral package                    ... done
Initializing the effective Hamiltonian             ... done
Starting the Coulomb interaction                   ... done (   0.0 sec)
Reading the grid                                   ... done
Mapping shells                                     ... done
Starting the XC term evaluation                    ... done (   0.0 sec)
  promolecular density results
     # of electrons  =      9.995721099
     EX              =     -7.182550451
     EC              =     -0.263877691
     EX+EC           =     -7.446428142
Transforming the Hamiltonian                       ... done (   0.0 sec)
Diagonalizing the Hamiltonian                      ... done (   0.0 sec)
Back transforming the eigenvectors                 ... done (   0.0 sec)
Now organizing SCF variables                       ... done
                      ------------------
                      INITIAL GUESS DONE (   0.1 sec)
                      ------------------
--------------
SCF ITERATIONS
--------------
ITER       Energy         Delta-E        Max-DP      RMS-DP      [F,P]   Gradient Norm
               ***  Starting incremental Fock matrix formation  ***
                             ****Resetting KDIIS****
                             ****Turning on KDIIS(Cayley)****
  0    -55.8316594228   0.000000000000 0.03399114  0.00368934  0.1316677   0.112861647
  1    -55.8569462821  -0.025286859370 0.03527239  0.00506468  0.1091326   0.096310990
  2    -55.8930987552  -0.036152473062 0.06796565  0.01177803  0.1129366   0.080009138
  3    -55.9655163321  -0.072417576876 0.14349127  0.02081129  0.0969974   0.049459390
  4    -56.0124196109  -0.046903278806 0.11899963  0.01710433  0.0585733   0.042330960
  5    -55.9826738448   0.029745766061 0.01229237  0.00163030  0.0794006   0.035754018
  6    -55.9858505525  -0.003176707677 0.01806983  0.00263023  0.0772431   0.035176980
  7    -55.9943208597  -0.008470307185 0.03208155  0.00454652  0.0701763   0.032032677
  8    -55.9817591322   0.012561727443 0.08469871  0.01179850  0.0789668   0.035458897
  9    -56.0114718201  -0.029712687831 0.19359479  0.02473819  0.0486546   0.022472434
 10    -55.9869887578   0.024483062252 0.30623688  0.03850226  0.0445874   0.038333525
 11    -55.9742631489   0.012725608889 0.21167717  0.02504633  0.1067139   0.064966256
 12    -55.8989729150   0.075290233912 0.12413607  0.01493710  0.1244312   0.058566019
 13    -55.9727093483  -0.073736433299 0.18245099  0.02080738  0.0952008   0.044096132
 14    -56.0213195787  -0.048610230401 0.01299709  0.00163406  0.0080114   0.006506423
 15    -56.0206751284   0.000644450310 0.03545907  0.00408086  0.0162298   0.008320151
 16    -56.0221659572  -0.001490828779 0.00338466  0.00039255  0.0038955   0.002794887
 17    -56.0222179317  -0.000051974496 0.03197700  0.00388800  0.0027069   0.001825603
 18    -56.0211196236   0.001098308045 0.03004882  0.00354271  0.0139245   0.006505420
 19    -56.0220863565  -0.000966732900 0.03657142  0.00397786  0.0017434   0.001221160
               *** Restarting incremental Fock matrix formation ***
                             ****Resetting KDIIS****
 20    -56.0223892074  -0.000302850895 0.00045809  0.00005618  0.0016507   0.001167215
 21    -56.0223956228  -0.000006415386 0.00110206  0.00014563  0.0016173   0.001086500
 22    -56.0224111905  -0.000015567649 0.00419720  0.00056732  0.0016048   0.000994714
 23    -56.0224645043  -0.000053313847 0.02878182  0.00420651  0.0015038   0.000797980
 24    -56.0227531405  -0.000288636200 0.04426301  0.00663487  0.0010505   0.000672062
 25    -56.0229175010  -0.000164360503 0.00078229  0.00010282  0.0034171   0.002053255
 26    -56.0229217669  -0.000004265912 0.00666288  0.00081606  0.0032069   0.001922454
 27    -56.0229493748  -0.000027607863 0.00830536  0.00113565  0.0019216   0.001152592
 28    -56.0229663179  -0.000016943099 0.00086653  0.00013030  0.0005610   0.000338007
 29    -56.0229677788  -0.000001460892 0.00256894  0.00033811  0.0001181   0.000072934
 30    -56.0229690828  -0.000001304068 0.00427064  0.00070743  0.0001017   0.000056539
 31    -56.0229721582  -0.000003075385 0.00372919  0.00057988  0.0001487   0.000093512
 32    -56.0229733689  -0.000001210671 0.00098694  0.00012893  0.0000560   0.000036036
                          ***Energy convergence achieved***
 33    -56.0229734736  -0.000000104749 0.00009442  0.00001107  0.0000268   0.000012695
 34    -56.0229734858  -0.000000012173 0.00009952  0.00001125  0.0000268   0.000012390
 35    -56.0229734987  -0.000000012897 0.00009093  0.00001137  0.0000269   0.000012251
 36    -56.0229734842   0.000000014461 0.00009600  0.00001263  0.0000269   0.000012247

            ***Energy convergence in two consecutive cycles with***
                    ***'reasonable' density convergence***
                       *** signaling convergence ***

                    *** KDIIS BlockDiag ( 0.000 sec) ***

               *****************************************************
               *                     SUCCESS                       *
               *           SCF CONVERGED AFTER  37 CYCLES          *
               *****************************************************

Setting up the final grid:

General Integration Accuracy     IntAcc      ...  4.670
Radial Grid Type                 RadialGrid  ... Gauss-Chebyshev
Angular Grid (max. acc.)         AngularGrid ... Lebedev-302
Angular grid pruning method      GridPruning ... 3 (G Style)
Weight generation scheme         WeightScheme... Becke
Basis function cutoff            BFCut       ...    1.0000e-10
Integration weight cutoff        WCut        ...    1.0000e-14
Grids for H and He will be reduced by one unit

# of grid points (after initial pruning)     ...  16394 (   0.0 sec)
# of grid points (after weights+screening)   ...  16256 (   0.0 sec)
nearest neighbour list constructed           ...    0.0 sec
Grid point re-assignment to atoms done       ...    0.0 sec
Grid point division into batches done        ...    0.0 sec
Reduced shell lists constructed in    0.1 sec

Total number of grid points                  ...    16256
Total number of batches                      ...      256
Average number of points per batch           ...       63
Average number of grid points per atom       ...     4064
Average number of shells per batch           ...     9.26 (77.14%)
Average number of basis functions per batch  ...    15.32 (76.60%)
Average number of large shells per batch     ...     7.66 (82.77%)
Average number of large basis fcns per batch ...    12.00 (78.36%)
Maximum spatial batch extension              ...  19.40, 14.79, 16.92 au
Average spatial batch extension              ...   3.35,  3.34,  3.40 au

Final grid set up in    0.1 sec
Final integration                            ... done (   0.1 sec)
Change in XC energy                          ...    -0.000264203
Integrated number of electrons               ...     9.999978293
Previous integrated no of electrons          ...     9.997732936

----------------
TOTAL SCF ENERGY
----------------

Total Energy       :          -56.02323767 Eh           -1524.46980 eV

Components:
Nuclear Repulsion  :            4.93636245 Eh             134.32525 eV
Electronic Energy  :          -60.95960012 Eh           -1658.79505 eV
One Electron Energy:          -85.27582120 Eh           -2320.47307 eV
Two Electron Energy:           24.31622108 Eh             661.67801 eV

Virial components:
Potential Energy   :         -111.51524332 Eh           -3034.48404 eV
Kinetic Energy     :           55.49200565 Eh            1510.01424 eV
Virial Ratio       :            2.00957313


DFT components:
N(Alpha)           :        4.999989146340 electrons
N(Beta)            :        4.999989146340 electrons
N(Total)           :        9.999978292681 electrons
E(XC)              :       -5.113731773088 Eh       

---------------
SCF CONVERGENCE
---------------

  Last Energy change         ...    1.7854e-08  Tolerance :   1.0000e-06
  Last MAX-Density change    ...    3.6681e-05  Tolerance :   1.0000e-05
  Last RMS-Density change    ...    4.6485e-06  Tolerance :   1.0000e-06
  Last DIIS Error            ...    2.6786e-05  Tolerance :   1.0000e-06

             **** THE GBW FILE WAS UPDATED (Scan_26.gbw) ****
             **** DENSITY FILE WAS UPDATED (Scan_26.scfp.tmp) ****
             **** ENERGY FILE WAS UPDATED (Scan_26.en.tmp) ****
----------------
ORBITAL ENERGIES
----------------

  NO   OCC          E(Eh)            E(eV) 
   0   2.0000     -14.549400      -395.9093 
   1   2.0000      -0.811848       -22.0915 
   2   2.0000      -0.593191       -16.1415 
   3   2.0000      -0.347121        -9.4456 
   4   2.0000      -0.309891        -8.4325 
   5   0.0000      -0.131652        -3.5824 
   6   0.0000      -0.074483        -2.0268 
   7   0.0000       0.193990         5.2787 
   8   0.0000       0.705261        19.1911 
   9   0.0000       0.771265        20.9872 
  10   0.0000       0.795646        21.6506 
  11   0.0000       0.838600        22.8195 
  12   0.0000       0.896227        24.3876 
  13   0.0000       0.943265        25.6675 
  14   0.0000       1.031107        28.0579 
  15   0.0000       1.803834        49.0848 
  16   0.0000       1.805862        49.1400 
  17   0.0000       1.818995        49.4974 
  18   0.0000       1.838858        50.0379 
  19   0.0000       1.844428        50.1894 

                    ********************************
                    * MULLIKEN POPULATION ANALYSIS *
                    ********************************

-----------------------
MULLIKEN ATOMIC CHARGES
-----------------------
   0 N :   -0.101457
   1 H :    0.091459
   2 H :   -0.081585
   3 H :    0.091583
Sum of atomic charges:    0.0000000

--------------------------------
MULLIKEN REDUCED ORBITAL CHARGES
--------------------------------
  0 N s       :     3.999669  s :     3.999669
      pz      :     1.692660  p :     3.101542
      px      :     1.257331
      py      :     0.151551
      dz2     :     0.000063  d :     0.000246
      dxz     :     0.000069
      dyz     :     0.000013
      dx2y2   :     0.000063
      dxy     :     0.000039
  1 H s       :     0.908541  s :     0.908541
  2 H s       :     1.081585  s :     1.081585
  3 H s       :     0.908417  s :     0.908417


                     *******************************
                     * LOEWDIN POPULATION ANALYSIS *
                     *******************************

----------------------
LOEWDIN ATOMIC CHARGES
----------------------
   0 N :   -0.106109
   1 H :    0.048882
   2 H :    0.008949
   3 H :    0.048277

-------------------------------
LOEWDIN REDUCED ORBITAL CHARGES
-------------------------------
  0 N s       :     3.999195  s :     3.999195
      pz      :     1.694034  p :     3.106645
      px      :     1.259885
      py      :     0.152726
      dz2     :     0.000064  d :     0.000268
      dxz     :     0.000070
      dyz     :     0.000017
      dx2y2   :     0.000071
      dxy     :     0.000046
  1 H s       :     0.951118  s :     0.951118
  2 H s       :     0.991051  s :     0.991051
  3 H s       :     0.951723  s :     0.951723


                      *****************************
                      * MAYER POPULATION ANALYSIS *
                      *****************************

  NA   - Mulliken gross atomic population
  ZA   - Total nuclear charge
  QA   - Mulliken gross atomic charge
  VA   - Mayer's total valence
  BVA  - Mayer's bonded valence
  FA   - Mayer's free valence

  ATOM       NA         ZA         QA         VA         BVA        FA
  0 N      7.1015     7.0000    -0.1015     0.9973     0.9973     0.0000
  1 H      0.9085     1.0000     0.0915     0.9546     0.9546     0.0000
  2 H      1.0816     1.0000    -0.0816     0.9929     0.9929    -0.0000
  3 H      0.9084     1.0000     0.0916     0.9544     0.9544     0.0000

  Mayer bond orders larger than 0.1
B(  0-N ,  1-H ) :   0.4990 B(  0-N ,  3-H ) :   0.4952 B(  1-H ,  2-H ) :   0.4932 
B(  2-H ,  3-H ) :   0.4967 

-------
TIMINGS
-------

Total SCF time: 0 days 0 hours 0 min 10 sec 

Total time                  ....      10.268 sec
Sum of individual times     ....       9.965 sec  ( 97.0%)

Fock matrix formation       ....       9.695 sec  ( 94.4%)
  XC integration            ....       1.754 sec  ( 18.1% of F)
    Basis function eval.    ....       0.441 sec  ( 25.1% of XC)
    Density eval.           ....       0.075 sec  (  4.3% of XC)
    XC-Functional eval.     ....       0.536 sec  ( 30.6% of XC)
    XC-Potential eval.      ....       0.032 sec  (  1.8% of XC)
Diagonalization             ....       0.013 sec  (  0.1%)
Density matrix formation    ....       0.000 sec  (  0.0%)
Population analysis         ....       0.008 sec  (  0.1%)
Initial guess               ....       0.114 sec  (  1.1%)
Orbital Transformation      ....       0.000 sec  (  0.0%)
Orbital Orthonormalization  ....       0.000 sec  (  0.0%)
DIIS solution               ....       0.000 sec  (  0.0%)
Grid generation             ....       0.134 sec  (  1.3%)


-------------------------------------------------------------------------------
                          DFT DISPERSION CORRECTION                            
                                                                               
                              DFTD3 V3.1  Rev 1                                
                              USING zero damping                               
-------------------------------------------------------------------------------
The omegaB97X-D3 functional is recognized. Fit by Chai et al.
Active option DFTDOPT                   ...         3   

molecular C6(AA) [au] = 169.203133 


            DFT-D V3
 parameters
 s6 scaling factor         :     1.0000 
 rs6 scaling factor        :     1.2810 
 s8 scaling factor         :     1.0000 
 rs8 scaling factor        :     1.0940 
 Damping factor alpha6     :    14.0000 
 Damping factor alpha8     :    16.0000 
 ad hoc parameters k1-k3   :    16.0000     1.3333    -4.0000 

 Edisp/kcal,au: -0.351508636145  -0.000560164608 
 E6   /kcal   :  -0.107697149 
 E8   /kcal   :  -0.243811487 
 % E8         :  69.361450078 

-------------------------   ----------------
Dispersion correction           -0.000560165
-------------------------   ----------------


-------------------------   --------------------
FINAL SINGLE POINT ENERGY       -56.023797834338
-------------------------   --------------------


                            ***************************************
                            *     ORCA property calculations      *
                            ***************************************

                                    ---------------------
                                    Active property flags
                                    ---------------------
   (+) Dipole Moment


------------------------------------------------------------------------------
                       ORCA ELECTRIC PROPERTIES CALCULATION
------------------------------------------------------------------------------

Dipole Moment Calculation                       ... on
Quadrupole Moment Calculation                   ... off
Polarizability Calculation                      ... off
GBWName                                         ... Scan_26.gbw
Electron density file                           ... Scan_26.scfp.tmp

-------------
DIPOLE MOMENT
-------------
                                X             Y             Z
Electronic contribution:     -1.76743      -5.80853       1.52225
Nuclear contribution   :      1.92256       6.31802      -1.65627
                        -----------------------------------------
Total Dipole Moment    :      0.15513       0.50949      -0.13402
                        -----------------------------------------
Magnitude (a.u.)       :      0.54919
Magnitude (Debye)      :      1.39593


Timings for individual modules:

Sum of individual times         ...       10.608 sec (=   0.177 min)
GTO integral calculation        ...        0.316 sec (=   0.005 min)   3.0 %
SCF iterations                  ...       10.292 sec (=   0.172 min)  97.0 %
                             ****ORCA TERMINATED NORMALLY****
TOTAL RUN TIME: 0 days 0 hours 0 minutes 10 seconds 930 msec
