
                                 *****************
                                 * O   R   C   A *
                                 *****************

           --- An Ab Initio, DFT and Semiempirical electronic structure package ---

                  #######################################################
                  #                        -***-                        #
                  #  Department of molecular theory and spectroscopy    #
                  #              Directorship: Frank Neese              #
                  # Max Planck Institute for Chemical Energy Conversion #
                  #                  D-45470 Muelheim/Ruhr              #
                  #                       Germany                       #
                  #                                                     #
                  #                  All rights reserved                #
                  #                        -***-                        #
                  #######################################################


                         Program Version 4.0.0.2 - RELEASE -


 With contributions from (in alphabetic order):
   Daniel Aravena         : Magnetic Properties
   Michael Atanasov       : Ab Initio Ligand Field Theory
   Ute Becker             : Parallelization
   Martin Brehm           : Molecular dynamics
   Dmytro Bykov           : SCF Hessian
   Vijay G. Chilkuri      : MRCI spin determinant printing
   Dipayan Datta          : RHF DLPNO-CCSD density
   Achintya Kumar Dutta   : EOM-CC, STEOM-CC
   Dmitry Ganyushin       : Spin-Orbit,Spin-Spin,Magnetic field MRCI
   Yang Guo               : DLPNO-NEVPT2, CIM, IAO-localization
   Andreas Hansen         : Spin unrestricted coupled pair/coupled cluster methods
   Lee Huntington         : MR-EOM, pCC
   Robert Izsak           : Overlap fitted RIJCOSX, COSX-SCS-MP3, EOM
   Christian Kollmar      : KDIIS, OOCD, Brueckner-CCSD(T), CCSD density
   Simone Kossmann        : Meta GGA functionals, TD-DFT gradient, OOMP2, MP2 Hessian
   Martin Krupicka        : AUTO-CI
   Dagmar Lenk            : GEPOL surface
   Dimitrios Liakos       : Extrapolation schemes; parallel MDCI
   Dimitrios Manganas     : ROCIS; embedding schemes
   Dimitrios Pantazis     : SARC Basis sets
   Taras Petrenko         : DFT Hessian,TD-DFT gradient, ASA, ECA, R-Raman, ABS, FL, XAS/XES, NRVS
   Peter Pinski           : DLPNO-MP2
   Christoph Reimann      : Effective Core Potentials
   Marius Retegan         : Local ZFS, SOC
   Christoph Riplinger    : Optimizer, TS searches, QM/MM, DLPNO-CCSD(T), (RO)-DLPNO pert. Triples
   Tobias Risthaus        : Range-separated hybrids, TD-DFT gradient, RPA, STAB
   Michael Roemelt        : Restricted open shell CIS
   Masaaki Saitow         : Open-shell DLPNO
   Barbara Sandhoefer     : DKH picture change effects
   Kantharuban Sivalingam : CASSCF convergence, NEVPT2, FIC-MRCI
   Georgi Stoychev        : AutoAux
   Boris Wezisla          : Elementary symmetry handling
   Frank Wennmohs         : Technical directorship


 We gratefully acknowledge several colleagues who have allowed us to
 interface, adapt or use parts of their codes:
   Stefan Grimme, W. Hujo, H. Kruse,             : VdW corrections, initial TS optimization,
                  C. Bannwarth                     DFT functionals, gCP, sTDA/sTD-DF
   Ed Valeev                                     : LibInt (2-el integral package), F12 methods
   Garnet Chan, S. Sharma, J. Yang, R. Olivares  : DMRG
   Ulf Ekstrom                                   : XCFun DFT Library
   Mihaly Kallay                                 : mrcc  (arbitrary order and MRCC methods)
   Jiri Pittner, Ondrej Demel                    : Mk-CCSD
   Frank Weinhold                                : gennbo (NPA and NBO analysis)
   Christopher J. Cramer and Donald G. Truhlar   : smd solvation model


 Your calculation uses the libint2 library for the computation of 2-el integrals
 For citations please refer to: http://libint.valeyev.net

 This ORCA versions uses:
   CBLAS   interface :  Fast vector & matrix operations
   LAPACKE interface :  Fast linear algebra routines
   SCALAPACK package :  Parallel linear algebra routines


Your calculation utilizes the atom-pairwise dispersion correction
with the zero-damping scheme (D30)
Cite in your paper:
S.Grimme, J.Antony, S.Ehrlich and H.Krieg, J.Chem.Phys., 132, (2010), 154104 
   

XCFun DFT library Copyright 2009-2010 Ulf Ekstrom and contributors.
See http://admol.org/xcfun for more information. This is free soft-
ware; see the source code for copying conditions. There is ABSOLUTELY
NO WARRANTY; not even for MERCHANTABILITY or FITNESS FOR A PARTICULAR
PURPOSE. For details see the documentation. Scientific users of this 
library should cite U. Ekstrom, L. Visscher, R. Bast, A. J. Thorvald-
sen and K. Ruud; J.Chem.Theor.Comp. 2010, DOI: 10.1021/ct100117s
XCFun Version 0.99 
Your calculation utilizes the basis: 6-31G(d)
   H-He, Li-Ne : W. J. Hehre, R. Ditchfield and J.A. Pople, J. Chem. Phys. 56, 2257 (1972).
                 Note: He and Ne are unpublished basis sets taken from the Gaussian program.
                 Note: Li and B from J. D. Dill and J. A. Pople, J. Chem. Phys. 62, 2921 (1975).
   Na - Ar     : M. M. Francl, W. J. Pietro, W. J. Hehre, J. S. Binkley, M. S. Gordon, 
                 D. J. DeFrees and J. A. Pople, J. Chem. Phys. 77, 3654 (1982).
   K - Zn      : V. A. Rassolov, J. A. Pople, M. A. Ratner, and T. L. Windus, J. Chem. Phys. 109, 1223 (1998).

================================================================================
                                        WARNINGS
                       Please study these warnings very carefully!
================================================================================

Warning: TCutStore was < 0. Adjusted to Thresh (uncritical)

INFO   : the flag for use of LIBINT has been found!

================================================================================
                                       INPUT FILE
================================================================================
NAME = initial29.inp
|  1> ! WB97X-D3 6-31G(d) VerySlowConv
|  2> ! KDIIS NOSOSCF
|  3> %base "Scan_29"
|  4> 
|  5> %scf
|  6> maxiter 999
|  7> end
|  8> 
|  9> * xyz 0 1
| 10> N         -0.639930188571   -0.972493671588    0.558352809055
| 11> H          1.021303136290    1.632297864042   -0.782758888792
| 12> H          0.306381156032    2.139693267157   -0.258473127073
| 13> H         -0.485904103752    2.384722540389    0.337919206809
| 14> **                         ****END OF INPUT****
================================================================================

                       ****************************
                       * Single Point Calculation *
                       ****************************

---------------------------------
CARTESIAN COORDINATES (ANGSTROEM)
---------------------------------
  N     -0.639930   -0.972494    0.558353
  H      1.021303    1.632298   -0.782759
  H      0.306381    2.139693   -0.258473
  H     -0.485904    2.384723    0.337919

----------------------------
CARTESIAN COORDINATES (A.U.)
----------------------------
  NO LB      ZA    FRAG     MASS         X           Y           Z
   0 N     7.0000    0    14.007   -1.209293   -1.837747    1.055134
   1 H     1.0000    0     1.008    1.929983    3.084596   -1.479200
   2 H     1.0000    0     1.008    0.578976    4.043434   -0.488443
   3 H     1.0000    0     1.008   -0.918226    4.506473    0.638575

--------------------------------
INTERNAL COORDINATES (ANGSTROEM)
--------------------------------
 N      0   0   0     0.000000000000     0.00000000     0.00000000
 H      1   0   0     3.367969074950     0.00000000     0.00000000
 H      2   1   0     1.021488665086    80.47807349     0.00000000
 H      3   2   1     1.021488665392   164.08205162     0.82694100

---------------------------
INTERNAL COORDINATES (A.U.)
---------------------------
 N      0   0   0     0.000000000000     0.00000000     0.00000000
 H      1   0   0     6.364539179172     0.00000000     0.00000000
 H      2   1   0     1.930333825918    80.47807349     0.00000000
 H      3   2   1     1.930333826496   164.08205162     0.82694100

---------------------
BASIS SET INFORMATION
---------------------
There are 2 groups of distinct atoms

 Group   1 Type N   : 10s4p1d contracted to 3s2p1d pattern {631/31/1}
 Group   2 Type H   : 4s contracted to 2s pattern {31}

Atom   0N    basis set group =>   1
Atom   1H    basis set group =>   2
Atom   2H    basis set group =>   2
Atom   3H    basis set group =>   2
------------------------------------------------------------------------------
                           ORCA GTO INTEGRAL CALCULATION
------------------------------------------------------------------------------

                         BASIS SET STATISTICS AND STARTUP INFO

 # of primitive gaussian shells          ...   27
 # of primitive gaussian functions       ...   39
 # of contracted shells                  ...   12
 # of contracted basis functions         ...   20
 Highest angular momentum                ...    2
 Maximum contraction depth               ...    6
 Integral package used                   ... LIBINT
 Integral threshhold            Thresh   ...  1.000e-10
 Primitive cut-off              TCut     ...  1.000e-11


------------------------------ INTEGRAL EVALUATION ----------------------------


 * One electron integrals 
 Pre-screening matrix                    ... done
 Shell pair data                         ... done (   0.000 sec)

-------------------------------------------------------------------------------
                                 ORCA SCF
-------------------------------------------------------------------------------

------------
SCF SETTINGS
------------
Hamiltonian:
 Density Functional     Method          .... DFT(GTOs)
 Exchange Functional    Exchange        .... WB97X-D3
 Correlation Functional Correlation     .... WB97X-D3
 Gradients option       PostSCFGGA      .... off
 Hybrid DFT is turned on
   Fraction HF Exchange ScalHFX         ....  0.195728
   Scaling of DF-GGA-X  ScalDFX         ....  0.000000
   Scaling of DF-GGA-C  ScalDFC         ....  1.000000
   Scaling of DF-LDA-C  ScalLDAC        ....  1.000000
   Perturbative correction              ....  0.000000
 Long-range corrected/Screened/Range-Separated Hybrid DFT is turned on
   Amount of maximum screened exact exchange              ....  0.804272
   Range separation parameter mu (erf(mu*r12)/r12)        ....  0.250000


General Settings:
 Integral files         IntName         .... Scan_29
 Hartree-Fock type      HFTyp           .... RHF
 Total Charge           Charge          ....    0
 Multiplicity           Mult            ....    1
 Number of Electrons    NEL             ....   10
 Basis Dimension        Dim             ....   20
 Nuclear Repulsion      ENuc            ....      4.6017888359 Eh

Convergence Acceleration:
 DIIS                   CNVDIIS         .... on
   Start iteration      DIISMaxIt       ....     0
   Startup error        DIISStart       ....  0.200000
   # of expansion vecs  DIISMaxEq       ....     5
   Bias factor          DIISBfac        ....   1.050
   Max. coefficient     DIISMaxC        ....  10.000
 Newton-Raphson         CNVNR           .... off
 SOSCF                  CNVSOSCF        .... off
 Level Shifting         CNVShift        .... off
 Zerner damping         CNVZerner       .... off
 Static damping         CNVDamp         .... off
 Fernandez-Rico         CNVRico         .... off

SCF Procedure:
 Maximum # iterations   MaxIter         ....   999
 SCF integral mode      SCFMode         .... Direct
   Integral package                     .... LIBINT
 Reset frequeny         DirectResetFreq ....    20
 Integral Threshold     Thresh          ....  1.000e-10 Eh
 Primitive CutOff       TCut            ....  1.000e-11 Eh

Convergence Tolerance:
 Convergence Check Mode ConvCheckMode   .... All-Criteria
 Convergence forced     ConvForced      .... 0
 Energy Change          TolE            ....  1.000e-06 Eh
 Max Density Change     TolMaxP         ....  1.000e-05
 RMS Density Change     TolRMSP         ....  1.000e-06
 DIIS Error             TolErr          ....  1.000e-06


Diagonalization of the overlap matrix:
Smallest eigenvalue                        ... 6.341e-02
Time for diagonalization                   ...    0.000 sec
Threshold for overlap eigenvalues          ... 1.000e-08
Number of eigenvalues below threshold      ... 0
Time for construction of square roots      ...    0.005 sec
Total time needed                          ...    0.006 sec

-------------------
DFT GRID GENERATION
-------------------

General Integration Accuracy     IntAcc      ...  4.340
Radial Grid Type                 RadialGrid  ... Gauss-Chebyshev
Angular Grid (max. acc.)         AngularGrid ... Lebedev-110
Angular grid pruning method      GridPruning ... 3 (G Style)
Weight generation scheme         WeightScheme... Becke
Basis function cutoff            BFCut       ...    1.0000e-10
Integration weight cutoff        WCut        ...    1.0000e-14
Grids for H and He will be reduced by one unit

# of grid points (after initial pruning)     ...   4084 (   0.0 sec)
# of grid points (after weights+screening)   ...   4048 (   0.0 sec)
nearest neighbour list constructed           ...    0.0 sec
Grid point re-assignment to atoms done       ...    0.0 sec
Grid point division into batches done        ...    0.0 sec
Reduced shell lists constructed in    0.0 sec

Total number of grid points                  ...     4048
Total number of batches                      ...       65
Average number of points per batch           ...       62
Average number of grid points per atom       ...     1012
Average number of shells per batch           ...     9.68 (80.68%)
Average number of basis functions per batch  ...    15.77 (78.86%)
Average number of large shells per batch     ...     8.55 (88.26%)
Average number of large basis fcns per batch ...    13.79 (87.42%)
Maximum spatial batch extension              ...  25.65, 16.16, 25.65 au
Average spatial batch extension              ...   5.54,  5.30,  5.89 au

Time for grid setup =    0.019 sec

------------------------------
INITIAL GUESS: MODEL POTENTIAL
------------------------------
Loading Hartree-Fock densities                     ... done
Calculating cut-offs                               ... done
Setting up the integral package                    ... done
Initializing the effective Hamiltonian             ... done
Starting the Coulomb interaction                   ... done (   0.0 sec)
Reading the grid                                   ... done
Mapping shells                                     ... done
Starting the XC term evaluation                    ... done (   0.0 sec)
  promolecular density results
     # of electrons  =      9.996028784
     EX              =     -7.181846387
     EC              =     -0.263185960
     EX+EC           =     -7.445032347
Transforming the Hamiltonian                       ... done (   0.0 sec)
Diagonalizing the Hamiltonian                      ... done (   0.0 sec)
Back transforming the eigenvectors                 ... done (   0.0 sec)
Now organizing SCF variables                       ... done
                      ------------------
                      INITIAL GUESS DONE (   0.1 sec)
                      ------------------
--------------
SCF ITERATIONS
--------------
ITER       Energy         Delta-E        Max-DP      RMS-DP      [F,P]   Gradient Norm
               ***  Starting incremental Fock matrix formation  ***
                             ****Resetting KDIIS****
                             ****Turning on KDIIS(Cayley)****
  0    -55.7845487197   0.000000000000 0.03751008  0.00401509  0.1395666   0.115166639
  1    -55.8106292067  -0.026080486961 0.03658605  0.00535876  0.1140002   0.097232884
  2    -55.8441884769  -0.033559270226 0.06814563  0.01226457  0.0934640   0.081332910
  3    -55.9180834427  -0.073894965795 0.13902229  0.02224255  0.1047765   0.055831085
  4    -55.9952584812  -0.077175038507 0.09292124  0.01522819  0.0504842   0.039787969
  5    -55.9564013210   0.038857160169 0.03121284  0.00449562  0.0888152   0.040588368
  6    -55.9652597795  -0.008858458469 0.04749369  0.00717810  0.0851527   0.039583270
  7    -55.9870114984  -0.021751718912 0.11196824  0.01731453  0.0665166   0.031395298
  8    -55.9338884600   0.053123038446 0.76033333  0.09553888  0.0904977   0.040700996
  9    -55.7005992488   0.233289211175 0.94184899  0.13557546  0.0700010   0.069726593
 10    -55.5272362574   0.173362991439 0.84897566  0.12641412  0.2782232   0.232501294
 11    -55.7802367305  -0.253000473109 0.26857897  0.03331837  0.0963018   0.048502199
 12    -55.9476257321  -0.167389001657 0.18601390  0.02140574  0.1115465   0.052267956
 13    -56.0047330359  -0.057107303798 0.15393668  0.01808689  0.0345899   0.022119692
 14    -55.9477912641   0.056941771856 0.24911006  0.03283575  0.1201958   0.061470433
 15    -55.9840161002  -0.036224836178 0.20999953  0.02554805  0.0540803   0.037508401
 16    -55.9862525754  -0.002236475145 0.03796566  0.00369465  0.0705230   0.034721820
 17    -55.9890022083  -0.002749632924 0.04101880  0.00457721  0.0616432   0.028018639
 18    -55.9790768530   0.009925355359 0.08349415  0.00932897  0.0788032   0.035461336
 19    -56.0016225027  -0.022545649754 0.24043383  0.02903493  0.0422410   0.019107255
               *** Restarting incremental Fock matrix formation ***
                             ****Resetting KDIIS****
 20    -55.9794153279   0.022207174836 0.01059725  0.00158772  0.0697785   0.032563964
 21    -55.9849222044  -0.005506876494 0.02256559  0.00325992  0.0620788   0.029302391
 22    -55.9941615756  -0.009239371248 0.01434230  0.00211035  0.0453216   0.024014715
 23    -55.9975493130  -0.003387737362 0.07960602  0.00994533  0.0440096   0.021060406
 24    -56.0094807273  -0.011931414331 0.01080676  0.00141302  0.0109458   0.005076186
 25    -56.0099475529  -0.000466825621 0.01205489  0.00151132  0.0059886   0.002715919
 26    -56.0101239172  -0.000176364265 0.00062546  0.00008525  0.0002960   0.000205471
 27    -56.0101253911  -0.000001473918 0.00119156  0.00012930  0.0002152   0.000138029
 28    -56.0101274497  -0.000002058563 0.01247440  0.00135312  0.0002130   0.000135776
 29    -56.0101475935  -0.000020143796 0.04521116  0.00473222  0.0001927   0.000128161
 30    -56.0101953223  -0.000047728817 0.00512750  0.00051837  0.0005731   0.000368501
 31    -56.0101932860   0.000002036310 0.00670736  0.00068322  0.0001814   0.000098532
 32    -56.0101982271  -0.000004941135 0.00129956  0.00015580  0.0001776   0.000094438
 33    -56.0101997048  -0.000001477698 0.00717099  0.00075405  0.0001755   0.000130792
 34    -56.0102066535  -0.000006948712 0.01672440  0.00191073  0.0001708   0.000082317
 35    -56.0102234954  -0.000016841899 0.00493312  0.00058982  0.0001605   0.000078709
 36    -56.0102284626  -0.000004967169 0.00160847  0.00016003  0.0001594   0.000075553
                          ***Energy convergence achieved***
 37    -56.0102291866  -0.000000724027 0.00219487  0.00023961  0.0001588   0.000075354
 38    -56.0102285973   0.000000589318 0.00083404  0.00008116  0.0001599   0.000075167
 39    -56.0102291584  -0.000000561139 0.00305873  0.00035072  0.0001598   0.000074443
               *** Restarting incremental Fock matrix formation ***
                             ****Resetting KDIIS****
 40    -56.0102263631   0.000002795351 0.00003505  0.00000422  0.0001606   0.000073766
                          ***Energy convergence achieved***
 41    -56.0102264015  -0.000000038407 0.00001526  0.00000192  0.0001606   0.000073755
 42    -56.0102263843   0.000000017165 0.00157458  0.00018999  0.0001606   0.000073733
 43    -56.0102246519   0.000001732402 0.02755836  0.00342575  0.0001603   0.000073550
 44    -56.0101929783   0.000031673611 0.06668887  0.00800295  0.0001710   0.000097274
 45    -56.0102692794  -0.000076301105 0.04440454  0.00523259  0.0005209   0.000289169
 46    -56.0102187762   0.000050503179 0.04589903  0.00593280  0.0001606   0.000110012
 47    -56.0101589705   0.000059805766 0.05158559  0.00662894  0.0008371   0.000459105
 48    -56.0102250431  -0.000066072585 0.02414530  0.00285728  0.0002829   0.000173083
 49    -56.0102518297  -0.000026786594 0.00674493  0.00079860  0.0005190   0.000289601
 50    -56.0102598616  -0.000008031953 0.08510181  0.01077591  0.0005634   0.000313499
 51    -56.0101535540   0.000106307573 0.22382372  0.02559198  0.0007592   0.000421096
 52    -56.0104714476  -0.000317893519 0.18237089  0.01985648  0.0031501   0.001601378
 53    -56.0105273426  -0.000055895023 0.43618216  0.04733253  0.0108176   0.005343499
 54    -56.0100856591   0.000441683519 0.08088644  0.00958740  0.0014918   0.000957245
 55    -56.0102038790  -0.000118219981 0.07490174  0.00893122  0.0007310   0.000536900
 56    -56.0102932293  -0.000089350275 0.22705944  0.02424183  0.0010146   0.000645307
 57    -56.0106010696  -0.000307840315 0.08421875  0.00910190  0.0067258   0.003453181
 58    -56.0105221827   0.000078886973 0.05036685  0.00551869  0.0111525   0.005527817
 59    -56.0104199055   0.000102277187 0.51455143  0.05551774  0.0144772   0.007087853
               *** Restarting incremental Fock matrix formation ***
                             ****Resetting KDIIS****
 60    -56.0100054239   0.000414481523 0.00040948  0.00005954  0.0027990   0.001853424
 61    -56.0100120446  -0.000006620613 0.00033075  0.00004609  0.0025358   0.001590204
 62    -56.0100171866  -0.000005142034 0.00072441  0.00010188  0.0020656   0.001305447
 63    -56.0100247066  -0.000007520045 0.00219747  0.00027048  0.0012446   0.000797329
 64    -56.0100327588  -0.000008052212 0.00883871  0.00087552  0.0002645   0.000138511
 65    -56.0100483002  -0.000015541380 0.03213021  0.00321517  0.0002629   0.000138419
 66    -56.0100976170  -0.000049316742 0.01116659  0.00113323  0.0002453   0.000160228
 67    -56.0101123424  -0.000014725470 0.00842473  0.00087231  0.0002345   0.000116493
 68    -56.0101226098  -0.000010267379 0.01455324  0.00158997  0.0002271   0.000107372
 69    -56.0101408049  -0.000018195131 0.00402851  0.00047006  0.0004225   0.000323416
 70    -56.0101463447  -0.000005539709 0.03361689  0.00412159  0.0003918   0.000305687
 71    -56.0101907987  -0.000044454052 0.07536759  0.00834428  0.0001745   0.000115837
 72    -56.0102712847  -0.000080485951 0.00301950  0.00037113  0.0008601   0.000511592
 73    -56.0102699233   0.000001361348 0.04695194  0.00631034  0.0008901   0.000524315
 74    -56.0102111744   0.000058748916 0.01580291  0.00202245  0.0002451   0.000183162
 75    -56.0101925273   0.000018647051 0.04467343  0.00547672  0.0001691   0.000157095
 76    -56.0102421868  -0.000049659455 0.01970161  0.00244028  0.0004769   0.000296185
 77    -56.0102199365   0.000022250254 0.17231517  0.01883544  0.0004112   0.000257543
 78    -56.0099259775   0.000293959033 0.06823197  0.00693326  0.0032876   0.002050626
 79    -56.0100632433  -0.000137265827 0.03198099  0.00342046  0.0021463   0.001266117
               *** Restarting incremental Fock matrix formation ***
                             ****Resetting KDIIS****
 80    -56.0101220087  -0.000058765395 0.00006758  0.00000924  0.0015015   0.000866405
                          ***Energy convergence achieved***
 81    -56.0101226525  -0.000000643736 0.00025234  0.00002841  0.0013630   0.000789148
 82    -56.0101239601  -0.000001307634 0.00053013  0.00005847  0.0010859   0.000635086
 83    -56.0101258490  -0.000001888846 0.00378604  0.00040447  0.0006343   0.000387048
 84    -56.0101322828  -0.000006433867 0.02221188  0.00243534  0.0002234   0.000111192
 85    -56.0101631183  -0.000030835436 0.02620031  0.00300508  0.0001900   0.000112627
 86    -56.0101922710  -0.000029152725 0.02140045  0.00246456  0.0001646   0.000148090
 87    -56.0101687924   0.000023478600 0.02527475  0.00293125  0.0001986   0.000185881
 88    -56.0101967214  -0.000027929035 0.00254972  0.00031500  0.0001616   0.000088703
 89    -56.0101993177  -0.000002596271 0.00239461  0.00030922  0.0001717   0.000168010
 90    -56.0102023567  -0.000003039018 0.01251748  0.00163399  0.0001598   0.000079829
 91    -56.0102171378  -0.000014781141 0.04204149  0.00517435  0.0001600   0.000081237
 92    -56.0102673731  -0.000050235215 0.00236628  0.00023419  0.0002873   0.000184086
 93    -56.0102640041   0.000003368914 0.12308376  0.01534997  0.0008731   0.000473590
 94    -56.0100955220   0.000168482191 0.06089709  0.00688694  0.0015004   0.000855383
 95    -56.0101825484  -0.000087026463 0.01068585  0.00128847  0.0008155   0.000470764
 96    -56.0101693727   0.000013175693 0.09497341  0.01188953  0.0008778   0.000502686
 97    -56.0102874199  -0.000118047134 0.04158540  0.00468885  0.0010518   0.000562348
 98    -56.0103473149  -0.000059895027 0.03452700  0.00382923  0.0018887   0.001010069
 99    -56.0102968704   0.000050444522 0.05030931  0.00558922  0.0013937   0.000725643
               *** Restarting incremental Fock matrix formation ***
                             ****Resetting KDIIS****
100    -56.0103729281  -0.000076057697 0.00007109  0.00001199  0.0021206   0.001130755
101    -56.0103739874  -0.000001059362 0.00026568  0.00003058  0.0019291   0.001030456
102    -56.0103759349  -0.000001947482 0.00063456  0.00007095  0.0015562   0.000838509
103    -56.0103788455  -0.000002910623 0.00068005  0.00008191  0.0009315   0.000517899
104    -56.0103810362  -0.000002190628 0.00934976  0.00094798  0.0002986   0.000136058
105    -56.0103659718   0.000015064327 0.07047393  0.00728948  0.0002910   0.000133527
106    -56.0102647714   0.000101200404 0.04464636  0.00485844  0.0003433   0.000209269
107    -56.0102116660   0.000053105425 0.00182289  0.00020013  0.0002870   0.000182956
108    -56.0102138035  -0.000002137466 0.01179704  0.00133647  0.0002249   0.000161071
109    -56.0102002919   0.000013511542 0.00648945  0.00075569  0.0001896   0.000118850
110    -56.0101926379   0.000007654038 0.06585757  0.00732534  0.0002388   0.000163378
111    -56.0102710270  -0.000078389066 0.01626471  0.00179220  0.0004058   0.000242086
112    -56.0102505265   0.000020500454 0.01230072  0.00135743  0.0004152   0.000242555
113    -56.0102624215  -0.000011894987 0.07523352  0.00965466  0.0013425   0.000696224
114    -56.0101706127   0.000091808751 0.01049320  0.00166080  0.0009518   0.000597011
                          ***Energy convergence achieved***
115    -56.0101709859  -0.000000373151 0.06469439  0.00781577  0.0010567   0.000556318
116    -56.0102468917  -0.000075905813 0.06284930  0.00799250  0.0010710   0.000569690
117    -56.0101737630   0.000073128714 0.01716456  0.00201130  0.0001912   0.000108851
118    -56.0101606898   0.000013073187 0.00883587  0.00099740  0.0002027   0.000138284
119    -56.0101560737   0.000004616133 0.02002290  0.00230414  0.0002078   0.000117293
               *** Restarting incremental Fock matrix formation ***
                             ****Resetting KDIIS****
120    -56.0101281283   0.000027945338 0.00004874  0.00000688  0.0006554   0.000396810
                          ***Energy convergence achieved***
121    -56.0101283189  -0.000000190557 0.00018932  0.00002563  0.0005933   0.000363227
122    -56.0101288320  -0.000000513086 0.00044132  0.00005813  0.0004682   0.000296597
123    -56.0101297943  -0.000000962322 0.00197493  0.00025567  0.0002653   0.000194028
124    -56.0101332021  -0.000003407814 0.03884236  0.00477110  0.0002267   0.000104854
125    -56.0101854647  -0.000052262629 0.02431056  0.00283333  0.0001691   0.000139001
126    -56.0102089208  -0.000023456042 0.00140979  0.00016072  0.0001476   0.000120686
127    -56.0102076585   0.000001262253 0.00109117  0.00012527  0.0001674   0.000136830
128    -56.0102066381   0.000001020452 0.00412444  0.00046467  0.0001939   0.000149300
129    -56.0102105358  -0.000003897730 0.00927180  0.00105561  0.0002682   0.000188153
130    -56.0102022021   0.000008333714 0.00924832  0.00108427  0.0001532   0.000077993
131    -56.0102121332  -0.000009931080 0.01201004  0.00147931  0.0001515   0.000075795
132    -56.0102250254  -0.000012892199 0.00337329  0.00038888  0.0001553   0.000078643
133    -56.0102280129  -0.000002987514 0.00038656  0.00004178  0.0001549   0.000075165
                          ***Energy convergence achieved***
134    -56.0102276642   0.000000348722 0.01107800  0.00140697  0.0001550   0.000074708
135    -56.0102177479   0.000009916212 0.00734513  0.00090152  0.0001799   0.000151445
136    -56.0102120788   0.000005669174 0.00355973  0.00040517  0.0001576   0.000073895
137    -56.0102085568   0.000003522021 0.01921845  0.00219493  0.0001593   0.000073958
138    -56.0102281054  -0.000019548618 0.01189893  0.00160013  0.0001581   0.000086437
139    -56.0102137895   0.000014315875 0.01253934  0.00163337  0.0001530   0.000109954
               *** Restarting incremental Fock matrix formation ***
                             ****Resetting KDIIS****
140    -56.0101987615   0.000015028010 0.00003474  0.00000452  0.0001540   0.000111292
                          ***Energy convergence achieved***
141    -56.0101988083  -0.000000046771 0.00009529  0.00001251  0.0001538   0.000105595
142    -56.0101989325  -0.000000124244 0.00036500  0.00004821  0.0001537   0.000096294
143    -56.0101993919  -0.000000459412 0.00372899  0.00049858  0.0001533   0.000082840
144    -56.0102039983  -0.000004606341 0.02731436  0.00351930  0.0001520   0.000075332
145    -56.0102347978  -0.000030799543 0.01900129  0.00241979  0.0001608   0.000108133
146    -56.0102136176   0.000021180225 0.00120305  0.00016173  0.0002558   0.000187177
147    -56.0102123761   0.000001241512 0.00057551  0.00006931  0.0001518   0.000095765
                          ***Energy convergence achieved***
148    -56.0102119143   0.000000461709 0.02446281  0.00307488  0.0001519   0.000094244
149    -56.0101823771   0.000029537220 0.11436441  0.01443796  0.0002617   0.000200267
150    -56.0103363984  -0.000154021318 0.03902130  0.00456354  0.0011926   0.000655704
151    -56.0102793849   0.000057013589 0.06025758  0.00769693  0.0007508   0.000423412
152    -56.0102040479   0.000075336909 0.04188192  0.00503884  0.0005937   0.000324186
153    -56.0101508867   0.000053161208 0.07515804  0.00954846  0.0008158   0.000454571
154    -56.0102455104  -0.000094623644 0.01771213  0.00226188  0.0008996   0.000486918
155    -56.0102240742   0.000021436233 0.00248079  0.00034790  0.0008807   0.000474720
156    -56.0102254308  -0.000001356642 0.00667671  0.00088593  0.0006584   0.000361797
157    -56.0102177026   0.000007728200 0.03879645  0.00481965  0.0006005   0.000337653
158    -56.0101687965   0.000048906141 0.10218258  0.01098522  0.0011258   0.000635016
159    -56.0099864257   0.000182370706 0.17123045  0.01987113  0.0024577   0.001497377
               *** Restarting incremental Fock matrix formation ***
                             ****Resetting KDIIS****
160    -56.0102588198  -0.000272394075 0.00004301  0.00000653  0.0007558   0.000436970
                          ***Energy convergence achieved***
161    -56.0102590132  -0.000000193393 0.00011565  0.00001474  0.0006869   0.000398329
162    -56.0102593704  -0.000000357228 0.00033872  0.00004217  0.0005557   0.000328254
163    -56.0102600693  -0.000000698823 0.00267898  0.00032348  0.0003286   0.000209133
164    -56.0102568742   0.000003195057 0.06986909  0.00912347  0.0001796   0.000083858
165    -56.0101671577   0.000089716558 0.10192873  0.01288158  0.0006848   0.000400495
166    -56.0102992870  -0.000132129356 0.13090377  0.01720184  0.0008203   0.000462502
167    -56.0101073972   0.000191889824 0.04490234  0.00523190  0.0011243   0.000657943
168    -56.0101744631  -0.000067065870 0.00583934  0.00069733  0.0012277   0.000715283
169    -56.0101662762   0.000008186804 0.01281911  0.00155839  0.0013281   0.000775348
170    -56.0101477796   0.000018496686 0.14385806  0.01733057  0.0014665   0.000846421
171    -56.0103350261  -0.000187246508 0.03315868  0.00337056  0.0018852   0.001011217
172    -56.0103789035  -0.000043877471 0.02134245  0.00255521  0.0023457   0.001244817
173    -56.0104189405  -0.000040036949 0.07935633  0.00871015  0.0031019   0.001626019
174    -56.0102962480   0.000122692466 0.08909603  0.01100792  0.0017570   0.000940776
175    -56.0101784516   0.000117796455 0.04837488  0.00584836  0.0026818   0.001379574
176    -56.0101049167   0.000073534910 0.04587479  0.00551037  0.0030327   0.001589510
177    -56.0101767600  -0.000071843379 0.01591995  0.00203904  0.0024214   0.001262713
178    -56.0101987469  -0.000021986858 0.03101600  0.00417986  0.0021426   0.001119033
179    -56.0102430630  -0.000044316068 0.07793800  0.00877592  0.0010891   0.000604801
               *** Restarting incremental Fock matrix formation ***
                             ****Resetting KDIIS****
180    -56.0103454932  -0.000102430196 0.00008530  0.00001390  0.0019763   0.001081086
181    -56.0103465361  -0.000001042900 0.00016767  0.00002494  0.0017983   0.000981795
182    -56.0103482181  -0.000001682063 0.00047971  0.00006725  0.0014604   0.000804149
183    -56.0103509192  -0.000002701063 0.00044468  0.00006896  0.0008729   0.000495279
184    -56.0103527483  -0.000001829062 0.01580381  0.00202162  0.0002653   0.000125705
185    -56.0103224424   0.000030305875 0.04876719  0.00648656  0.0002409   0.000122145
186    -56.0102393245   0.000083117845 0.01219303  0.00163081  0.0003305   0.000270206
187    -56.0102573288  -0.000018004254 0.01134129  0.00149058  0.0005212   0.000389539
188    -56.0102410649   0.000016263896 0.00948936  0.00122977  0.0003500   0.000272800
189    -56.0102276656   0.000013399269 0.00930264  0.00129068  0.0005369   0.000411864
190    -56.0102428392  -0.000015173606 0.00562617  0.00072730  0.0001667   0.000102393
191    -56.0102517602  -0.000008920951 0.05546007  0.00654368  0.0001737   0.000099497
192    -56.0101936777   0.000058082494 0.01350854  0.00160068  0.0002418   0.000186937
193    -56.0101799391   0.000013738630 0.16378988  0.01749745  0.0001782   0.000136834
194    -56.0098960435   0.000283895596 0.04288065  0.00425992  0.0031848   0.002165965
195    -56.0099719096  -0.000075866175 0.18396042  0.02225510  0.0023566   0.001551051
196    -56.0102659770  -0.000294067408 0.02789244  0.00313997  0.0003187   0.000264450
197    -56.0103014236  -0.000035446566 0.08395536  0.00979085  0.0003467   0.000310665
198    -56.0102039477   0.000097475922 0.11680360  0.01352825  0.0002376   0.000209081
199    -56.0100140390   0.000189908719 0.05302546  0.00536216  0.0024613   0.001377167
               *** Restarting incremental Fock matrix formation ***
                             ****Resetting KDIIS****
200    -56.0099093445   0.000104694470 0.00019063  0.00003137  0.0039563   0.002438603
201    -56.0099145785  -0.000005234047 0.00025511  0.00004295  0.0035938   0.002205362
202    -56.0099221572  -0.000007578702 0.00061156  0.00010247  0.0029133   0.001796209
203    -56.0099327959  -0.000010638650 0.00357641  0.00043276  0.0017270   0.001076432
204    -56.0099458169  -0.000013020988 0.01653875  0.00183342  0.0002363   0.000146609
205    -56.0099772827  -0.000031465854 0.02978757  0.00321270  0.0002129   0.000167271
206    -56.0100174047  -0.000040121916 0.03166397  0.00344265  0.0005515   0.000347263
207    -56.0099738171   0.000043587596 0.03946272  0.00422727  0.0002122   0.000160990
208    -56.0100259395  -0.000052122431 0.00422503  0.00039538  0.0002870   0.000198540
209    -56.0100300215  -0.000004081979 0.00384445  0.00042867  0.0003427   0.000223244
210    -56.0100336058  -0.000003584314 0.00141399  0.00014140  0.0002065   0.000103596
211    -56.0100318635   0.000001742240 0.00815367  0.00090330  0.0002059   0.000136353
212    -56.0100214532   0.000010410305 0.06037687  0.00803721  0.0001930   0.000109531
213    -56.0099696085   0.000051844715 0.01800428  0.00202929  0.0006226   0.000428902
214    -56.0099660833   0.000003525200 0.00791261  0.00111262  0.0002353   0.000212412
                          ***Energy convergence achieved***
215    -56.0099655027   0.000000580581 0.00690724  0.00081412  0.0001173   0.000072260
216    -56.0099652427   0.000000260060 0.00131703  0.00017940  0.0000512   0.000043952
217    -56.0099652976  -0.000000054949 0.00099900  0.00010666  0.0000094   0.000006733
218    -56.0099653062  -0.000000008527 0.00278845  0.00024705  0.0000084   0.000006456
219    -56.0099653823  -0.000000076172 0.00099232  0.00013859  0.0000195   0.000013889
               *** Restarting incremental Fock matrix formation ***
                             ****Resetting KDIIS****
                           ***RMSP convergence achieved***
                           ***MAXP convergence achieved***
                    *** KDIIS BlockDiag ( 0.000 sec) ***

               *****************************************************
               *                     SUCCESS                       *
               *           SCF CONVERGED AFTER 220 CYCLES          *
               *****************************************************

Setting up the final grid:

General Integration Accuracy     IntAcc      ...  4.670
Radial Grid Type                 RadialGrid  ... Gauss-Chebyshev
Angular Grid (max. acc.)         AngularGrid ... Lebedev-302
Angular grid pruning method      GridPruning ... 3 (G Style)
Weight generation scheme         WeightScheme... Becke
Basis function cutoff            BFCut       ...    1.0000e-10
Integration weight cutoff        WCut        ...    1.0000e-14
Grids for H and He will be reduced by one unit

# of grid points (after initial pruning)     ...  16394 (   0.0 sec)
# of grid points (after weights+screening)   ...  16270 (   0.0 sec)
nearest neighbour list constructed           ...    0.0 sec
Grid point re-assignment to atoms done       ...    0.0 sec
Grid point division into batches done        ...    0.0 sec
Reduced shell lists constructed in    0.1 sec

Total number of grid points                  ...    16270
Total number of batches                      ...      256
Average number of points per batch           ...       63
Average number of grid points per atom       ...     4068
Average number of shells per batch           ...     8.69 (72.44%)
Average number of basis functions per batch  ...    13.84 (69.22%)
Average number of large shells per batch     ...     7.42 (85.36%)
Average number of large basis fcns per batch ...    11.55 (83.45%)
Maximum spatial batch extension              ...  21.92, 14.47, 16.92 au
Average spatial batch extension              ...   3.35,  3.35,  3.37 au

Final grid set up in    0.1 sec
Final integration                            ... done (   0.1 sec)
Change in XC energy                          ...    -0.000181451
Integrated number of electrons               ...     9.999981869
Previous integrated no of electrons          ...     9.997714902

----------------
TOTAL SCF ENERGY
----------------

Total Energy       :          -56.01014684 Eh           -1524.11358 eV

Components:
Nuclear Repulsion  :            4.60178884 Eh             125.22104 eV
Electronic Energy  :          -60.61193568 Eh           -1649.33462 eV
One Electron Energy:          -84.62222828 Eh           -2302.68790 eV
Two Electron Energy:           24.01029261 Eh             653.35328 eV

Virial components:
Potential Energy   :         -111.52335946 Eh           -3034.70489 eV
Kinetic Energy     :           55.51321262 Eh            1510.59131 eV
Virial Ratio       :            2.00895164


DFT components:
N(Alpha)           :        4.999990934602 electrons
N(Beta)            :        4.999990934602 electrons
N(Total)           :        9.999981869204 electrons
E(XC)              :       -5.116003277262 Eh       

---------------
SCF CONVERGENCE
---------------

  Last Energy change         ...   -7.8917e-09  Tolerance :   1.0000e-06
  Last MAX-Density change    ...    8.9512e-07  Tolerance :   1.0000e-05
  Last RMS-Density change    ...    1.2902e-07  Tolerance :   1.0000e-06
  Last DIIS Error            ...    2.8517e-06  Tolerance :   1.0000e-06

             **** THE GBW FILE WAS UPDATED (Scan_29.gbw) ****
             **** DENSITY FILE WAS UPDATED (Scan_29.scfp.tmp) ****
             **** ENERGY FILE WAS UPDATED (Scan_29.en.tmp) ****
----------------
ORBITAL ENERGIES
----------------

  NO   OCC          E(Eh)            E(eV) 
   0   2.0000     -14.545275      -395.7971 
   1   2.0000      -0.809132       -22.0176 
   2   2.0000      -0.591419       -16.0933 
   3   2.0000      -0.344783        -9.3820 
   4   2.0000      -0.299150        -8.1403 
   5   0.0000      -0.139962        -3.8086 
   6   0.0000      -0.071892        -1.9563 
   7   0.0000       0.194763         5.2998 
   8   0.0000       0.718157        19.5421 
   9   0.0000       0.781127        21.2555 
  10   0.0000       0.798071        21.7166 
  11   0.0000       0.840753        22.8780 
  12   0.0000       0.885939        24.1076 
  13   0.0000       0.910893        24.7867 
  14   0.0000       1.032524        28.0964 
  15   0.0000       1.804527        49.1037 
  16   0.0000       1.806536        49.1584 
  17   0.0000       1.820761        49.5454 
  18   0.0000       1.840921        50.0940 
  19   0.0000       1.846171        50.2369 

                    ********************************
                    * MULLIKEN POPULATION ANALYSIS *
                    ********************************

-----------------------
MULLIKEN ATOMIC CHARGES
-----------------------
   0 N :   -0.101198
   1 H :    0.091694
   2 H :   -0.082318
   3 H :    0.091822
Sum of atomic charges:    0.0000000

--------------------------------
MULLIKEN REDUCED ORBITAL CHARGES
--------------------------------
  0 N s       :     3.999765  s :     3.999765
      pz      :     1.723371  p :     3.101228
      px      :     1.221410
      py      :     0.156447
      dz2     :     0.000064  d :     0.000205
      dxz     :     0.000057
      dyz     :     0.000007
      dx2y2   :     0.000045
      dxy     :     0.000031
  1 H s       :     0.908306  s :     0.908306
  2 H s       :     1.082318  s :     1.082318
  3 H s       :     0.908178  s :     0.908178


                     *******************************
                     * LOEWDIN POPULATION ANALYSIS *
                     *******************************

----------------------
LOEWDIN ATOMIC CHARGES
----------------------
   0 N :   -0.103444
   1 H :    0.048065
   2 H :    0.007953
   3 H :    0.047426

-------------------------------
LOEWDIN REDUCED ORBITAL CHARGES
-------------------------------
  0 N s       :     3.999619  s :     3.999619
      pz      :     1.724057  p :     3.103616
      px      :     1.222718
      py      :     0.156841
      dz2     :     0.000064  d :     0.000209
      dxz     :     0.000057
      dyz     :     0.000008
      dx2y2   :     0.000047
      dxy     :     0.000033
  1 H s       :     0.951935  s :     0.951935
  2 H s       :     0.992047  s :     0.992047
  3 H s       :     0.952574  s :     0.952574


                      *****************************
                      * MAYER POPULATION ANALYSIS *
                      *****************************

  NA   - Mulliken gross atomic population
  ZA   - Total nuclear charge
  QA   - Mulliken gross atomic charge
  VA   - Mayer's total valence
  BVA  - Mayer's bonded valence
  FA   - Mayer's free valence

  ATOM       NA         ZA         QA         VA         BVA        FA
  0 N      7.1012     7.0000    -0.1012     0.9928     0.9928    -0.0000
  1 H      0.9083     1.0000     0.0917     0.9531     0.9531     0.0000
  2 H      1.0823     1.0000    -0.0823     0.9930     0.9930     0.0000
  3 H      0.9082     1.0000     0.0918     0.9530     0.9530     0.0000

  Mayer bond orders larger than 0.1
B(  0-N ,  1-H ) :   0.4979 B(  0-N ,  3-H ) :   0.4937 B(  1-H ,  2-H ) :   0.4939 
B(  2-H ,  3-H ) :   0.4980 

-------
TIMINGS
-------

Total SCF time: 0 days 0 hours 0 min 46 sec 

Total time                  ....      46.875 sec
Sum of individual times     ....      45.057 sec  ( 96.1%)

Fock matrix formation       ....      44.793 sec  ( 95.6%)
  XC integration            ....       8.896 sec  ( 19.9% of F)
    Basis function eval.    ....       1.788 sec  ( 20.1% of XC)
    Density eval.           ....       0.393 sec  (  4.4% of XC)
    XC-Functional eval.     ....       2.598 sec  ( 29.2% of XC)
    XC-Potential eval.      ....       0.151 sec  (  1.7% of XC)
Diagonalization             ....       0.049 sec  (  0.1%)
Density matrix formation    ....       0.001 sec  (  0.0%)
Population analysis         ....       0.009 sec  (  0.0%)
Initial guess               ....       0.090 sec  (  0.2%)
Orbital Transformation      ....       0.000 sec  (  0.0%)
Orbital Orthonormalization  ....       0.000 sec  (  0.0%)
DIIS solution               ....       0.000 sec  (  0.0%)
Grid generation             ....       0.115 sec  (  0.2%)


-------------------------------------------------------------------------------
                          DFT DISPERSION CORRECTION                            
                                                                               
                              DFTD3 V3.1  Rev 1                                
                              USING zero damping                               
-------------------------------------------------------------------------------
The omegaB97X-D3 functional is recognized. Fit by Chai et al.
Active option DFTDOPT                   ...         3   

molecular C6(AA) [au] = 169.279576 


            DFT-D V3
 parameters
 s6 scaling factor         :     1.0000 
 rs6 scaling factor        :     1.2810 
 s8 scaling factor         :     1.0000 
 rs8 scaling factor        :     1.0940 
 Damping factor alpha6     :    14.0000 
 Damping factor alpha8     :    16.0000 
 ad hoc parameters k1-k3   :    16.0000     1.3333    -4.0000 

 Edisp/kcal,au: -0.312996502443  -0.000498791623 
 E6   /kcal   :  -0.159302764 
 E8   /kcal   :  -0.153693738 
 % E8         :  49.103979520 

-------------------------   ----------------
Dispersion correction           -0.000498792
-------------------------   ----------------


-------------------------   --------------------
FINAL SINGLE POINT ENERGY       -56.010645632940
-------------------------   --------------------


                            ***************************************
                            *     ORCA property calculations      *
                            ***************************************

                                    ---------------------
                                    Active property flags
                                    ---------------------
   (+) Dipole Moment


------------------------------------------------------------------------------
                       ORCA ELECTRIC PROPERTIES CALCULATION
------------------------------------------------------------------------------

Dipole Moment Calculation                       ... on
Quadrupole Moment Calculation                   ... off
Polarizability Calculation                      ... off
GBWName                                         ... Scan_29.gbw
Electron density file                           ... Scan_29.scfp.tmp

-------------
DIPOLE MOMENT
-------------
                                X             Y             Z
Electronic contribution:     -1.95949      -6.44032       1.68803
Nuclear contribution   :      2.12991       6.99865      -1.83436
                        -----------------------------------------
Total Dipole Moment    :      0.17042       0.55833      -0.14633
                        -----------------------------------------
Magnitude (a.u.)       :      0.60182
Magnitude (Debye)      :      1.52971


Timings for individual modules:

Sum of individual times         ...       47.138 sec (=   0.786 min)
GTO integral calculation        ...        0.244 sec (=   0.004 min)   0.5 %
SCF iterations                  ...       46.894 sec (=   0.782 min)  99.5 %
                             ****ORCA TERMINATED NORMALLY****
TOTAL RUN TIME: 0 days 0 hours 0 minutes 47 seconds 427 msec
