
                                 *****************
                                 * O   R   C   A *
                                 *****************

           --- An Ab Initio, DFT and Semiempirical electronic structure package ---

                  #######################################################
                  #                        -***-                        #
                  #  Department of molecular theory and spectroscopy    #
                  #              Directorship: Frank Neese              #
                  # Max Planck Institute for Chemical Energy Conversion #
                  #                  D-45470 Muelheim/Ruhr              #
                  #                       Germany                       #
                  #                                                     #
                  #                  All rights reserved                #
                  #                        -***-                        #
                  #######################################################


                         Program Version 4.0.0.2 - RELEASE -


 With contributions from (in alphabetic order):
   Daniel Aravena         : Magnetic Properties
   Michael Atanasov       : Ab Initio Ligand Field Theory
   Ute Becker             : Parallelization
   Martin Brehm           : Molecular dynamics
   Dmytro Bykov           : SCF Hessian
   Vijay G. Chilkuri      : MRCI spin determinant printing
   Dipayan Datta          : RHF DLPNO-CCSD density
   Achintya Kumar Dutta   : EOM-CC, STEOM-CC
   Dmitry Ganyushin       : Spin-Orbit,Spin-Spin,Magnetic field MRCI
   Yang Guo               : DLPNO-NEVPT2, CIM, IAO-localization
   Andreas Hansen         : Spin unrestricted coupled pair/coupled cluster methods
   Lee Huntington         : MR-EOM, pCC
   Robert Izsak           : Overlap fitted RIJCOSX, COSX-SCS-MP3, EOM
   Christian Kollmar      : KDIIS, OOCD, Brueckner-CCSD(T), CCSD density
   Simone Kossmann        : Meta GGA functionals, TD-DFT gradient, OOMP2, MP2 Hessian
   Martin Krupicka        : AUTO-CI
   Dagmar Lenk            : GEPOL surface
   Dimitrios Liakos       : Extrapolation schemes; parallel MDCI
   Dimitrios Manganas     : ROCIS; embedding schemes
   Dimitrios Pantazis     : SARC Basis sets
   Taras Petrenko         : DFT Hessian,TD-DFT gradient, ASA, ECA, R-Raman, ABS, FL, XAS/XES, NRVS
   Peter Pinski           : DLPNO-MP2
   Christoph Reimann      : Effective Core Potentials
   Marius Retegan         : Local ZFS, SOC
   Christoph Riplinger    : Optimizer, TS searches, QM/MM, DLPNO-CCSD(T), (RO)-DLPNO pert. Triples
   Tobias Risthaus        : Range-separated hybrids, TD-DFT gradient, RPA, STAB
   Michael Roemelt        : Restricted open shell CIS
   Masaaki Saitow         : Open-shell DLPNO
   Barbara Sandhoefer     : DKH picture change effects
   Kantharuban Sivalingam : CASSCF convergence, NEVPT2, FIC-MRCI
   Georgi Stoychev        : AutoAux
   Boris Wezisla          : Elementary symmetry handling
   Frank Wennmohs         : Technical directorship


 We gratefully acknowledge several colleagues who have allowed us to
 interface, adapt or use parts of their codes:
   Stefan Grimme, W. Hujo, H. Kruse,             : VdW corrections, initial TS optimization,
                  C. Bannwarth                     DFT functionals, gCP, sTDA/sTD-DF
   Ed Valeev                                     : LibInt (2-el integral package), F12 methods
   Garnet Chan, S. Sharma, J. Yang, R. Olivares  : DMRG
   Ulf Ekstrom                                   : XCFun DFT Library
   Mihaly Kallay                                 : mrcc  (arbitrary order and MRCC methods)
   Jiri Pittner, Ondrej Demel                    : Mk-CCSD
   Frank Weinhold                                : gennbo (NPA and NBO analysis)
   Christopher J. Cramer and Donald G. Truhlar   : smd solvation model


 Your calculation uses the libint2 library for the computation of 2-el integrals
 For citations please refer to: http://libint.valeyev.net

 This ORCA versions uses:
   CBLAS   interface :  Fast vector & matrix operations
   LAPACKE interface :  Fast linear algebra routines
   SCALAPACK package :  Parallel linear algebra routines


Your calculation utilizes the atom-pairwise dispersion correction
with the zero-damping scheme (D30)
Cite in your paper:
S.Grimme, J.Antony, S.Ehrlich and H.Krieg, J.Chem.Phys., 132, (2010), 154104 
   

XCFun DFT library Copyright 2009-2010 Ulf Ekstrom and contributors.
See http://admol.org/xcfun for more information. This is free soft-
ware; see the source code for copying conditions. There is ABSOLUTELY
NO WARRANTY; not even for MERCHANTABILITY or FITNESS FOR A PARTICULAR
PURPOSE. For details see the documentation. Scientific users of this 
library should cite U. Ekstrom, L. Visscher, R. Bast, A. J. Thorvald-
sen and K. Ruud; J.Chem.Theor.Comp. 2010, DOI: 10.1021/ct100117s
XCFun Version 0.99 
Your calculation utilizes the basis: 6-31G(d)
   H-He, Li-Ne : W. J. Hehre, R. Ditchfield and J.A. Pople, J. Chem. Phys. 56, 2257 (1972).
                 Note: He and Ne are unpublished basis sets taken from the Gaussian program.
                 Note: Li and B from J. D. Dill and J. A. Pople, J. Chem. Phys. 62, 2921 (1975).
   Na - Ar     : M. M. Francl, W. J. Pietro, W. J. Hehre, J. S. Binkley, M. S. Gordon, 
                 D. J. DeFrees and J. A. Pople, J. Chem. Phys. 77, 3654 (1982).
   K - Zn      : V. A. Rassolov, J. A. Pople, M. A. Ratner, and T. L. Windus, J. Chem. Phys. 109, 1223 (1998).

================================================================================
                                        WARNINGS
                       Please study these warnings very carefully!
================================================================================

Warning: TCutStore was < 0. Adjusted to Thresh (uncritical)

INFO   : the flag for use of LIBINT has been found!

================================================================================
                                       INPUT FILE
================================================================================
NAME = initial30.inp
|  1> ! WB97X-D3 6-31G(d) VerySlowConv
|  2> ! KDIIS NOSOSCF
|  3> %base "Scan_30"
|  4> 
|  5> %scf
|  6> maxiter 999
|  7> end
|  8> 
|  9> * xyz 0 1
| 10> N         -0.662151914477   -1.045759599814    0.577657501874
| 11> H          1.028977969176    1.657567344030   -0.791278294605
| 12> H          0.314800795230    2.161647657028   -0.261889704694
| 13> H         -0.479776849929    2.410764598756    0.330550497425
| 14> **                         ****END OF INPUT****
================================================================================

                       ****************************
                       * Single Point Calculation *
                       ****************************

---------------------------------
CARTESIAN COORDINATES (ANGSTROEM)
---------------------------------
  N     -0.662152   -1.045760    0.577658
  H      1.028978    1.657567   -0.791278
  H      0.314801    2.161648   -0.261890
  H     -0.479777    2.410765    0.330550

----------------------------
CARTESIAN COORDINATES (A.U.)
----------------------------
  NO LB      ZA    FRAG     MASS         X           Y           Z
   0 N     7.0000    0    14.007   -1.251286   -1.976199    1.091614
   1 H     1.0000    0     1.008    1.944487    3.132348   -1.495299
   2 H     1.0000    0     1.008    0.594887    4.084922   -0.494900
   3 H     1.0000    0     1.008   -0.906647    4.555685    0.624650

--------------------------------
INTERNAL COORDINATES (ANGSTROEM)
--------------------------------
 N      0   0   0     0.000000000000     0.00000000     0.00000000
 H      1   0   0     3.470141504835     0.00000000     0.00000000
 H      2   1   0     1.021958060228    80.75452085     0.00000000
 H      3   2   1     1.021958060749   164.55372383   359.03346092

---------------------------
INTERNAL COORDINATES (A.U.)
---------------------------
 N      0   0   0     0.000000000000     0.00000000     0.00000000
 H      1   0   0     6.557617090092     0.00000000     0.00000000
 H      2   1   0     1.931220854185    80.75452085     0.00000000
 H      3   2   1     1.931220855168   164.55372383   359.03346092

---------------------
BASIS SET INFORMATION
---------------------
There are 2 groups of distinct atoms

 Group   1 Type N   : 10s4p1d contracted to 3s2p1d pattern {631/31/1}
 Group   2 Type H   : 4s contracted to 2s pattern {31}

Atom   0N    basis set group =>   1
Atom   1H    basis set group =>   2
Atom   2H    basis set group =>   2
Atom   3H    basis set group =>   2
------------------------------------------------------------------------------
                           ORCA GTO INTEGRAL CALCULATION
------------------------------------------------------------------------------

                         BASIS SET STATISTICS AND STARTUP INFO

 # of primitive gaussian shells          ...   27
 # of primitive gaussian functions       ...   39
 # of contracted shells                  ...   12
 # of contracted basis functions         ...   20
 Highest angular momentum                ...    2
 Maximum contraction depth               ...    6
 Integral package used                   ... LIBINT
 Integral threshhold            Thresh   ...  1.000e-10
 Primitive cut-off              TCut     ...  1.000e-11


------------------------------ INTEGRAL EVALUATION ----------------------------


 * One electron integrals 
 Pre-screening matrix                    ... done
 Shell pair data                         ... done (   0.000 sec)

-------------------------------------------------------------------------------
                                 ORCA SCF
-------------------------------------------------------------------------------

------------
SCF SETTINGS
------------
Hamiltonian:
 Density Functional     Method          .... DFT(GTOs)
 Exchange Functional    Exchange        .... WB97X-D3
 Correlation Functional Correlation     .... WB97X-D3
 Gradients option       PostSCFGGA      .... off
 Hybrid DFT is turned on
   Fraction HF Exchange ScalHFX         ....  0.195728
   Scaling of DF-GGA-X  ScalDFX         ....  0.000000
   Scaling of DF-GGA-C  ScalDFC         ....  1.000000
   Scaling of DF-LDA-C  ScalLDAC        ....  1.000000
   Perturbative correction              ....  0.000000
 Long-range corrected/Screened/Range-Separated Hybrid DFT is turned on
   Amount of maximum screened exact exchange              ....  0.804272
   Range separation parameter mu (erf(mu*r12)/r12)        ....  0.250000


General Settings:
 Integral files         IntName         .... Scan_30
 Hartree-Fock type      HFTyp           .... RHF
 Total Charge           Charge          ....    0
 Multiplicity           Mult            ....    1
 Number of Electrons    NEL             ....   10
 Basis Dimension        Dim             ....   20
 Nuclear Repulsion      ENuc            ....      4.5035129372 Eh

Convergence Acceleration:
 DIIS                   CNVDIIS         .... on
   Start iteration      DIISMaxIt       ....     0
   Startup error        DIISStart       ....  0.200000
   # of expansion vecs  DIISMaxEq       ....     5
   Bias factor          DIISBfac        ....   1.050
   Max. coefficient     DIISMaxC        ....  10.000
 Newton-Raphson         CNVNR           .... off
 SOSCF                  CNVSOSCF        .... off
 Level Shifting         CNVShift        .... off
 Zerner damping         CNVZerner       .... off
 Static damping         CNVDamp         .... off
 Fernandez-Rico         CNVRico         .... off

SCF Procedure:
 Maximum # iterations   MaxIter         ....   999
 SCF integral mode      SCFMode         .... Direct
   Integral package                     .... LIBINT
 Reset frequeny         DirectResetFreq ....    20
 Integral Threshold     Thresh          ....  1.000e-10 Eh
 Primitive CutOff       TCut            ....  1.000e-11 Eh

Convergence Tolerance:
 Convergence Check Mode ConvCheckMode   .... All-Criteria
 Convergence forced     ConvForced      .... 0
 Energy Change          TolE            ....  1.000e-06 Eh
 Max Density Change     TolMaxP         ....  1.000e-05
 RMS Density Change     TolRMSP         ....  1.000e-06
 DIIS Error             TolErr          ....  1.000e-06


Diagonalization of the overlap matrix:
Smallest eigenvalue                        ... 6.336e-02
Time for diagonalization                   ...    0.000 sec
Threshold for overlap eigenvalues          ... 1.000e-08
Number of eigenvalues below threshold      ... 0
Time for construction of square roots      ...    0.005 sec
Total time needed                          ...    0.006 sec

-------------------
DFT GRID GENERATION
-------------------

General Integration Accuracy     IntAcc      ...  4.340
Radial Grid Type                 RadialGrid  ... Gauss-Chebyshev
Angular Grid (max. acc.)         AngularGrid ... Lebedev-110
Angular grid pruning method      GridPruning ... 3 (G Style)
Weight generation scheme         WeightScheme... Becke
Basis function cutoff            BFCut       ...    1.0000e-10
Integration weight cutoff        WCut        ...    1.0000e-14
Grids for H and He will be reduced by one unit

# of grid points (after initial pruning)     ...   4084 (   0.0 sec)
# of grid points (after weights+screening)   ...   4049 (   0.0 sec)
nearest neighbour list constructed           ...    0.0 sec
Grid point re-assignment to atoms done       ...    0.0 sec
Grid point division into batches done        ...    0.0 sec
Reduced shell lists constructed in    0.0 sec

Total number of grid points                  ...     4049
Total number of batches                      ...       65
Average number of points per batch           ...       62
Average number of grid points per atom       ...     1012
Average number of shells per batch           ...     9.38 (78.16%)
Average number of basis functions per batch  ...    14.95 (74.77%)
Average number of large shells per batch     ...     8.44 (89.98%)
Average number of large basis fcns per batch ...    13.50 (90.27%)
Maximum spatial batch extension              ...  25.65, 15.12, 25.65 au
Average spatial batch extension              ...   5.77,  5.26,  6.08 au

Time for grid setup =    0.022 sec

------------------------------
INITIAL GUESS: MODEL POTENTIAL
------------------------------
Loading Hartree-Fock densities                     ... done
Calculating cut-offs                               ... done
Setting up the integral package                    ... done
Initializing the effective Hamiltonian             ... done
Starting the Coulomb interaction                   ... done (   0.0 sec)
Reading the grid                                   ... done
Mapping shells                                     ... done
Starting the XC term evaluation                    ... done (   0.0 sec)
  promolecular density results
     # of electrons  =      9.996132288
     EX              =     -7.181715438
     EC              =     -0.263053509
     EX+EC           =     -7.444768947
Transforming the Hamiltonian                       ... done (   0.0 sec)
Diagonalizing the Hamiltonian                      ... done (   0.0 sec)
Back transforming the eigenvectors                 ... done (   0.0 sec)
Now organizing SCF variables                       ... done
                      ------------------
                      INITIAL GUESS DONE (   0.1 sec)
                      ------------------
--------------
SCF ITERATIONS
--------------
ITER       Energy         Delta-E        Max-DP      RMS-DP      [F,P]   Gradient Norm
               ***  Starting incremental Fock matrix formation  ***
                             ****Resetting KDIIS****
                             ****Turning on KDIIS(Cayley)****
  0    -55.7743771065   0.000000000000 0.03745472  0.00407005  0.1430346   0.115367155
  1    -55.8003258765  -0.025948770024 0.03655619  0.00541824  0.1172168   0.097095059
  2    -55.8326437357  -0.032317859208 0.07113460  0.01246146  0.0901669   0.081113477
  3    -55.9058431261  -0.073199390396 0.14608846  0.02372978  0.1044990   0.056535051
  4    -55.9911520995  -0.085308973389 0.09780300  0.01666663  0.0495003   0.040689534
  5    -55.9462647853   0.044887314205 0.04654603  0.00591215  0.0919124   0.042129353
  6    -55.9542209773  -0.007956191947 0.07077017  0.01075262  0.0900008   0.042277229
  7    -55.9863338906  -0.032112913331 0.11707359  0.01763532  0.0626778   0.030357130
  8    -55.9368026576   0.049531233026 0.73996205  0.09210077  0.0904218   0.040670571
  9    -55.7032914183   0.233511239296 0.85082470  0.12671780  0.0639585   0.058794939
 10    -55.6064082675   0.096883150806 0.67365000  0.10550982  0.2310820   0.201064681
 11    -55.8969539870  -0.290545719511 0.08319091  0.00848647  0.1381701   0.070822757
 12    -55.9064287847  -0.009474797778 0.31132798  0.03636465  0.1411297   0.074174973
 13    -55.9988054854  -0.092376700634 0.23398442  0.02742349  0.0238984   0.023458480
 14    -55.9683894137   0.030416071694 0.07271874  0.00839878  0.0956991   0.046094190
 15    -55.9946275807  -0.026238167017 0.17249089  0.02062143  0.0559016   0.027149132
 16    -55.9963388003  -0.001711219598 0.05495236  0.00667417  0.0449716   0.020348051
 17    -56.0049428311  -0.008604030755 0.01690612  0.00205826  0.0191775   0.008609729
 18    -56.0061832708  -0.001240439741 0.01420725  0.00168873  0.0103151   0.004643023
 19    -56.0066385209  -0.000455250096 0.00535041  0.00063901  0.0028124   0.001279364
               *** Restarting incremental Fock matrix formation ***
                             ****Resetting KDIIS****
 20    -56.0066776096  -0.000039088680 0.00008699  0.00000930  0.0002021   0.000143162
                          ***Energy convergence achieved***
 21    -56.0066777408  -0.000000131255 0.00014876  0.00001678  0.0001787   0.000124114
 22    -56.0066779516  -0.000000210816 0.00057860  0.00006286  0.0001785   0.000117316
 23    -56.0066786937  -0.000000742103 0.00395141  0.00041209  0.0001778   0.000103117
 24    -56.0066832371  -0.000004543338 0.03845464  0.00391100  0.0001755   0.000094101
 25    -56.0067192361  -0.000035999007 0.00202010  0.00021623  0.0002437   0.000182361
 26    -56.0067211265  -0.000001890445 0.01640661  0.00163515  0.0001610   0.000078789
 27    -56.0067322459  -0.000011119361 0.01380137  0.00135996  0.0001581   0.000096842
 28    -56.0067366490  -0.000004403066 0.00282536  0.00030953  0.0006717   0.000446381
                          ***Energy convergence achieved***
 29    -56.0067374633  -0.000000814316 0.02281399  0.00225094  0.0004346   0.000297904
 30    -56.0067232170   0.000014246240 0.00600905  0.00080260  0.0001580   0.000074586
 31    -56.0067160948   0.000007122188 0.00470317  0.00063241  0.0001574   0.000072263
 32    -56.0067217170  -0.000005622147 0.00103535  0.00012895  0.0001577   0.000071817
                          ***Energy convergence achieved***
 33    -56.0067225777  -0.000000860672 0.00951091  0.00093831  0.0001583   0.000072162
 34    -56.0067291270  -0.000006549359 0.00451596  0.00044251  0.0001570   0.000075424
 35    -56.0067266848   0.000002442230 0.00057701  0.00008006  0.0001580   0.000073172
                          ***Energy convergence achieved***
 36    -56.0067267058  -0.000000021014 0.01034911  0.00120095  0.0001578   0.000072207
 37    -56.0067162110   0.000010494775 0.01070259  0.00130579  0.0001567   0.000071698
 38    -56.0067047420   0.000011468995 0.02207225  0.00292351  0.0001596   0.000074841
 39    -56.0067300849  -0.000025342886 0.08888640  0.01036584  0.0001641   0.000105393
               *** Restarting incremental Fock matrix formation ***
                             ****Resetting KDIIS****
 40    -56.0068470965  -0.000117011607 0.00007362  0.00000929  0.0012089   0.000718820
                          ***Energy convergence achieved***
 41    -56.0068475771  -0.000000480575 0.00025690  0.00002821  0.0010982   0.000656324
 42    -56.0068485927  -0.000001015594 0.00052314  0.00005932  0.0008784   0.000532549
 43    -56.0068501587  -0.000001565960 0.00064730  0.00007351  0.0005192   0.000334297
 44    -56.0068515482  -0.000001389510 0.00720283  0.00088099  0.0002530   0.000118466
 45    -56.0068388199   0.000012728227 0.05490589  0.00695012  0.0002468   0.000116660
 46    -56.0067476060   0.000091213961 0.01364971  0.00178260  0.0002939   0.000241231
 47    -56.0067692046  -0.000021598630 0.03859516  0.00516484  0.0002099   0.000177173
 48    -56.0067081250   0.000061079611 0.00145084  0.00019346  0.0007235   0.000505054
 49    -56.0067104980  -0.000002373033 0.02278008  0.00306476  0.0007985   0.000531145
 50    -56.0067470095  -0.000036511494 0.02111783  0.00264561  0.0003947   0.000267141
 51    -56.0067207235   0.000026286025 0.01911263  0.00244005  0.0003884   0.000258960
 52    -56.0066996316   0.000021091878 0.04493233  0.00571731  0.0001792   0.000156902
 53    -56.0067553175  -0.000055685824 0.00759723  0.00092042  0.0001965   0.000144964
 54    -56.0067458090   0.000009508495 0.02933562  0.00344467  0.0001876   0.000125832
 55    -56.0067794376  -0.000033628613 0.04077191  0.00462606  0.0009670   0.000599221
 56    -56.0068362674  -0.000056829790 0.09692818  0.01136628  0.0015280   0.000922436
 57    -56.0067128476   0.000123419725 0.04473129  0.00572389  0.0002773   0.000207635
 58    -56.0066570780   0.000055769594 0.16482810  0.01984211  0.0004405   0.000309592
 59    -56.0068802631  -0.000223185018 0.00786277  0.00106778  0.0018299   0.001085612
               *** Restarting incremental Fock matrix formation ***
                             ****Resetting KDIIS****
 60    -56.0069010455  -0.000020782404 0.00007193  0.00001153  0.0012134   0.000782717
                          ***Energy convergence achieved***
 61    -56.0069016528  -0.000000607345 0.00018412  0.00002440  0.0011031   0.000713032
 62    -56.0069027309  -0.000001078092 0.00051502  0.00006814  0.0008934   0.000587217
 63    -56.0069047397  -0.000002008758 0.00053704  0.00007304  0.0005306   0.000372623
 64    -56.0069063806  -0.000001640989 0.00693982  0.00092228  0.0002867   0.000138392
 65    -56.0068906995   0.000015681141 0.02734609  0.00366830  0.0002763   0.000136024
 66    -56.0068311874   0.000059512148 0.00167677  0.00022655  0.0002410   0.000152321
 67    -56.0068347543  -0.000003566905 0.00483742  0.00065187  0.0002425   0.000143423
 68    -56.0068245492   0.000010205054 0.00776809  0.00097514  0.0002378   0.000147059
 69    -56.0068391925  -0.000014643255 0.00212136  0.00021984  0.0002462   0.000252185
 70    -56.0068366310   0.000002561461 0.00442992  0.00058211  0.0002433   0.000144969
 71    -56.0068462514  -0.000009620433 0.02549062  0.00276346  0.0002479   0.000128429
 72    -56.0068116199   0.000034631549 0.12129459  0.01533299  0.0002319   0.000138462
 73    -56.0066417011   0.000169918786 0.02760825  0.00326960  0.0018933   0.001146535
 74    -56.0066846338  -0.000042932655 0.04545617  0.00559133  0.0012399   0.000726920
 75    -56.0067329369  -0.000048303113 0.00889956  0.00130464  0.0007055   0.000531844
 76    -56.0067378292  -0.000004892339 0.00091979  0.00011521  0.0005495   0.000386960
 77    -56.0067367284   0.000001100810 0.02348094  0.00309277  0.0005591   0.000390306
 78    -56.0067079725   0.000028755897 0.02498035  0.00318851  0.0006918   0.000499707
 79    -56.0067363137  -0.000028341236 0.02024535  0.00242828  0.0007231   0.000500290
               *** Restarting incremental Fock matrix formation ***
                             ****Resetting KDIIS****
 80    -56.0067175151   0.000018798615 0.00003784  0.00000449  0.0001619   0.000095856
                          ***Energy convergence achieved***
 81    -56.0067175588  -0.000000043724 0.00010048  0.00001233  0.0001618   0.000092005
 82    -56.0067176760  -0.000000117113 0.00029347  0.00003550  0.0001618   0.000086358
 83    -56.0067180069  -0.000000330890 0.00238340  0.00028921  0.0001616   0.000078941
 84    -56.0067206503  -0.000002643486 0.01387574  0.00166732  0.0001610   0.000074396
 85    -56.0067356268  -0.000014976461 0.00891677  0.00106207  0.0001630   0.000075565
 86    -56.0067260776   0.000009549190 0.00068023  0.00007947  0.0001607   0.000090622
                          ***Energy convergence achieved***
 87    -56.0067268023  -0.000000724732 0.00033855  0.00004373  0.0001610   0.000077984
 88    -56.0067271941  -0.000000391748 0.00420364  0.00049480  0.0001607   0.000073881
 89    -56.0067227707   0.000004423431 0.00353840  0.00042775  0.0001598   0.000077297
 90    -56.0067189301   0.000003840550 0.00671415  0.00080427  0.0001600   0.000073457
 91    -56.0067261625  -0.000007232398 0.00407759  0.00054333  0.0001600   0.000073023
 92    -56.0067225545   0.000003608015 0.02714927  0.00340219  0.0001562   0.000072296
 93    -56.0066934013   0.000029153142 0.07529007  0.00896462  0.0001618   0.000099562
 94    -56.0067759277  -0.000082526378 0.01681238  0.00191187  0.0005163   0.000349527
 95    -56.0067561044   0.000019823360 0.16448997  0.01756331  0.0003705   0.000262339
 96    -56.0069739318  -0.000217827409 0.09953775  0.01043149  0.0038947   0.002262011
 97    -56.0068359293   0.000138002492 0.18261359  0.02243754  0.0013387   0.000881493
 98    -56.0065917117   0.000244217577 0.09706643  0.01169351  0.0012806   0.000773956
 99    -56.0067208106  -0.000129098891 0.07864104  0.00894785  0.0005849   0.000336602
               *** Restarting incremental Fock matrix formation ***
                             ****Resetting KDIIS****
100    -56.0068106553  -0.000089844715 0.00012178  0.00001861  0.0013043   0.000880154
                          ***Energy convergence achieved***
101    -56.0068116192  -0.000000963937 0.00017748  0.00002136  0.0011859   0.000783718
102    -56.0068127694  -0.000001150175 0.00049632  0.00005720  0.0009712   0.000643274
103    -56.0068146599  -0.000001890462 0.00092177  0.00010743  0.0005949   0.000397968
104    -56.0068166918  -0.000002031901 0.00401092  0.00054161  0.0002246   0.000107739
105    -56.0068094454   0.000007246377 0.03518835  0.00470812  0.0002200   0.000106415
106    -56.0067513061   0.000058139326 0.00360711  0.00047848  0.0001762   0.000149430
107    -56.0067460031   0.000005302999 0.01000108  0.00133620  0.0001714   0.000130389
108    -56.0067316763   0.000014326787 0.00141332  0.00019319  0.0001600   0.000096683
109    -56.0067335926  -0.000001916267 0.00342585  0.00040507  0.0001613   0.000098291
110    -56.0067306424   0.000002950136 0.00621912  0.00110051  0.0001576   0.000097720
111    -56.0067384696  -0.000007827203 0.06860388  0.00883860  0.0001582   0.000106107
112    -56.0066562128   0.000082256872 0.07435843  0.00942436  0.0006900   0.000460023
113    -56.0067459563  -0.000089743502 0.31651044  0.03466335  0.0001986   0.000170234
114    -56.0070060717  -0.000260115447 0.09396589  0.01020750  0.0100062   0.005485013
115    -56.0070741438  -0.000068072087 0.29196316  0.03367847  0.0048582   0.002669518
116    -56.0066558910   0.000418252819 0.10099706  0.01342356  0.0006461   0.000411555
117    -56.0067903138  -0.000134422832 0.21999671  0.02532085  0.0003989   0.000287131
118    -56.0064406025   0.000349711329 0.10467092  0.01071621  0.0033569   0.002016040
119    -56.0066354850  -0.000194882543 0.42157783  0.04709982  0.0010744   0.000677845
               *** Restarting incremental Fock matrix formation ***
                             ****Resetting KDIIS****
120    -56.0069559849  -0.000320499846 0.00121507  0.00015369  0.0109136   0.006040911
121    -56.0070078362  -0.000051851337 0.00076636  0.00011687  0.0099358   0.005299059
122    -56.0070553727  -0.000047536470 0.00170789  0.00023096  0.0080831   0.004327785
123    -56.0071181843  -0.000062811640 0.00305081  0.00039116  0.0048446   0.002595407
124    -56.0071557212  -0.000037536898 0.00270290  0.00033829  0.0002110   0.000119445
125    -56.0071602853  -0.000004564105 0.02329185  0.00293237  0.0002057   0.000116246
126    -56.0071907145  -0.000030429136 0.00503547  0.00062542  0.0003190   0.000210123
127    -56.0071955962  -0.000004881728 0.02623613  0.00331416  0.0001143   0.000082512
128    -56.0072057254  -0.000010129201 0.00105632  0.00014103  0.0005375   0.000323282
                          ***Energy convergence achieved***
129    -56.0072062548  -0.000000529387 0.00093487  0.00011834  0.0003672   0.000222972
130    -56.0072067975  -0.000000542709 0.00010293  0.00001375  0.0000419   0.000029490

            ***Energy convergence in two consecutive cycles with***
                    ***'reasonable' density convergence***
                       *** signaling convergence ***

                    *** KDIIS BlockDiag ( 0.000 sec) ***

               *****************************************************
               *                     SUCCESS                       *
               *           SCF CONVERGED AFTER 131 CYCLES          *
               *****************************************************

Setting up the final grid:

General Integration Accuracy     IntAcc      ...  4.670
Radial Grid Type                 RadialGrid  ... Gauss-Chebyshev
Angular Grid (max. acc.)         AngularGrid ... Lebedev-302
Angular grid pruning method      GridPruning ... 3 (G Style)
Weight generation scheme         WeightScheme... Becke
Basis function cutoff            BFCut       ...    1.0000e-10
Integration weight cutoff        WCut        ...    1.0000e-14
Grids for H and He will be reduced by one unit

# of grid points (after initial pruning)     ...  16394 (   0.0 sec)
# of grid points (after weights+screening)   ...  16273 (   0.0 sec)
nearest neighbour list constructed           ...    0.0 sec
Grid point re-assignment to atoms done       ...    0.0 sec
Grid point division into batches done        ...    0.0 sec
Reduced shell lists constructed in    0.1 sec

Total number of grid points                  ...    16273
Total number of batches                      ...      257
Average number of points per batch           ...       63
Average number of grid points per atom       ...     4068
Average number of shells per batch           ...     8.52 (70.96%)
Average number of basis functions per batch  ...    13.52 (67.58%)
Average number of large shells per batch     ...     7.34 (86.25%)
Average number of large basis fcns per batch ...    11.37 (84.11%)
Maximum spatial batch extension              ...  21.92, 14.66, 16.92 au
Average spatial batch extension              ...   3.37,  3.37,  3.38 au

Final grid set up in    0.1 sec
Final integration                            ... done (   0.1 sec)
Change in XC energy                          ...    -0.000170420
Integrated number of electrons               ...    10.000002415
Previous integrated no of electrons          ...     9.996483314

----------------
TOTAL SCF ENERGY
----------------

Total Energy       :          -56.00737724 Eh           -1524.03822 eV

Components:
Nuclear Repulsion  :            4.50351294 Eh             122.54682 eV
Electronic Energy  :          -60.51089018 Eh           -1646.58503 eV
One Electron Energy:          -84.48410184 Eh           -2298.92929 eV
Two Electron Energy:           23.97321166 Eh             652.34425 eV

Virial components:
Potential Energy   :         -111.52504031 Eh           -3034.75063 eV
Kinetic Energy     :           55.51766307 Eh            1510.71242 eV
Virial Ratio       :            2.00882087


DFT components:
N(Alpha)           :        5.000001207597 electrons
N(Beta)            :        5.000001207597 electrons
N(Total)           :       10.000002415193 electrons
E(XC)              :       -5.117765558909 Eh       

---------------
SCF CONVERGENCE
---------------

  Last Energy change         ...   -2.5214e-08  Tolerance :   1.0000e-06
  Last MAX-Density change    ...    7.8182e-05  Tolerance :   1.0000e-05
  Last RMS-Density change    ...    9.8326e-06  Tolerance :   1.0000e-06
  Last DIIS Error            ...    2.3591e-05  Tolerance :   1.0000e-06

             **** THE GBW FILE WAS UPDATED (Scan_30.gbw) ****
             **** DENSITY FILE WAS UPDATED (Scan_30.scfp.tmp) ****
             **** ENERGY FILE WAS UPDATED (Scan_30.en.tmp) ****
----------------
ORBITAL ENERGIES
----------------

  NO   OCC          E(Eh)            E(eV) 
   0   2.0000     -14.537261      -395.5790 
   1   2.0000      -0.802916       -21.8485 
   2   2.0000      -0.586480       -15.9589 
   3   2.0000      -0.338874        -9.2212 
   4   2.0000      -0.291770        -7.9395 
   5   0.0000      -0.138068        -3.7570 
   6   0.0000      -0.065490        -1.7821 
   7   0.0000       0.198477         5.4008 
   8   0.0000       0.729502        19.8508 
   9   0.0000       0.788519        21.4567 
  10   0.0000       0.802646        21.8411 
  11   0.0000       0.844659        22.9843 
  12   0.0000       0.886555        24.1244 
  13   0.0000       0.906512        24.6674 
  14   0.0000       1.036526        28.2053 
  15   0.0000       1.810264        49.2598 
  16   0.0000       1.812111        49.3100 
  17   0.0000       1.826605        49.7045 
  18   0.0000       1.847223        50.2655 
  19   0.0000       1.852062        50.3972 

                    ********************************
                    * MULLIKEN POPULATION ANALYSIS *
                    ********************************

-----------------------
MULLIKEN ATOMIC CHARGES
-----------------------
   0 N :   -0.117563
   1 H :    0.100657
   2 H :   -0.082966
   3 H :    0.099872
Sum of atomic charges:   -0.0000000

--------------------------------
MULLIKEN REDUCED ORBITAL CHARGES
--------------------------------
  0 N s       :     3.999762  s :     3.999762
      pz      :     1.019372  p :     3.117605
      px      :     0.643775
      py      :     1.454458
      dz2     :     0.000002  d :     0.000197
      dxz     :     0.000021
      dyz     :     0.000109
      dx2y2   :     0.000046
      dxy     :     0.000020
  1 H s       :     0.899343  s :     0.899343
  2 H s       :     1.082966  s :     1.082966
  3 H s       :     0.900128  s :     0.900128


                     *******************************
                     * LOEWDIN POPULATION ANALYSIS *
                     *******************************

----------------------
LOEWDIN ATOMIC CHARGES
----------------------
   0 N :   -0.119328
   1 H :    0.056364
   2 H :    0.007084
   3 H :    0.055880

-------------------------------
LOEWDIN REDUCED ORBITAL CHARGES
-------------------------------
  0 N s       :     3.999673  s :     3.999673
      pz      :     1.019896  p :     3.119456
      px      :     0.644782
      py      :     1.454778
      dz2     :     0.000002  d :     0.000200
      dxz     :     0.000021
      dyz     :     0.000109
      dx2y2   :     0.000047
      dxy     :     0.000020
  1 H s       :     0.943636  s :     0.943636
  2 H s       :     0.992916  s :     0.992916
  3 H s       :     0.944120  s :     0.944120


                      *****************************
                      * MAYER POPULATION ANALYSIS *
                      *****************************

  NA   - Mulliken gross atomic population
  ZA   - Total nuclear charge
  QA   - Mulliken gross atomic charge
  VA   - Mayer's total valence
  BVA  - Mayer's bonded valence
  FA   - Mayer's free valence

  ATOM       NA         ZA         QA         VA         BVA        FA
  0 N      7.1176     7.0000    -0.1176     0.9892     0.9892    -0.0000
  1 H      0.8993     1.0000     0.1007     0.9526     0.9526    -0.0000
  2 H      1.0830     1.0000    -0.0830     0.9926     0.9926    -0.0000
  3 H      0.9001     1.0000     0.0999     0.9527     0.9527    -0.0000

  Mayer bond orders larger than 0.1
B(  0-N ,  1-H ) :   0.4941 B(  0-N ,  3-H ) :   0.4950 B(  1-H ,  2-H ) :   0.4966 
B(  2-H ,  3-H ) :   0.4958 

-------
TIMINGS
-------

Total SCF time: 0 days 0 hours 0 min 38 sec 

Total time                  ....      38.416 sec
Sum of individual times     ....      37.448 sec  ( 97.5%)

Fock matrix formation       ....      37.127 sec  ( 96.6%)
  XC integration            ....       6.120 sec  ( 16.5% of F)
    Basis function eval.    ....       1.392 sec  ( 22.7% of XC)
    Density eval.           ....       0.259 sec  (  4.2% of XC)
    XC-Functional eval.     ....       1.918 sec  ( 31.3% of XC)
    XC-Potential eval.      ....       0.107 sec  (  1.8% of XC)
Diagonalization             ....       0.055 sec  (  0.1%)
Density matrix formation    ....       0.001 sec  (  0.0%)
Population analysis         ....       0.009 sec  (  0.0%)
Initial guess               ....       0.118 sec  (  0.3%)
Orbital Transformation      ....       0.000 sec  (  0.0%)
Orbital Orthonormalization  ....       0.000 sec  (  0.0%)
DIIS solution               ....       0.000 sec  (  0.0%)
Grid generation             ....       0.138 sec  (  0.4%)


-------------------------------------------------------------------------------
                          DFT DISPERSION CORRECTION                            
                                                                               
                              DFTD3 V3.1  Rev 1                                
                              USING zero damping                               
-------------------------------------------------------------------------------
The omegaB97X-D3 functional is recognized. Fit by Chai et al.
Active option DFTDOPT                   ...         3   

molecular C6(AA) [au] = 169.299433 


            DFT-D V3
 parameters
 s6 scaling factor         :     1.0000 
 rs6 scaling factor        :     1.2810 
 s8 scaling factor         :     1.0000 
 rs8 scaling factor        :     1.0940 
 Damping factor alpha6     :    14.0000 
 Damping factor alpha8     :    16.0000 
 ad hoc parameters k1-k3   :    16.0000     1.3333    -4.0000 

 Edisp/kcal,au: -0.293999384378  -0.000468517792 
 E6   /kcal   :  -0.166292139 
 E8   /kcal   :  -0.127707246 
 % E8         :  43.437929638 

-------------------------   ----------------
Dispersion correction           -0.000468518
-------------------------   ----------------


-------------------------   --------------------
FINAL SINGLE POINT ENERGY       -56.007845760928
-------------------------   --------------------


                            ***************************************
                            *     ORCA property calculations      *
                            ***************************************

                                    ---------------------
                                    Active property flags
                                    ---------------------
   (+) Dipole Moment


------------------------------------------------------------------------------
                       ORCA ELECTRIC PROPERTIES CALCULATION
------------------------------------------------------------------------------

Dipole Moment Calculation                       ... on
Quadrupole Moment Calculation                   ... off
Polarizability Calculation                      ... off
GBWName                                         ... Scan_30.gbw
Electron density file                           ... Scan_30.scfp.tmp

-------------
DIPOLE MOMENT
-------------
                                X             Y             Z
Electronic contribution:     -1.99376      -6.55383       1.71642
Nuclear contribution   :      2.19847       7.22468      -1.89392
                        -----------------------------------------
Total Dipole Moment    :      0.20471       0.67085      -0.17750
                        -----------------------------------------
Magnitude (a.u.)       :      0.72350
Magnitude (Debye)      :      1.83898


Timings for individual modules:

Sum of individual times         ...       38.764 sec (=   0.646 min)
GTO integral calculation        ...        0.325 sec (=   0.005 min)   0.8 %
SCF iterations                  ...       38.439 sec (=   0.641 min)  99.2 %
                             ****ORCA TERMINATED NORMALLY****
TOTAL RUN TIME: 0 days 0 hours 0 minutes 39 seconds 110 msec
