
                                 *****************
                                 * O   R   C   A *
                                 *****************

           --- An Ab Initio, DFT and Semiempirical electronic structure package ---

                  #######################################################
                  #                        -***-                        #
                  #  Department of molecular theory and spectroscopy    #
                  #              Directorship: Frank Neese              #
                  # Max Planck Institute for Chemical Energy Conversion #
                  #                  D-45470 Muelheim/Ruhr              #
                  #                       Germany                       #
                  #                                                     #
                  #                  All rights reserved                #
                  #                        -***-                        #
                  #######################################################


                         Program Version 4.0.0.2 - RELEASE -


 With contributions from (in alphabetic order):
   Daniel Aravena         : Magnetic Properties
   Michael Atanasov       : Ab Initio Ligand Field Theory
   Ute Becker             : Parallelization
   Martin Brehm           : Molecular dynamics
   Dmytro Bykov           : SCF Hessian
   Vijay G. Chilkuri      : MRCI spin determinant printing
   Dipayan Datta          : RHF DLPNO-CCSD density
   Achintya Kumar Dutta   : EOM-CC, STEOM-CC
   Dmitry Ganyushin       : Spin-Orbit,Spin-Spin,Magnetic field MRCI
   Yang Guo               : DLPNO-NEVPT2, CIM, IAO-localization
   Andreas Hansen         : Spin unrestricted coupled pair/coupled cluster methods
   Lee Huntington         : MR-EOM, pCC
   Robert Izsak           : Overlap fitted RIJCOSX, COSX-SCS-MP3, EOM
   Christian Kollmar      : KDIIS, OOCD, Brueckner-CCSD(T), CCSD density
   Simone Kossmann        : Meta GGA functionals, TD-DFT gradient, OOMP2, MP2 Hessian
   Martin Krupicka        : AUTO-CI
   Dagmar Lenk            : GEPOL surface
   Dimitrios Liakos       : Extrapolation schemes; parallel MDCI
   Dimitrios Manganas     : ROCIS; embedding schemes
   Dimitrios Pantazis     : SARC Basis sets
   Taras Petrenko         : DFT Hessian,TD-DFT gradient, ASA, ECA, R-Raman, ABS, FL, XAS/XES, NRVS
   Peter Pinski           : DLPNO-MP2
   Christoph Reimann      : Effective Core Potentials
   Marius Retegan         : Local ZFS, SOC
   Christoph Riplinger    : Optimizer, TS searches, QM/MM, DLPNO-CCSD(T), (RO)-DLPNO pert. Triples
   Tobias Risthaus        : Range-separated hybrids, TD-DFT gradient, RPA, STAB
   Michael Roemelt        : Restricted open shell CIS
   Masaaki Saitow         : Open-shell DLPNO
   Barbara Sandhoefer     : DKH picture change effects
   Kantharuban Sivalingam : CASSCF convergence, NEVPT2, FIC-MRCI
   Georgi Stoychev        : AutoAux
   Boris Wezisla          : Elementary symmetry handling
   Frank Wennmohs         : Technical directorship


 We gratefully acknowledge several colleagues who have allowed us to
 interface, adapt or use parts of their codes:
   Stefan Grimme, W. Hujo, H. Kruse,             : VdW corrections, initial TS optimization,
                  C. Bannwarth                     DFT functionals, gCP, sTDA/sTD-DF
   Ed Valeev                                     : LibInt (2-el integral package), F12 methods
   Garnet Chan, S. Sharma, J. Yang, R. Olivares  : DMRG
   Ulf Ekstrom                                   : XCFun DFT Library
   Mihaly Kallay                                 : mrcc  (arbitrary order and MRCC methods)
   Jiri Pittner, Ondrej Demel                    : Mk-CCSD
   Frank Weinhold                                : gennbo (NPA and NBO analysis)
   Christopher J. Cramer and Donald G. Truhlar   : smd solvation model


 Your calculation uses the libint2 library for the computation of 2-el integrals
 For citations please refer to: http://libint.valeyev.net

 This ORCA versions uses:
   CBLAS   interface :  Fast vector & matrix operations
   LAPACKE interface :  Fast linear algebra routines
   SCALAPACK package :  Parallel linear algebra routines


Your calculation utilizes the atom-pairwise dispersion correction
with the zero-damping scheme (D30)
Cite in your paper:
S.Grimme, J.Antony, S.Ehrlich and H.Krieg, J.Chem.Phys., 132, (2010), 154104 
   

XCFun DFT library Copyright 2009-2010 Ulf Ekstrom and contributors.
See http://admol.org/xcfun for more information. This is free soft-
ware; see the source code for copying conditions. There is ABSOLUTELY
NO WARRANTY; not even for MERCHANTABILITY or FITNESS FOR A PARTICULAR
PURPOSE. For details see the documentation. Scientific users of this 
library should cite U. Ekstrom, L. Visscher, R. Bast, A. J. Thorvald-
sen and K. Ruud; J.Chem.Theor.Comp. 2010, DOI: 10.1021/ct100117s
XCFun Version 0.99 
Your calculation utilizes the basis: 6-31G(d)
   H-He, Li-Ne : W. J. Hehre, R. Ditchfield and J.A. Pople, J. Chem. Phys. 56, 2257 (1972).
                 Note: He and Ne are unpublished basis sets taken from the Gaussian program.
                 Note: Li and B from J. D. Dill and J. A. Pople, J. Chem. Phys. 62, 2921 (1975).
   Na - Ar     : M. M. Francl, W. J. Pietro, W. J. Hehre, J. S. Binkley, M. S. Gordon, 
                 D. J. DeFrees and J. A. Pople, J. Chem. Phys. 77, 3654 (1982).
   K - Zn      : V. A. Rassolov, J. A. Pople, M. A. Ratner, and T. L. Windus, J. Chem. Phys. 109, 1223 (1998).

================================================================================
                                        WARNINGS
                       Please study these warnings very carefully!
================================================================================

Warning: TCutStore was < 0. Adjusted to Thresh (uncritical)

INFO   : the flag for use of LIBINT has been found!

================================================================================
                                       INPUT FILE
================================================================================
NAME = initial31.inp
|  1> ! WB97X-D3 6-31G(d) VerySlowConv
|  2> ! KDIIS NOSOSCF
|  3> %base "Scan_31"
|  4> 
|  5> %scf
|  6> maxiter 999
|  7> end
|  8> 
|  9> * xyz 0 1
| 10> N         -0.684486820542   -1.118896046341    0.596723043162
| 11> H          1.038598049266    1.682763591204   -0.797233714915
| 12> H          0.319526762192    2.183577274024   -0.270257293446
| 13> H         -0.471787990917    2.436775181113    0.325807965199
| 14> **                         ****END OF INPUT****
================================================================================

                       ****************************
                       * Single Point Calculation *
                       ****************************

---------------------------------
CARTESIAN COORDINATES (ANGSTROEM)
---------------------------------
  N     -0.684487   -1.118896    0.596723
  H      1.038598    1.682764   -0.797234
  H      0.319527    2.183577   -0.270257
  H     -0.471788    2.436775    0.325808

----------------------------
CARTESIAN COORDINATES (A.U.)
----------------------------
  NO LB      ZA    FRAG     MASS         X           Y           Z
   0 N     7.0000    0    14.007   -1.293493   -2.114407    1.127643
   1 H     1.0000    0     1.008    1.962666    3.179962   -1.506553
   2 H     1.0000    0     1.008    0.603818    4.126363   -0.510712
   3 H     1.0000    0     1.008   -0.891550    4.604838    0.615688

--------------------------------
INTERNAL COORDINATES (ANGSTROEM)
--------------------------------
 N      0   0   0     0.000000000000     0.00000000     0.00000000
 H      1   0   0     3.572314884861     0.00000000     0.00000000
 H      2   1   0     1.022537045577    81.01483080     0.00000000
 H      3   2   1     1.022537046373   164.99457321     1.10095631

---------------------------
INTERNAL COORDINATES (A.U.)
---------------------------
 N      0   0   0     0.000000000000     0.00000000     0.00000000
 H      1   0   0     6.750696796517     0.00000000     0.00000000
 H      2   1   0     1.932314977930    81.01483080     0.00000000
 H      3   2   1     1.932314979434   164.99457321     1.10095631

---------------------
BASIS SET INFORMATION
---------------------
There are 2 groups of distinct atoms

 Group   1 Type N   : 10s4p1d contracted to 3s2p1d pattern {631/31/1}
 Group   2 Type H   : 4s contracted to 2s pattern {31}

Atom   0N    basis set group =>   1
Atom   1H    basis set group =>   2
Atom   2H    basis set group =>   2
Atom   3H    basis set group =>   2
------------------------------------------------------------------------------
                           ORCA GTO INTEGRAL CALCULATION
------------------------------------------------------------------------------

                         BASIS SET STATISTICS AND STARTUP INFO

 # of primitive gaussian shells          ...   27
 # of primitive gaussian functions       ...   39
 # of contracted shells                  ...   12
 # of contracted basis functions         ...   20
 Highest angular momentum                ...    2
 Maximum contraction depth               ...    6
 Integral package used                   ... LIBINT
 Integral threshhold            Thresh   ...  1.000e-10
 Primitive cut-off              TCut     ...  1.000e-11


------------------------------ INTEGRAL EVALUATION ----------------------------


 * One electron integrals 
 Pre-screening matrix                    ... done
 Shell pair data                         ... done (   0.000 sec)

-------------------------------------------------------------------------------
                                 ORCA SCF
-------------------------------------------------------------------------------

------------
SCF SETTINGS
------------
Hamiltonian:
 Density Functional     Method          .... DFT(GTOs)
 Exchange Functional    Exchange        .... WB97X-D3
 Correlation Functional Correlation     .... WB97X-D3
 Gradients option       PostSCFGGA      .... off
 Hybrid DFT is turned on
   Fraction HF Exchange ScalHFX         ....  0.195728
   Scaling of DF-GGA-X  ScalDFX         ....  0.000000
   Scaling of DF-GGA-C  ScalDFC         ....  1.000000
   Scaling of DF-LDA-C  ScalLDAC        ....  1.000000
   Perturbative correction              ....  0.000000
 Long-range corrected/Screened/Range-Separated Hybrid DFT is turned on
   Amount of maximum screened exact exchange              ....  0.804272
   Range separation parameter mu (erf(mu*r12)/r12)        ....  0.250000


General Settings:
 Integral files         IntName         .... Scan_31
 Hartree-Fock type      HFTyp           .... RHF
 Total Charge           Charge          ....    0
 Multiplicity           Mult            ....    1
 Number of Electrons    NEL             ....   10
 Basis Dimension        Dim             ....   20
 Nuclear Repulsion      ENuc            ....      4.4107073007 Eh

Convergence Acceleration:
 DIIS                   CNVDIIS         .... on
   Start iteration      DIISMaxIt       ....     0
   Startup error        DIISStart       ....  0.200000
   # of expansion vecs  DIISMaxEq       ....     5
   Bias factor          DIISBfac        ....   1.050
   Max. coefficient     DIISMaxC        ....  10.000
 Newton-Raphson         CNVNR           .... off
 SOSCF                  CNVSOSCF        .... off
 Level Shifting         CNVShift        .... off
 Zerner damping         CNVZerner       .... off
 Static damping         CNVDamp         .... off
 Fernandez-Rico         CNVRico         .... off

SCF Procedure:
 Maximum # iterations   MaxIter         ....   999
 SCF integral mode      SCFMode         .... Direct
   Integral package                     .... LIBINT
 Reset frequeny         DirectResetFreq ....    20
 Integral Threshold     Thresh          ....  1.000e-10 Eh
 Primitive CutOff       TCut            ....  1.000e-11 Eh

Convergence Tolerance:
 Convergence Check Mode ConvCheckMode   .... All-Criteria
 Convergence forced     ConvForced      .... 0
 Energy Change          TolE            ....  1.000e-06 Eh
 Max Density Change     TolMaxP         ....  1.000e-05
 RMS Density Change     TolRMSP         ....  1.000e-06
 DIIS Error             TolErr          ....  1.000e-06


Diagonalization of the overlap matrix:
Smallest eigenvalue                        ... 6.335e-02
Time for diagonalization                   ...    0.000 sec
Threshold for overlap eigenvalues          ... 1.000e-08
Number of eigenvalues below threshold      ... 0
Time for construction of square roots      ...    0.004 sec
Total time needed                          ...    0.005 sec

-------------------
DFT GRID GENERATION
-------------------

General Integration Accuracy     IntAcc      ...  4.340
Radial Grid Type                 RadialGrid  ... Gauss-Chebyshev
Angular Grid (max. acc.)         AngularGrid ... Lebedev-110
Angular grid pruning method      GridPruning ... 3 (G Style)
Weight generation scheme         WeightScheme... Becke
Basis function cutoff            BFCut       ...    1.0000e-10
Integration weight cutoff        WCut        ...    1.0000e-14
Grids for H and He will be reduced by one unit

# of grid points (after initial pruning)     ...   4084 (   0.0 sec)
# of grid points (after weights+screening)   ...   4052 (   0.0 sec)
nearest neighbour list constructed           ...    0.0 sec
Grid point re-assignment to atoms done       ...    0.0 sec
Grid point division into batches done        ...    0.0 sec
Reduced shell lists constructed in    0.0 sec

Total number of grid points                  ...     4052
Total number of batches                      ...       65
Average number of points per batch           ...       62
Average number of grid points per atom       ...     1013
Average number of shells per batch           ...     9.30 (77.53%)
Average number of basis functions per batch  ...    14.97 (74.85%)
Average number of large shells per batch     ...     8.41 (90.39%)
Average number of large basis fcns per batch ...    13.47 (89.98%)
Maximum spatial batch extension              ...  25.65, 16.94, 25.65 au
Average spatial batch extension              ...   5.81,  5.39,  6.30 au

Time for grid setup =    0.022 sec

------------------------------
INITIAL GUESS: MODEL POTENTIAL
------------------------------
Loading Hartree-Fock densities                     ... done
Calculating cut-offs                               ... done
Setting up the integral package                    ... done
Initializing the effective Hamiltonian             ... done
Starting the Coulomb interaction                   ... done (   0.0 sec)
Reading the grid                                   ... done
Mapping shells                                     ... done
Starting the XC term evaluation                    ... done (   0.0 sec)
  promolecular density results
     # of electrons  =      9.996179625
     EX              =     -7.181589374
     EC              =     -0.262946551
     EX+EC           =     -7.444535925
Transforming the Hamiltonian                       ... done (   0.0 sec)
Diagonalizing the Hamiltonian                      ... done (   0.0 sec)
Back transforming the eigenvectors                 ... done (   0.0 sec)
Now organizing SCF variables                       ... done
                      ------------------
                      INITIAL GUESS DONE (   0.1 sec)
                      ------------------
--------------
SCF ITERATIONS
--------------
ITER       Energy         Delta-E        Max-DP      RMS-DP      [F,P]   Gradient Norm
               ***  Starting incremental Fock matrix formation  ***
                             ****Resetting KDIIS****
                             ****Turning on KDIIS(Cayley)****
  0    -55.7654065973   0.000000000000 0.03749929  0.00409345  0.1457018   0.115439749
  1    -55.7909752034  -0.025568606063 0.03648005  0.00543577  0.1198489   0.097015726
  2    -55.8221396771  -0.031164473714 0.06371410  0.01108882  0.0927726   0.080898216
  3    -55.8859486698  -0.063808992660 0.11920152  0.01925739  0.1018177   0.057160254
  4    -55.9715319163  -0.085583246545 0.03374396  0.00561616  0.0502336   0.038266055
  5    -55.9831120081  -0.011580091786 0.09731074  0.01391280  0.0367710   0.035504185
  6    -56.0005093747  -0.017397366628 0.04581983  0.00665197  0.0237123   0.011730377
  7    -55.9885966652   0.011912709530 0.05452798  0.00632435  0.0551742   0.025889863
  8    -55.9899909521  -0.001394286939 0.11831521  0.01508782  0.0523553   0.023694474
  9    -56.0023672739  -0.012376321755 0.02739657  0.00368493  0.0167618   0.008269124
 10    -56.0034531775  -0.001085903632 0.00630763  0.00082545  0.0023273   0.001105890
 11    -56.0034741604  -0.000020982875 0.00205623  0.00027792  0.0012177   0.000584869
 12    -56.0034815650  -0.000007404561 0.00131150  0.00015739  0.0001946   0.000142120
 13    -56.0034834873  -0.000001922320 0.00346705  0.00039815  0.0001930   0.000144164
 14    -56.0034889526  -0.000005465306 0.01080254  0.00120618  0.0001859   0.000135018
 15    -56.0035049546  -0.000016001989 0.05653572  0.00605324  0.0001631   0.000136783
 16    -56.0035546796  -0.000049725057 0.02650937  0.00279388  0.0011783   0.000701550
 17    -56.0035409239   0.000013755764 0.06275238  0.00651299  0.0001354   0.000119575
 18    -56.0035479223  -0.000006998429 0.01476580  0.00149724  0.0021546   0.001299972
 19    -56.0035193133   0.000028609039 0.00272036  0.00045495  0.0033127   0.002003181
               *** Restarting incremental Fock matrix formation ***
                             ****Resetting KDIIS****
 20    -56.0035560889  -0.000036775605 0.00031388  0.00004456  0.0012727   0.000782771
 21    -56.0035588511  -0.000002762205 0.00019431  0.00002795  0.0009381   0.000557294
 22    -56.0035600530  -0.000001201971 0.00042568  0.00006333  0.0007709   0.000462982
 23    -56.0035619422  -0.000001889205 0.00147073  0.00020147  0.0004549   0.000283398
 24    -56.0035646187  -0.000002676500 0.01085976  0.00167248  0.0001505   0.000077530
 25    -56.0035793049  -0.000014686142 0.00777313  0.00118714  0.0001157   0.000096365
 26    -56.0035880738  -0.000008768925 0.00026044  0.00003802  0.0001198   0.000097814
                          ***Energy convergence achieved***
 27    -56.0035877802   0.000000293651 0.00087034  0.00012768  0.0001333   0.000108019
 28    -56.0035868332   0.000000946974 0.00117657  0.00017303  0.0001170   0.000095159
 29    -56.0035880734  -0.000001240222 0.00029119  0.00004022  0.0001194   0.000066875
                          ***Energy convergence achieved***
 30    -56.0035877541   0.000000319346 0.00907028  0.00096552  0.0001190   0.000066390
 31    -56.0035811965   0.000006557517 0.01582779  0.00218020  0.0001125   0.000068080
 32    -56.0035653687   0.000015827818 0.00877207  0.00116381  0.0000954   0.000077978
 33    -56.0035573124   0.000008056316 0.00547758  0.00070464  0.0000906   0.000068718
 34    -56.0035621923  -0.000004879933 0.01806281  0.00239521  0.0000938   0.000061704
 35    -56.0035792241  -0.000017031797 0.01082145  0.00144149  0.0001519   0.000108604
 36    -56.0035688740   0.000010350114 0.01960707  0.00237418  0.0001186   0.000095054
 37    -56.0035856193  -0.000016745292 0.00370769  0.00050266  0.0003227   0.000191502
 38    -56.0035894123  -0.000003793013 0.03435152  0.00457604  0.0003660   0.000216163
 39    -56.0035555932   0.000033819155 0.00226339  0.00030297  0.0001192   0.000116061
               *** Restarting incremental Fock matrix formation ***
                             ****Resetting KDIIS****
 40    -56.0035575008  -0.000001907608 0.00005741  0.00000694  0.0001661   0.000133891
                          ***Energy convergence achieved***
 41    -56.0035575776  -0.000000076793 0.00007362  0.00000953  0.0001210   0.000107862
 42    -56.0035576652  -0.000000087582 0.00027205  0.00003583  0.0000984   0.000094364
 43    -56.0035579514  -0.000000286263 0.00285763  0.00039173  0.0000893   0.000072195
 44    -56.0035607686  -0.000002817180 0.01536640  0.00218237  0.0000854   0.000057713
 45    -56.0035754958  -0.000014727190 0.00036593  0.00005270  0.0001066   0.000062847
                          ***Energy convergence achieved***
 46    -56.0035751499   0.000000345922 0.00312547  0.00043547  0.0001060   0.000063719
 47    -56.0035721638   0.000002986101 0.00279547  0.00037811  0.0001017   0.000083618
 48    -56.0035695605   0.000002603228 0.00241661  0.00034945  0.0000984   0.000080270
 49    -56.0035718024  -0.000002241895 0.01631102  0.00217284  0.0001017   0.000057154
 50    -56.0035569852   0.000014817198 0.01359844  0.00181065  0.0000873   0.000061320
 51    -56.0035693038  -0.000012318540 0.00450558  0.00055244  0.0000989   0.000058403
 52    -56.0035710568  -0.000001753061 0.03491723  0.00455939  0.0001052   0.000057353
 53    -56.0035407028   0.000030354042 0.09623518  0.01292311  0.0001323   0.000094529
 54    -56.0036481629  -0.000107460132 0.03210090  0.00435360  0.0007584   0.000442592
 55    -56.0036024881   0.000045674792 0.11281303  0.01421942  0.0004704   0.000285673
 56    -56.0034816768   0.000120811338 0.05379022  0.00556600  0.0014468   0.000783615
 57    -56.0033843544   0.000097322375 0.13312822  0.01304651  0.0026516   0.001358874
 58    -56.0030736529   0.000310701510 0.21179680  0.02103768  0.0082168   0.004055335
 59    -56.0035147214  -0.000441068529 0.13621946  0.01880675  0.0009594   0.000599331
               *** Restarting incremental Fock matrix formation ***
                             ****Resetting KDIIS****
 60    -56.0036871771  -0.000172455705 0.00011590  0.00001685  0.0012906   0.000802844
                          ***Energy convergence achieved***
 61    -56.0036879709  -0.000000793754 0.00014101  0.00002233  0.0011800   0.000719134
 62    -56.0036890139  -0.000001042966 0.00044786  0.00006313  0.0009657   0.000590780
 63    -56.0036908567  -0.000001842807 0.00055167  0.00008103  0.0005899   0.000366657
 64    -56.0036924426  -0.000001585901 0.00224650  0.00028271  0.0002411   0.000116172
 65    -56.0036884344   0.000004008134 0.09081642  0.01227188  0.0002389   0.000115335
Warning: badly conditioned DIIS matrix, 1 vectors out of 5 destroyed
 66    -56.0035546169   0.000133817585 0.01216514  0.00161507  0.0010414   0.000783069
 67    -56.0035694059  -0.000014788999 0.03595403  0.00463110  0.0007217   0.000535437
 68    -56.0035271644   0.000042241427 0.00300238  0.00037196  0.0013144   0.001073847
 69    -56.0035240866   0.000003077825 0.06336717  0.00851237  0.0012978   0.001062984
 70    -56.0035980478  -0.000073961213 0.01945347  0.00264151  0.0009483   0.000720863
 71    -56.0036263763  -0.000028328482 0.01403319  0.00192692  0.0010007   0.000691552
 72    -56.0036055169   0.000020859437 0.03336894  0.00408593  0.0008268   0.000640054
 73    -56.0036500147  -0.000044497804 0.05904068  0.00699749  0.0011752   0.000857305
 74    -56.0035818269   0.000068187776 0.06840929  0.00903699  0.0008524   0.000596279
 75    -56.0035107161   0.000071110767 0.01138492  0.00144682  0.0012008   0.000685895
 76    -56.0034947397   0.000015976433 0.02587192  0.00282906  0.0016521   0.000913540
 77    -56.0034538864   0.000040853255 0.08306786  0.00987343  0.0022131   0.001221242
 78    -56.0035591560  -0.000105269529 0.05253595  0.00671590  0.0009770   0.000524926
 79    -56.0036136239  -0.000054467928 0.00070339  0.00006816  0.0010254   0.000539396
               *** Restarting incremental Fock matrix formation ***
                             ****Resetting KDIIS****
                          ***Energy convergence achieved***
 80    -56.0036130700   0.000000553868 0.00007173  0.00001040  0.0010655   0.000566049
 81    -56.0036134255  -0.000000355505 0.00010687  0.00001536  0.0009730   0.000510073
 82    -56.0036139369  -0.000000511391 0.00031692  0.00004360  0.0007952   0.000419241
 83    -56.0036148445  -0.000000907632 0.00023640  0.00003702  0.0004842   0.000261237
 84    -56.0036148233   0.000000021216 0.01370590  0.00178090  0.0001753   0.000083256
 85    -56.0035975394   0.000017283941 0.04464206  0.00605040  0.0001532   0.000078850
 86    -56.0035488559   0.000048683456 0.01697364  0.00225912  0.0003420   0.000256026
 87    -56.0035662850  -0.000017429044 0.04473450  0.00593310  0.0003166   0.000239107
 88    -56.0036176804  -0.000051395451 0.02637126  0.00342828  0.0005976   0.000400674
 89    -56.0035854687   0.000032211717 0.00205093  0.00026138  0.0006076   0.000403627
 90    -56.0035833817   0.000002086974 0.00156441  0.00018387  0.0006678   0.000439707
                          ***Energy convergence achieved***
 91    -56.0035840005  -0.000000618762 0.05689232  0.00765910  0.0006813   0.000445869
 92    -56.0035306257   0.000053374827 0.03000460  0.00348759  0.0006574   0.000369631
 93    -56.0034946280   0.000035997697 0.10112561  0.01319584  0.0010800   0.000586017
 94    -56.0036027132  -0.000108085265 0.08767581  0.01031149  0.0009704   0.000513279
 95    -56.0037254767  -0.000122763500 0.01477886  0.00167604  0.0022855   0.001291405
 96    -56.0037030009   0.000022475799 0.05607928  0.00629999  0.0020714   0.001167776
 97    -56.0037927218  -0.000089720883 0.01190123  0.00127050  0.0029190   0.001681023
 98    -56.0038068271  -0.000014105318 0.20482435  0.02434457  0.0032794   0.001911435
 99    -56.0035391570   0.000267670165 0.07456267  0.00852615  0.0010304   0.000610801
               *** Restarting incremental Fock matrix formation ***
                             ****Resetting KDIIS****
100    -56.0034370599   0.000102097037 0.00012921  0.00001859  0.0029403   0.001624035
101    -56.0034392732  -0.000002213283 0.00019293  0.00003058  0.0026776   0.001471932
102    -56.0034427124  -0.000003439162 0.00055815  0.00007390  0.0021748   0.001197535
103    -56.0034476238  -0.000004911379 0.00193065  0.00021872  0.0012986   0.000717948
104    -56.0034529941  -0.000005370345 0.00865280  0.00093831  0.0002424   0.000117753
105    -56.0034668568  -0.000013862728 0.04712769  0.00529148  0.0002309   0.000112641
106    -56.0035251030  -0.000058246210 0.01319046  0.00155921  0.0003276   0.000187058
107    -56.0035365483  -0.000011445272 0.00865348  0.00105082  0.0001297   0.000080854
108    -56.0035430610  -0.000006512702 0.00218058  0.00026665  0.0001201   0.000086006
109    -56.0035413504   0.000001710612 0.01817790  0.00217403  0.0001793   0.000115685
110    -56.0035254620   0.000015888386 0.01109083  0.00135859  0.0004529   0.000247379
111    -56.0035369908  -0.000011528777 0.03945115  0.00483484  0.0001899   0.000113564
112    -56.0035698032  -0.000032812440 0.00436878  0.00057191  0.0003599   0.000219076
113    -56.0035661447   0.000003658569 0.00615513  0.00085844  0.0003220   0.000195492
114    -56.0035673394  -0.000001194723 0.02385745  0.00314111  0.0004160   0.000235785
115    -56.0035460851   0.000021254337 0.04885885  0.00635227  0.0003585   0.000205598
116    -56.0035896184  -0.000043533383 0.04157702  0.00518298  0.0005403   0.000293636
117    -56.0035547218   0.000034896643 0.04526335  0.00562950  0.0004288   0.000268708
118    -56.0035074579   0.000047263903 0.04834832  0.00593775  0.0009761   0.000521772
119    -56.0035571897  -0.000049731832 0.01405312  0.00186752  0.0004901   0.000263517
               *** Restarting incremental Fock matrix formation ***
                             ****Resetting KDIIS****
120    -56.0035693573  -0.000012167588 0.00003319  0.00000411  0.0004840   0.000254073
                          ***Energy convergence achieved***
121    -56.0035694279  -0.000000070577 0.00007005  0.00000901  0.0004408   0.000231263
122    -56.0035695561  -0.000000128192 0.00020829  0.00002696  0.0003602   0.000190800
123    -56.0035698233  -0.000000267194 0.00006691  0.00001030  0.0002186   0.000121741
124    -56.0035698959  -0.000000072636 0.00757564  0.00100179  0.0001089   0.000052861
125    -56.0035633151   0.000006580843 0.05932411  0.00711130  0.0001063   0.000052342
126    -56.0035051422   0.000058172884 0.05624890  0.00671946  0.0005443   0.000297908
127    -56.0035606794  -0.000055537198 0.03938697  0.00549346  0.0001921   0.000126997
128    -56.0036003917  -0.000039712308 0.00742025  0.00099484  0.0007513   0.000404372
129    -56.0035921882   0.000008203543 0.02994633  0.00391639  0.0005816   0.000311411
130    -56.0036292314  -0.000037043264 0.06639317  0.00904831  0.0009407   0.000527927
131    -56.0035558724   0.000073359008 0.10382710  0.01166088  0.0006644   0.000374044
132    -56.0034188914   0.000136980977 0.04814007  0.00513582  0.0021550   0.001118686
133    -56.0034978608  -0.000078969402 0.01030342  0.00115519  0.0012517   0.000674564
134    -56.0035109171  -0.000013056243 0.04288285  0.00467091  0.0011548   0.000623805
135    -56.0034470601   0.000063856997 0.17035557  0.02226431  0.0018769   0.000990707
136    -56.0036704477  -0.000223387639 0.14448078  0.01961739  0.0014057   0.000841325
137    -56.0034874739   0.000182973779 0.00093983  0.00010427  0.0016161   0.000879818
138    -56.0034858308   0.000001643158 0.00924749  0.00100495  0.0017099   0.000923468
139    -56.0034716177   0.000014213077 0.08770866  0.00896386  0.0019224   0.001022215
               *** Restarting incremental Fock matrix formation ***
                             ****Resetting KDIIS****
140    -56.0032980078   0.000173609946 0.00013471  0.00002570  0.0044164   0.002211174
141    -56.0033021204  -0.000004112671 0.00025080  0.00003907  0.0040206   0.002001977
142    -56.0033083676  -0.000006247191 0.00077667  0.00009630  0.0032655   0.001629851
143    -56.0033172758  -0.000008908143 0.00287200  0.00031118  0.0019438   0.000976365
144    -56.0033272755  -0.000009999705 0.01348002  0.00141596  0.0002474   0.000152654
145    -56.0033548261  -0.000027550630 0.03864896  0.00401990  0.0002548   0.000150212
146    -56.0034215849  -0.000066758757 0.01926289  0.00201478  0.0003749   0.000272699
147    -56.0033908888   0.000030696033 0.03463055  0.00357940  0.0002586   0.000144776
148    -56.0034432246  -0.000052335772 0.00298622  0.00036492  0.0002414   0.000170773
149    -56.0034448334  -0.000001608815 0.02963568  0.00309764  0.0008964   0.000584553
150    -56.0034796286  -0.000034795210 0.00503634  0.00054239  0.0002124   0.000106887
151    -56.0034809504  -0.000001321748 0.03060382  0.00329632  0.0008791   0.000566817
152    -56.0035130943  -0.000032143900 0.02303469  0.00262838  0.0002177   0.000164877
153    -56.0035370143  -0.000023920065 0.07985203  0.00886070  0.0002570   0.000184574
154    -56.0036043012  -0.000067286828 0.02799012  0.00298507  0.0010044   0.000510413
155    -56.0036329983  -0.000028697155 0.02239929  0.00280076  0.0013127   0.000690511
156    -56.0036044503   0.000028547983 0.06777519  0.00908501  0.0009822   0.000524700
157    -56.0035392894   0.000065160938 0.01708775  0.00204763  0.0006651   0.000391255
158    -56.0035221283   0.000017161082 0.06001133  0.00794683  0.0007637   0.000444088
159    -56.0035777797  -0.000055651420 0.00937285  0.00092160  0.0007131   0.000390952
               *** Restarting incremental Fock matrix formation ***
                             ****Resetting KDIIS****
160    -56.0035744141   0.000003365632 0.00003229  0.00000491  0.0006863   0.000374796
                          ***Energy convergence achieved***
161    -56.0035745435  -0.000000129401 0.00007979  0.00001109  0.0006259   0.000341198
162    -56.0035747749  -0.000000231448 0.00022608  0.00003051  0.0005095   0.000279243
163    -56.0035751819  -0.000000406907 0.00040200  0.00005438  0.0003083   0.000172879
164    -56.0035756553  -0.000000473436 0.00432772  0.00060432  0.0001106   0.000056211
165    -56.0035715208   0.000004134527 0.01456571  0.00198882  0.0001065   0.000055309
166    -56.0035583227   0.000013198066 0.00623848  0.00083603  0.0000998   0.000060447
167    -56.0035638342  -0.000005511479 0.02290246  0.00320778  0.0001013   0.000060527
168    -56.0035860775  -0.000022243344 0.01124945  0.00154291  0.0001936   0.000137382
169    -56.0035748863   0.000011191217 0.03410890  0.00457012  0.0002154   0.000160821
170    -56.0036095988  -0.000034712489 0.03316447  0.00449401  0.0007657   0.000512643
171    -56.0035747257   0.000034873109 0.01801930  0.00215888  0.0004580   0.000292249
172    -56.0035829165  -0.000008190850 0.06749835  0.00884223  0.0007310   0.000567182
173    -56.0035231636   0.000059752969 0.03310525  0.00368694  0.0006917   0.000409802
174    -56.0034798485   0.000043315049 0.04030508  0.00455643  0.0011871   0.000681865
175    -56.0035303146  -0.000050466064 0.05465614  0.00703748  0.0007679   0.000433764
176    -56.0035794937  -0.000049179145 0.01288833  0.00179668  0.0008020   0.000404814
177    -56.0035674240   0.000012069773 0.05438662  0.00676137  0.0007551   0.000379235
178    -56.0035167304   0.000050693577 0.04173313  0.00508393  0.0010154   0.000522433
179    -56.0035566513  -0.000039920880 0.03964658  0.00555816  0.0006999   0.000359163
               *** Restarting incremental Fock matrix formation ***
                             ****Resetting KDIIS****
180    -56.0035953442  -0.000038692952 0.00004923  0.00000547  0.0007892   0.000421636
                          ***Energy convergence achieved***
181    -56.0035955125  -0.000000168276 0.00011686  0.00001367  0.0007190   0.000384447
182    -56.0035958312  -0.000000318671 0.00031412  0.00003569  0.0005854   0.000314714
183    -56.0035963983  -0.000000567110 0.00020227  0.00003111  0.0003553   0.000196889
184    -56.0035963050   0.000000093234 0.00843294  0.00110580  0.0001383   0.000070485
185    -56.0035866985   0.000009606534 0.02059527  0.00268627  0.0001239   0.000068037
186    -56.0035652015   0.000021496955 0.00083739  0.00010789  0.0001029   0.000101005
                          ***Energy convergence achieved***
187    -56.0035660003  -0.000000798711 0.01354008  0.00176445  0.0001262   0.000118181
188    -56.0035798615  -0.000013861216 0.01229784  0.00166334  0.0001305   0.000124494
189    -56.0035920082  -0.000012146774 0.01293814  0.00178660  0.0006048   0.000462323
190    -56.0035792488   0.000012759475 0.00266068  0.00033457  0.0001141   0.000064080
191    -56.0035818235  -0.000002574746 0.04807140  0.00643878  0.0001180   0.000067313
192    -56.0035375611   0.000044262451 0.07295223  0.01008099  0.0002273   0.000184470
193    -56.0036142423  -0.000076681199 0.19012459  0.02239157  0.0002734   0.000178254
194    -56.0033495256   0.000264716662 0.08106643  0.00850069  0.0031454   0.001553290
195    -56.0034963518  -0.000146826251 0.08017107  0.01028195  0.0008440   0.000462705
196    -56.0035770547  -0.000080702897 0.13846501  0.01649073  0.0003298   0.000172686
197    -56.0037672294  -0.000190174703 0.01861321  0.00188617  0.0025499   0.001451056
198    -56.0037477177   0.000019511709 0.13050390  0.01438005  0.0020222   0.001140354
199    -56.0038919483  -0.000144230515 0.31229541  0.03677730  0.0055169   0.003375866
               *** Restarting incremental Fock matrix formation ***
                             ****Resetting KDIIS****
200    -56.0035068886   0.000385059702 0.00006925  0.00000825  0.0008804   0.000443098
                          ***Energy convergence achieved***
201    -56.0035071249  -0.000000236325 0.00014412  0.00001554  0.0008002   0.000401724
202    -56.0035075210  -0.000000396116 0.00043821  0.00004730  0.0006517   0.000332002
203    -56.0035083657  -0.000000844738 0.00528156  0.00062226  0.0003902   0.000211898
204    -56.0035156933  -0.000007327521 0.02048782  0.00246107  0.0001594   0.000087866
205    -56.0035378285  -0.000022135239 0.01386502  0.00166972  0.0001263   0.000096309
206    -56.0035480732  -0.000010244716 0.00253689  0.00029600  0.0001134   0.000086958
207    -56.0035466304   0.000001442804 0.00269580  0.00032137  0.0001149   0.000064594
208    -56.0035483958  -0.000001765436 0.00221716  0.00028130  0.0001131   0.000071094
209    -56.0035502972  -0.000001901342 0.01256088  0.00165182  0.0001114   0.000098153
210    -56.0035612430  -0.000010945866 0.04065360  0.00516490  0.0001071   0.000063742
211    -56.0035988578  -0.000037614713 0.04456786  0.00587909  0.0003139   0.000189543
212    -56.0035565814   0.000042276320 0.05947987  0.00706403  0.0003136   0.000190494
213    -56.0034948309   0.000061750565 0.05906840  0.00698368  0.0010534   0.000556873
214    -56.0035558745  -0.000061043602 0.13941529  0.01685388  0.0004881   0.000254626
215    -56.0037275182  -0.000171643757 0.01818821  0.00196557  0.0023067   0.001277669
216    -56.0037038459   0.000023672330 0.05607245  0.00666176  0.0016433   0.000888580
217    -56.0036213312   0.000082514687 0.08806095  0.01200580  0.0009309   0.000495848
218    -56.0035257538   0.000095577422 0.07669724  0.00837872  0.0014274   0.000836712
219    -56.0034086687   0.000117085089 0.04135707  0.00444236  0.0030627   0.001639798
               *** Restarting incremental Fock matrix formation ***
                             ****Resetting KDIIS****
220    -56.0034777603  -0.000069091632 0.00016770  0.00002458  0.0023851   0.001358406
221    -56.0034797412  -0.000001980814 0.00021302  0.00002736  0.0021748   0.001217928
222    -56.0034822343  -0.000002493141 0.00060517  0.00006683  0.0017701   0.000993544
223    -56.0034858745  -0.000003640177 0.00211886  0.00021811  0.0010577   0.000595834
224    -56.0034901740  -0.000004299549 0.00637640  0.00069766  0.0001990   0.000098907
225    -56.0034987867  -0.000008612717 0.03742900  0.00425777  0.0001873   0.000094984
226    -56.0035384098  -0.000039623033 0.02228633  0.00270169  0.0002079   0.000124899
227    -56.0035554786  -0.000017068859 0.00252322  0.00031591  0.0001909   0.000126040
228    -56.0035536195   0.000001859157 0.00127327  0.00016495  0.0002191   0.000134720
                          ***Energy convergence achieved***
229    -56.0035544752  -0.000000855737 0.00228905  0.00027579  0.0003223   0.000197212
230    -56.0035562220  -0.000001746796 0.00091226  0.00011324  0.0001524   0.000103435
                          ***Energy convergence achieved***
231    -56.0035555781   0.000000643877 0.01516811  0.00182347  0.0001098   0.000076179
232    -56.0035444754   0.000011102705 0.00319437  0.00037834  0.0001160   0.000063065
233    -56.0035420055   0.000002469890 0.00046873  0.00005991  0.0001190   0.000061812
                          ***Energy convergence achieved***
234    -56.0035422207  -0.000000215127 0.00121477  0.00019209  0.0001182   0.000063277
235    -56.0035413543   0.000000866375 0.00521515  0.00066902  0.0001174   0.000064573
236    -56.0035431016  -0.000001747262 0.01615435  0.00191291  0.0001230   0.000095873
237    -56.0035551698  -0.000012068211 0.00251573  0.00034944  0.0001166   0.000065909
238    -56.0035566208  -0.000001451075 0.00037281  0.00004905  0.0001188   0.000058836
                          ***Energy convergence achieved***
239    -56.0035564264   0.000000194405 0.00290443  0.00035002  0.0001191   0.000058440
               *** Restarting incremental Fock matrix formation ***
                             ****Resetting KDIIS****
240    -56.0035546720   0.000001754405 0.00003133  0.00000347  0.0001207   0.000060410
                          ***Energy convergence achieved***
241    -56.0035546960  -0.000000023977 0.00008750  0.00000927  0.0001207   0.000059618
242    -56.0035547598  -0.000000063803 0.00042256  0.00004506  0.0001206   0.000058764
243    -56.0035550678  -0.000000307954 0.01673554  0.00176338  0.0001204   0.000057849
244    -56.0035663594  -0.000011291618 0.00481757  0.00050297  0.0001132   0.000058529
245    -56.0035693824  -0.000003022993 0.00262899  0.00027806  0.0001124   0.000056532
246    -56.0035677056   0.000001676751 0.00091644  0.00016944  0.0001128   0.000054337
                          ***Energy convergence achieved***
247    -56.0035672961   0.000000409474 0.00033473  0.00004375  0.0001482   0.000121540
248    -56.0035670109   0.000000285232 0.00746924  0.00081302  0.0001471   0.000120652
249    -56.0035621490   0.000004861928 0.00415418  0.00051777  0.0001130   0.000053404
250    -56.0035587679   0.000003381084 0.03140715  0.00381787  0.0001142   0.000053467
251    -56.0035844949  -0.000025726963 0.02860177  0.00361461  0.0001413   0.000097470
252    -56.0035599361   0.000024558753 0.02182774  0.00283280  0.0001983   0.000121874
253    -56.0035402677   0.000019668443 0.02377572  0.00309358  0.0003529   0.000202457
254    -56.0035615065  -0.000021238840 0.02987410  0.00382305  0.0003657   0.000204277
255    -56.0035875245  -0.000026017988 0.01065771  0.00137287  0.0006653   0.000362500
256    -56.0035775254   0.000009999136 0.00337486  0.00046516  0.0005920   0.000323450
257    -56.0035748823   0.000002643052 0.04368618  0.00559739  0.0005668   0.000308992
258    -56.0035364443   0.000038437995 0.02627247  0.00307857  0.0006672   0.000363624
259    -56.0035079147   0.000028529564 0.00670178  0.00073031  0.0008739   0.000473808
               *** Restarting incremental Fock matrix formation ***
                             ****Resetting KDIIS****
260    -56.0034991794   0.000008735361 0.00006107  0.00000770  0.0011043   0.000582213
                          ***Energy convergence achieved***
261    -56.0034995009  -0.000000321507 0.00014993  0.00001732  0.0010059   0.000529494
262    -56.0035000797  -0.000000578834 0.00045714  0.00004956  0.0008166   0.000432824
263    -56.0035011454  -0.000001065635 0.00289519  0.00031505  0.0004860   0.000265267
264    -56.0035050716  -0.000003926215 0.01900124  0.00212969  0.0001741   0.000089065
265    -56.0035265202  -0.000021448590 0.02852861  0.00333834  0.0001411   0.000087811
266    -56.0035505806  -0.000024060424 0.01833832  0.00216368  0.0001982   0.000142593
267    -56.0035360191   0.000014561521 0.01039199  0.00118353  0.0002093   0.000132848
268    -56.0035259640   0.000010055060 0.02858738  0.00333457  0.0004029   0.000264750
269    -56.0035503697  -0.000024405652 0.00355779  0.00042720  0.0003065   0.000215317
270    -56.0035529808  -0.000002611139 0.00124489  0.00016249  0.0002170   0.000143336
271    -56.0035518738   0.000001107009 0.02686437  0.00343347  0.0002331   0.000154649
272    -56.0035740835  -0.000022209658 0.05478816  0.00671665  0.0001808   0.000118027
273    -56.0035271665   0.000046916999 0.01312428  0.00160380  0.0005230   0.000304429
274    -56.0035401139  -0.000012947428 0.03636164  0.00476028  0.0003738   0.000220954
275    -56.0035704721  -0.000030358228 0.00828341  0.00111574  0.0004382   0.000241547
276    -56.0035632489   0.000007223216 0.05309747  0.00695402  0.0004134   0.000219279
277    -56.0036167256  -0.000053476697 0.07138754  0.00979513  0.0008104   0.000487610
278    -56.0035429498   0.000073775759 0.09927077  0.01101508  0.0006102   0.000338843
279    -56.0033959734   0.000146976407 0.00809987  0.00084888  0.0024787   0.001259379
               *** Restarting incremental Fock matrix formation ***
                             ****Resetting KDIIS****
280    -56.0034129497  -0.000016976312 0.00009245  0.00001219  0.0023007   0.001167739
281    -56.0034141006  -0.000001150840 0.00031070  0.00003657  0.0020928   0.001062801
282    -56.0034163935  -0.000002292950 0.00065182  0.00007474  0.0016757   0.000853471
283    -56.0034196328  -0.000003239258 0.00459408  0.00048720  0.0009940   0.000516072
284    -56.0034294837  -0.000009850954 0.02545917  0.00269654  0.0002503   0.000137119
285    -56.0034724041  -0.000042920335 0.03612953  0.00389971  0.0002174   0.000151503
286    -56.0035142272  -0.000041823155 0.03060389  0.00330531  0.0003948   0.000277215
287    -56.0034801158   0.000034111411 0.02902663  0.00309458  0.0002617   0.000216001
288    -56.0035128901  -0.000032774331 0.01756999  0.00197455  0.0005307   0.000372728
289    -56.0035276140  -0.000014723902 0.00084317  0.00010364  0.0002077   0.000157742
                          ***Energy convergence achieved***
290    -56.0035272950   0.000000319002 0.00039186  0.00006103  0.0001447   0.000092665
291    -56.0035270138   0.000000281226 0.00367954  0.00041716  0.0002338   0.000166976
292    -56.0035303947  -0.000003380835 0.00727580  0.00082555  0.0001406   0.000074422
293    -56.0035356164  -0.000005221707 0.00389967  0.00044250  0.0001339   0.000074851
294    -56.0035331913   0.000002425085 0.01266707  0.00135578  0.0001369   0.000073739
295    -56.0035440094  -0.000010818078 0.07675954  0.00896730  0.0001232   0.000095240
296    -56.0036085725  -0.000064563145 0.00934828  0.00095450  0.0008239   0.000564195
297    -56.0036021087   0.000006463765 0.09002117  0.01184523  0.0005656   0.000361349
298    -56.0035125407   0.000089567997 0.12046385  0.01584715  0.0004756   0.000249682
299    -56.0036448532  -0.000132312416 0.18668590  0.02340791  0.0011236   0.000606237
               *** Restarting incremental Fock matrix formation ***
                             ****Resetting KDIIS****
300    -56.0033979004   0.000246952772 0.00013633  0.00002094  0.0020858   0.001061112
301    -56.0033992285  -0.000001328084 0.00017874  0.00002607  0.0018940   0.000949775
302    -56.0034009366  -0.000001708112 0.00060876  0.00007391  0.0015412   0.000777089
303    -56.0034038641  -0.000002927530 0.00338121  0.00034873  0.0009157   0.000471752
304    -56.0034107158  -0.000006851702 0.01787596  0.00178877  0.0002571   0.000130096
305    -56.0034396816  -0.000028965825 0.05402995  0.00568340  0.0002455   0.000124518
306    -56.0035099312  -0.000070249544 0.03736921  0.00435051  0.0004078   0.000213328
307    -56.0035442883  -0.000034357111 0.02797743  0.00359252  0.0001397   0.000090195
308    -56.0035674304  -0.000023142158 0.02518321  0.00342372  0.0003171   0.000175816
309    -56.0035928106  -0.000025380176 0.05365875  0.00719299  0.0004954   0.000275272
310    -56.0035429136   0.000049897026 0.08561285  0.00942155  0.0003113   0.000205971
311    -56.0034425889   0.000100324730 0.14244303  0.01364388  0.0016977   0.000861031
312    -56.0031529979   0.000289590997 0.08544181  0.00834476  0.0063552   0.003091754
313    -56.0029082024   0.000244795429 0.45653944  0.05333198  0.0107638   0.005415045
314    -56.0037640523  -0.000855849861 0.24704989  0.02980438  0.0050565   0.004145233
315    -56.0035032265   0.000260825833 0.09495810  0.01027300  0.0029052   0.002063229
316    -56.0033897402   0.000113486288 0.03758998  0.00389744  0.0026200   0.002121996
317    -56.0034361906  -0.000046450449 0.03207876  0.00339210  0.0031387   0.002301818
318    -56.0033884443   0.000047746374 0.05019697  0.00518182  0.0039113   0.002759207
319    -56.0034318246  -0.000043380345 0.00456414  0.00081327  0.0063124   0.003718728
               *** Restarting incremental Fock matrix formation ***
                             ****Resetting KDIIS****
320    -56.0034949655  -0.000063140941 0.00023669  0.00002991  0.0028946   0.001498905
321    -56.0034974820  -0.000002516492 0.00024492  0.00003369  0.0026285   0.001342245
322    -56.0035005579  -0.000003075844 0.00055806  0.00007374  0.0021393   0.001097659
323    -56.0035049013  -0.000004343413 0.00124759  0.00014846  0.0012791   0.000662934
324    -56.0035083224  -0.000003421155 0.00118114  0.00014527  0.0001816   0.000083247
325    -56.0035098057  -0.000001483285 0.01606025  0.00192287  0.0001795   0.000082459
326    -56.0035276887  -0.000017883004 0.05142983  0.00578378  0.0001507   0.000082647
327    -56.0035653865  -0.000037697785 0.00881208  0.00095673  0.0003570   0.000191055
328    -56.0035705305  -0.000005144024 0.01815900  0.00197302  0.0002634   0.000148863
329    -56.0035601190   0.000010411567 0.01122220  0.00123474  0.0000983   0.000087989
330    -56.0035658967  -0.000005777704 0.01717322  0.00186885  0.0006836   0.000381753
331    -56.0035563477   0.000009549023 0.01818252  0.00206100  0.0003875   0.000223829
332    -56.0035435652   0.000012782482 0.02012933  0.00230521  0.0001578   0.000103705
333    -56.0035580451  -0.000014479917 0.00974545  0.00106216  0.0002872   0.000173534
334    -56.0035640863  -0.000006041237 0.00168603  0.00017588  0.0000971   0.000067907
                          ***Energy convergence achieved***
335    -56.0035636174   0.000000468883 0.01120921  0.00151811  0.0000986   0.000054232
336    -56.0035735125  -0.000009895089 0.05838833  0.00734268  0.0001499   0.000101620
337    -56.0035199951   0.000053517461 0.08088443  0.01060264  0.0004353   0.000251882
338    -56.0035974090  -0.000077413970 0.06207769  0.00733579  0.0006587   0.000363674
339    -56.0036737121  -0.000076303024 0.02255410  0.00218478  0.0013575   0.000786202
               *** Restarting incremental Fock matrix formation ***
                             ****Resetting KDIIS****
340    -56.0036547080   0.000019004073 0.00006986  0.00000898  0.0014386   0.000824258
                          ***Energy convergence achieved***
341    -56.0036552914  -0.000000583393 0.00020197  0.00002587  0.0013111   0.000751178
342    -56.0036564346  -0.000001143235 0.00044878  0.00005407  0.0010599   0.000608131
343    -56.0036581022  -0.000001667584 0.00059802  0.00007191  0.0006457   0.000375866
344    -56.0036595410  -0.000001438807 0.00732248  0.00093514  0.0002272   0.000109185
345    -56.0036470861   0.000012454883 0.05193711  0.00690130  0.0002172   0.000107082
346    -56.0035704559   0.000076630220 0.00440646  0.00059238  0.0002901   0.000242979
347    -56.0035650373   0.000005418629 0.00534137  0.00071958  0.0002509   0.000215651
348    -56.0035715280  -0.000006490745 0.00045261  0.00005775  0.0003106   0.000258227
                          ***Energy convergence achieved***
349    -56.0035709180   0.000000610077 0.00775117  0.00090304  0.0003178   0.000258897
350    -56.0035714193  -0.000000501371 0.02171993  0.00273595  0.0001387   0.000088969
351    -56.0035971008  -0.000025681473 0.00179607  0.00021651  0.0001577   0.000092572
352    -56.0035951280   0.000001972819 0.00877579  0.00112363  0.0001557   0.000121206
353    -56.0035862879   0.000008840122 0.03501843  0.00477103  0.0001438   0.000081922
354    -56.0035519631   0.000034324783 0.08456785  0.00996227  0.0002615   0.000222635
355    -56.0034530649   0.000098898205 0.06492277  0.00770119  0.0016505   0.000879734
356    -56.0035313193  -0.000078254456 0.12103498  0.01574608  0.0003829   0.000241539
357    -56.0036811326  -0.000149813276 0.14710170  0.01961217  0.0010590   0.000693199
358    -56.0034977758   0.000183356775 0.14172714  0.01430135  0.0010391   0.000607931
359    -56.0032423205   0.000255455341 0.29136558  0.03647686  0.0054471   0.002649797
               *** Restarting incremental Fock matrix formation ***
                             ****Resetting KDIIS****
360    -56.0037091444  -0.000466823901 0.00015582  0.00001942  0.0011184   0.000812450
                          ***Energy convergence achieved***
361    -56.0037100964  -0.000000951979 0.00024562  0.00002733  0.0010132   0.000723769
362    -56.0037113564  -0.000001260074 0.00072001  0.00008197  0.0008182   0.000596309
363    -56.0037139038  -0.000002547383 0.00193180  0.00023845  0.0004737   0.000372948
364    -56.0037189222  -0.000005018351 0.00577692  0.00082223  0.0002627   0.000147987
365    -56.0037342654  -0.000015343232 0.01373456  0.00197370  0.0002714   0.000146481
366    -56.0037704990  -0.000036233555 0.00327149  0.00046639  0.0002966   0.000150119
367    -56.0037619364   0.000008562556 0.00212547  0.00030429  0.0002903   0.000152965
368    -56.0037563397   0.000005596733 0.00165101  0.00018828  0.0002862   0.000155566
369    -56.0037530931   0.000003246613 0.05328115  0.00584461  0.0002842   0.000156433
370    -56.0036624963   0.000090596751 0.09368453  0.01038863  0.0002523   0.000203083
371    -56.0035413268   0.000121169547 0.00369794  0.00049121  0.0008738   0.000619727
372    -56.0035362380   0.000005088722 0.05557318  0.00634997  0.0008412   0.000598493
373    -56.0036013441  -0.000065106019 0.01575424  0.00165063  0.0008278   0.000607294
374    -56.0035948989   0.000006445199 0.00830389  0.00144686  0.0004958   0.000353130
375    -56.0036033839  -0.000008485009 0.00289216  0.00032470  0.0002168   0.000142011
376    -56.0035997743   0.000003609592 0.03762148  0.00418380  0.0002135   0.000134020
377    -56.0035593925   0.000040381753 0.00195727  0.00024427  0.0001800   0.000114374
378    -56.0035604091  -0.000001016572 0.00347889  0.00041992  0.0001813   0.000126525
379    -56.0035588512   0.000001557882 0.00153384  0.00017465  0.0001788   0.000113961
               *** Restarting incremental Fock matrix formation ***
                             ****Resetting KDIIS****
380    -56.0035604032  -0.000001552034 0.00005181  0.00000570  0.0001778   0.000121447
                          ***Energy convergence achieved***
381    -56.0035604667  -0.000000063436 0.00014925  0.00001546  0.0001777   0.000116181
382    -56.0035606339  -0.000000167184 0.00069074  0.00007146  0.0001775   0.000107561
383    -56.0035613798  -0.000000745988 0.01744367  0.00177594  0.0001770   0.000094704
384    -56.0035786658  -0.000017285969 0.02731705  0.00274732  0.0001723   0.000086647
385    -56.0036016282  -0.000022962388 0.00042257  0.00004230  0.0001698   0.000115481
                          ***Energy convergence achieved***
386    -56.0036013294   0.000000298787 0.00568682  0.00056448  0.0001698   0.000110400
387    -56.0036056110  -0.000004281564 0.00351979  0.00035030  0.0001711   0.000145156
388    -56.0036031476   0.000002463335 0.00640723  0.00063670  0.0001703   0.000106959
389    -56.0035978394   0.000005308252 0.01343748  0.00154109  0.0001684   0.000079579
390    -56.0035840786   0.000013760843 0.03794762  0.00493581  0.0001557   0.000074382
391    -56.0035480018   0.000036076794 0.01978503  0.00247966  0.0002190   0.000179428
392    -56.0035652460  -0.000017244269 0.01616616  0.00212500  0.0002137   0.000164647
393    -56.0035798284  -0.000014582356 0.02702826  0.00348786  0.0003245   0.000248204
394    -56.0035561309   0.000023697494 0.00625713  0.00072244  0.0002398   0.000202029
395    -56.0035603921  -0.000004261176 0.01532570  0.00179570  0.0005871   0.000466389
396    -56.0035739904  -0.000013598319 0.01754467  0.00229769  0.0005445   0.000430392
397    -56.0035613228   0.000012667551 0.01418273  0.00178623  0.0003264   0.000211548
398    -56.0035736752  -0.000012352318 0.00200549  0.00032148  0.0001208   0.000094430
399    -56.0035725979   0.000001077287 0.00572120  0.00077758  0.0001161   0.000058023
               *** Restarting incremental Fock matrix formation ***
                             ****Resetting KDIIS****
400    -56.0035671517   0.000005446176 0.00002487  0.00000332  0.0001141   0.000059359
                          ***Energy convergence achieved***
401    -56.0035671761  -0.000000024400 0.00006529  0.00000823  0.0001141   0.000058289
402    -56.0035672368  -0.000000060703 0.00029589  0.00003688  0.0001141   0.000057817
403    -56.0035675080  -0.000000271165 0.00728490  0.00090063  0.0001141   0.000057138
404    -56.0035740322  -0.000006524252 0.00007741  0.00000957  0.0001170   0.000057183
Warning: badly conditioned DIIS matrix, 1 vectors out of 5 destroyed
Warning: badly conditioned DIIS matrix, 1 vectors out of 4 destroyed
                          ***Energy convergence achieved***
405    -56.0035741010  -0.000000068803 0.00166851  0.00020603  0.0001170   0.000057173
406    -56.0035726220   0.000001479053 0.00133432  0.00016577  0.0001161   0.000056689
Warning: badly conditioned DIIS matrix, 1 vectors out of 5 destroyed
407    -56.0035714224   0.000001199540 0.00053924  0.00006605  0.0001157   0.000062661
                          ***Energy convergence achieved***
408    -56.0035709525   0.000000469946 0.00080898  0.00009859  0.0001152   0.000056347
409    -56.0035703498   0.000000602714 0.00057651  0.00007580  0.0001150   0.000058251
410    -56.0035702846   0.000000065200 0.00507833  0.00060569  0.0001149   0.000056295
411    -56.0035742650  -0.000003980473 0.00140234  0.00017418  0.0001172   0.000056299
                          ***Energy convergence achieved***
412    -56.0035735955   0.000000669560 0.00659363  0.00085283  0.0001168   0.000055161
413    -56.0035679626   0.000005632870 0.08432455  0.01013242  0.0001139   0.000064207
414    -56.0034765456   0.000091416997 0.05288138  0.00613735  0.0010836   0.000553389
415    -56.0035397703  -0.000063224669 0.06325344  0.00834968  0.0005304   0.000277382
416    -56.0035984368  -0.000058666477 0.06608572  0.00781269  0.0010243   0.000529425
417    -56.0036842710  -0.000085834275 0.01775925  0.00200827  0.0019613   0.001043911
418    -56.0037103210  -0.000026049929 0.00646019  0.00071140  0.0022200   0.001191889
419    -56.0037171409  -0.000006819991 0.22215982  0.02984458  0.0026744   0.001453854
               *** Restarting incremental Fock matrix formation ***
                             ****Resetting KDIIS****
420    -56.0033766278   0.000340513174 0.00010804  0.00001778  0.0030286   0.001478249
421    -56.0033785241  -0.000001896370 0.00021331  0.00002998  0.0027530   0.001340210
422    -56.0033814915  -0.000002967320 0.00063147  0.00007778  0.0022375   0.001091991
423    -56.0033859994  -0.000004507962 0.00267558  0.00028320  0.0013319   0.000657473
424    -56.0033927132  -0.000006713759 0.01181114  0.00119707  0.0002576   0.000134424
425    -56.0034134375  -0.000020724309 0.04081986  0.00418459  0.0002562   0.000132098
426    -56.0034742583  -0.000060820758 0.03219416  0.00332244  0.0002428   0.000208741
427    -56.0034274839   0.000046774325 0.04929084  0.00510468  0.0002821   0.000223746
428    -56.0034943553  -0.000066871326 0.00556751  0.00061368  0.0001971   0.000095762
429    -56.0034997714  -0.000005416101 0.02123920  0.00232280  0.0004834   0.000384980
430    -56.0035196802  -0.000019908888 0.00717456  0.00088838  0.0001604   0.000086503
431    -56.0035271362  -0.000007455987 0.02730248  0.00347085  0.0002323   0.000193080
432    -56.0035530078  -0.000025871527 0.05069193  0.00604784  0.0003144   0.000231554
433    -56.0036002476  -0.000047239875 0.01901762  0.00216053  0.0005217   0.000280639
434    -56.0035814095   0.000018838081 0.00637502  0.00069465  0.0004211   0.000227242
435    -56.0035870223  -0.000005612749 0.03017523  0.00352720  0.0006042   0.000329977
436    -56.0036203216  -0.000033299300 0.05853442  0.00814795  0.0008958   0.000493663
437    -56.0035561978   0.000064123765 0.06558416  0.00753909  0.0008064   0.000455946
438    -56.0034863229   0.000069874923 0.02587562  0.00308630  0.0014527   0.000861838
439    -56.0034508327   0.000035490178 0.22697302  0.02801752  0.0019313   0.001003431
               *** Restarting incremental Fock matrix formation ***
                             ****Resetting KDIIS****
440    -56.0037506809  -0.000299848179 0.00010062  0.00001441  0.0027428   0.001535449
441    -56.0037525586  -0.000001877725 0.00020302  0.00003308  0.0024981   0.001397386
442    -56.0037558131  -0.000003254434 0.00054663  0.00007650  0.0020298   0.001136000
443    -56.0037604564  -0.000004643290 0.00049279  0.00006087  0.0012343   0.000694660
444    -56.0037619423  -0.000001485984 0.01733268  0.00233558  0.0002810   0.000144080
445    -56.0037229222   0.000039020176 0.06248508  0.00876889  0.0002412   0.000137447
446    -56.0035960611   0.000126861028 0.00021323  0.00002409  0.0010228   0.000756478
447    -56.0035949138   0.000001147375 0.00905956  0.00118595  0.0011626   0.000853967
448    -56.0035856744   0.000009239393 0.00190559  0.00027441  0.0007427   0.000546185
449    -56.0035816087   0.000004065656 0.00493338  0.00060762  0.0009470   0.000705107
450    -56.0035790115   0.000002597262 0.00298894  0.00041267  0.0002143   0.000182424
451    -56.0035832404  -0.000004228964 0.00935019  0.00123642  0.0001760   0.000102630
452    -56.0035962266  -0.000012986224 0.02517571  0.00332385  0.0001717   0.000103819
453    -56.0035640958   0.000032130819 0.00095658  0.00012793  0.0001857   0.000103999
                          ***Energy convergence achieved***
454    -56.0035631774   0.000000918388 0.00876753  0.00102193  0.0001824   0.000099656
455    -56.0035580916   0.000005085801 0.12511541  0.01567632  0.0001781   0.000101019
456    -56.0033867624   0.000171329283 0.05749947  0.00694153  0.0022775   0.001401526
457    -56.0034883097  -0.000101547323 0.06679156  0.00853155  0.0007934   0.000436225
458    -56.0035604189  -0.000072109259 0.03001640  0.00382777  0.0001920   0.000135304
459    -56.0035956246  -0.000035205714 0.08138208  0.00979886  0.0006360   0.000435619
               *** Restarting incremental Fock matrix formation ***
                             ****Resetting KDIIS****
460    -56.0037056573  -0.000110032672 0.00029732  0.00004341  0.0015781   0.001168918
461    -56.0037088179  -0.000003160567 0.00020429  0.00003379  0.0014472   0.000980957
462    -56.0037110839  -0.000002265966 0.00052370  0.00008286  0.0011836   0.000807593
463    -56.0037147032  -0.000003619299 0.00111779  0.00016710  0.0007205   0.000495564
464    -56.0037184856  -0.000003782474 0.01122740  0.00163847  0.0002366   0.000127131
465    -56.0036929430   0.000025542642 0.01865668  0.00265732  0.0002166   0.000139793
466    -56.0036525933   0.000040349664 0.00707707  0.00098986  0.0002426   0.000205249
467    -56.0036673283  -0.000014734953 0.00311057  0.00046797  0.0002493   0.000207089
468    -56.0036746897  -0.000007361383 0.01945109  0.00278265  0.0002031   0.000134119
469    -56.0036296891   0.000045000602 0.01041285  0.00150948  0.0010038   0.000648098
470    -56.0036552900  -0.000025600990 0.00162753  0.00024448  0.0001885   0.000126456
471    -56.0036590369  -0.000003746865 0.01560120  0.00147793  0.0001919   0.000120222
472    -56.0036486352   0.000010401753 0.12477079  0.01617703  0.0001899   0.000115739
473    -56.0035078549   0.000140780232 0.09017784  0.01163534  0.0019541   0.001137432
474    -56.0036031879  -0.000095333004 0.02339112  0.00252439  0.0002091   0.000189989
475    -56.0035833530   0.000019834959 0.03598547  0.00440091  0.0004195   0.000257907
476    -56.0036202187  -0.000036865754 0.02346356  0.00234175  0.0009270   0.000613995
477    -56.0036012804   0.000018938318 0.01469412  0.00169163  0.0003223   0.000212653
478    -56.0036041957  -0.000002915280 0.02660766  0.00322524  0.0004456   0.000325205
479    -56.0035792118   0.000024983877 0.03801359  0.00492795  0.0001130   0.000093759
               *** Restarting incremental Fock matrix formation ***
                             ****Resetting KDIIS****
480    -56.0035456948   0.000033517025 0.00005438  0.00000844  0.0002492   0.000200871
                          ***Energy convergence achieved***
481    -56.0035458136  -0.000000118866 0.00009034  0.00000965  0.0002288   0.000167222
482    -56.0035459296  -0.000000115908 0.00030146  0.00003243  0.0001872   0.000140511
483    -56.0035462313  -0.000000301699 0.00147081  0.00016700  0.0001124   0.000093657
484    -56.0035474791  -0.000001247870 0.00797532  0.00095507  0.0001070   0.000056141
485    -56.0035541317  -0.000006652552 0.02154366  0.00267992  0.0001035   0.000054445
486    -56.0035714961  -0.000017364390 0.01654940  0.00206918  0.0001116   0.000079661
487    -56.0035581292   0.000013366826 0.00218019  0.00026832  0.0001218   0.000100346
488    -56.0035563614   0.000001767811 0.00557395  0.00074146  0.0001143   0.000100369
489    -56.0035610699  -0.000004708429 0.00274808  0.00034194  0.0001581   0.000130268
490    -56.0035588790   0.000002190841 0.00115990  0.00014201  0.0001020   0.000090048
                          ***Energy convergence achieved***
491    -56.0035579347   0.000000944277 0.02642042  0.00340783  0.0001019   0.000090917
492    -56.0035809415  -0.000023006797 0.04003781  0.00507089  0.0001205   0.000086590
493    -56.0035464192   0.000034522346 0.00154467  0.00020089  0.0002219   0.000148110
494    -56.0035451184   0.000001300745 0.05655793  0.00779883  0.0002211   0.000146932
495    -56.0035999211  -0.000054802626 0.01812373  0.00237918  0.0004580   0.000260711
496    -56.0036224583  -0.000022537238 0.00280822  0.00039036  0.0006890   0.000396851
497    -56.0036207188   0.000001739466 0.03538943  0.00405401  0.0009565   0.000546962
498    -56.0036619907  -0.000041271843 0.02361870  0.00272696  0.0016569   0.000962155
499    -56.0036945193  -0.000032528584 0.13494242  0.01726364  0.0019794   0.001150974
               *** Restarting incremental Fock matrix formation ***
                             ****Resetting KDIIS****
500    -56.0035398392   0.000154680064 0.00005756  0.00000948  0.0005390   0.000333614
                          ***Energy convergence achieved***
501    -56.0035400300  -0.000000190832 0.00008884  0.00001107  0.0004926   0.000291178
502    -56.0035402427  -0.000000212686 0.00029428  0.00003458  0.0004019   0.000239904
503    -56.0035406885  -0.000000445745 0.00230912  0.00027151  0.0002403   0.000150097
504    -56.0035429720  -0.000002283483 0.01242428  0.00149083  0.0001084   0.000061363
505    -56.0035537333  -0.000010761330 0.00886494  0.00107829  0.0001034   0.000061318
506    -56.0035605013  -0.000006768020 0.00248627  0.00030418  0.0001046   0.000057175
507    -56.0035623195  -0.000001818203 0.00246097  0.00029896  0.0001056   0.000056917
508    -56.0035604782   0.000001841272 0.00099759  0.00013118  0.0001047   0.000066828
                          ***Energy convergence achieved***
509    -56.0035612018  -0.000000723567 0.00405976  0.00051177  0.0001781   0.000131186
510    -56.0035580439   0.000003157878 0.00302080  0.00036814  0.0001045   0.000058047
511    -56.0035557586   0.000002285332 0.00081419  0.00011358  0.0001042   0.000052025
                          ***Energy convergence achieved***
512    -56.0035561870  -0.000000428403 0.00080955  0.00009775  0.0001047   0.000051888
513    -56.0035568102  -0.000000623246 0.01093011  0.00139702  0.0001047   0.000051790
514    -56.0035658660  -0.000009055785 0.01925424  0.00246301  0.0001062   0.000053060
515    -56.0035497394   0.000016126658 0.09147650  0.01185039  0.0001088   0.000056698
516    -56.0036464711  -0.000096731746 0.03007437  0.00389197  0.0008389   0.000501522
517    -56.0036956940  -0.000049222925 0.03871680  0.00470176  0.0015123   0.000880487
518    -56.0037625631  -0.000066869020 0.08187406  0.00940348  0.0021779   0.001286755
519    -56.0036403078   0.000122255279 0.16448955  0.02042261  0.0008720   0.000526678
               *** Restarting incremental Fock matrix formation ***
                             ****Resetting KDIIS****
520    -56.0034415676   0.000198740137 0.00007808  0.00000863  0.0010006   0.000494232
                          ***Energy convergence achieved***
521    -56.0034418682  -0.000000300586 0.00024887  0.00002487  0.0009102   0.000452612
522    -56.0034425497  -0.000000681489 0.00068302  0.00006864  0.0007357   0.000373441
523    -56.0034440386  -0.000001488858 0.00721051  0.00073882  0.0004336   0.000242504
524    -56.0034563037  -0.000012265165 0.03634103  0.00383907  0.0002275   0.000123533
525    -56.0035063461  -0.000050042403 0.03195897  0.00354576  0.0001948   0.000160865
526    -56.0035358367  -0.000029490605 0.02029642  0.00227204  0.0002785   0.000214394
527    -56.0035182902   0.000017546542 0.03433544  0.00389719  0.0003957   0.000244202
528    -56.0035467479  -0.000028457650 0.00911230  0.00108789  0.0001249   0.000087967
529    -56.0035527011  -0.000005953251 0.03936292  0.00453759  0.0002432   0.000182490
530    -56.0035214348   0.000031266315 0.00539450  0.00059863  0.0003824   0.000273021
531    -56.0035267410  -0.000005306217 0.03287954  0.00382607  0.0002093   0.000159312
532    -56.0035528181  -0.000026077047 0.07275731  0.01026712  0.0001228   0.000065205
533    -56.0036358591  -0.000083041084 0.14710678  0.01842884  0.0008828   0.000570366
534    -56.0034770009   0.000158858248 0.00209164  0.00024204  0.0012472   0.000683239
535    -56.0034752181   0.000001782759 0.11200638  0.01100507  0.0012985   0.000731686
536    -56.0032578894   0.000217328745 0.01662026  0.00158804  0.0042097   0.002044987
537    -56.0032146865   0.000043202939 0.03491349  0.00423108  0.0052817   0.002552821
538    -56.0030889070   0.000125779448 0.24463810  0.02525479  0.0083985   0.004076263
539    -56.0035539287  -0.000465021661 0.00801227  0.00136423  0.0015914   0.001175739
               *** Restarting incremental Fock matrix formation ***
                             ****Resetting KDIIS****
540    -56.0035647923  -0.000010863636 0.00015973  0.00002272  0.0012747   0.000714588
                          ***Energy convergence achieved***
541    -56.0035657555  -0.000000963220 0.00012413  0.00001743  0.0011562   0.000613930
542    -56.0035665123  -0.000000756782 0.00026265  0.00003920  0.0009434   0.000503869
543    -56.0035676204  -0.000001108055 0.00062707  0.00008318  0.0005702   0.000306814
544    -56.0035686214  -0.000001001081 0.00026213  0.00003113  0.0001138   0.000053813
                          ***Energy convergence achieved***
545    -56.0035684166   0.000000204853 0.00453633  0.00054209  0.0001137   0.000053843
546    -56.0035648627   0.000003553926 0.00361992  0.00043873  0.0001132   0.000054330
547    -56.0035619925   0.000002870164 0.00107925  0.00013151  0.0001135   0.000053461
                          ***Energy convergence achieved***
548    -56.0035611303   0.000000862167 0.01453078  0.00178594  0.0001137   0.000053536
549    -56.0035729049  -0.000011774537 0.00558808  0.00075726  0.0001162   0.000084097
550    -56.0035678538   0.000005051073 0.02099702  0.00260298  0.0001128   0.000077723
551    -56.0035508625   0.000016991285 0.01349155  0.00167152  0.0001311   0.000087070
552    -56.0035618956  -0.000011033071 0.01333670  0.00154890  0.0001379   0.000091178
553    -56.0035519733   0.000009922265 0.00942160  0.00110904  0.0001589   0.000100704
554    -56.0035446597   0.000007313580 0.00293285  0.00031353  0.0002070   0.000126087
555    -56.0035465318  -0.000001872075 0.01305295  0.00168770  0.0002498   0.000143273
556    -56.0035340878   0.000012443987 0.14399601  0.01798907  0.0002253   0.000133635
557    -56.0037008787  -0.000166790870 0.12870773  0.01583001  0.0017886   0.001016327
558    -56.0035501435   0.000150735180 0.04522486  0.00527003  0.0004643   0.000269332
559    -56.0035027859   0.000047357576 0.14790933  0.01984235  0.0013198   0.000720705
               *** Restarting incremental Fock matrix formation ***
                             ****Resetting KDIIS****
560    -56.0036884261  -0.000185640185 0.00009123  0.00001324  0.0014937   0.000841396
                          ***Energy convergence achieved***
561    -56.0036891337  -0.000000707533 0.00015135  0.00002186  0.0013638   0.000761676
562    -56.0036902263  -0.000001092671 0.00045920  0.00006167  0.0011148   0.000624998
563    -56.0036921093  -0.000001883003 0.00033457  0.00005384  0.0006803   0.000387807
564    -56.0036932981  -0.000001188785 0.00914644  0.00115858  0.0002392   0.000116231
565    -56.0036771005   0.000016197635 0.09250102  0.01276268  0.0002299   0.000113413
566    -56.0035448778   0.000132222689 0.01096612  0.00141631  0.0011603   0.000899070
567    -56.0035567350  -0.000011857207 0.05084039  0.00706345  0.0010189   0.000782219
568    -56.0036188702  -0.000062135178 0.01787908  0.00239152  0.0008919   0.000729433
569    -56.0035962885   0.000022581651 0.02210939  0.00306439  0.0006978   0.000582612
570    -56.0035713149   0.000024973630 0.00170352  0.00018121  0.0007982   0.000623824
                          ***Energy convergence achieved***
571    -56.0035721570  -0.000000842079 0.00520909  0.00055232  0.0005128   0.000384500
572    -56.0035742346  -0.000002077672 0.04040693  0.00538312  0.0006479   0.000478853
573    -56.0035366512   0.000037583466 0.10623942  0.01413253  0.0005187   0.000348407
574    -56.0036644086  -0.000127757428 0.04327763  0.00540364  0.0011179   0.000711492
575    -56.0036035881   0.000060820534 0.04367322  0.00567380  0.0007804   0.000507744
576    -56.0035577418   0.000045846249 0.01634545  0.00210736  0.0013061   0.000870433
577    -56.0035714456  -0.000013703748 0.01179040  0.00144400  0.0013139   0.000884112
578    -56.0035625020   0.000008943596 0.08876639  0.01082285  0.0012772   0.000861436
579    -56.0034624255   0.000100076503 0.02779651  0.00301259  0.0019519   0.001047316
               *** Restarting incremental Fock matrix formation ***
                             ****Resetting KDIIS****
580    -56.0035024533  -0.000040027793 0.00017278  0.00002489  0.0009294   0.000622661
581    -56.0035034663  -0.000001012991 0.00015832  0.00001971  0.0008414   0.000512997
                          ***Energy convergence achieved***
582    -56.0035041606  -0.000000694325 0.00043159  0.00005176  0.0006865   0.000422890
583    -56.0035053702  -0.000001209648 0.00157877  0.00020607  0.0004117   0.000260479
584    -56.0035079222  -0.000002551992 0.00978767  0.00121300  0.0001817   0.000083922
585    -56.0035200108  -0.000012088611 0.04475090  0.00574130  0.0001618   0.000079708
586    -56.0035615678  -0.000041556984 0.01290259  0.00156548  0.0003922   0.000198868
587    -56.0035710694  -0.000009501607 0.00113161  0.00013584  0.0003315   0.000173956
                          ***Energy convergence achieved***
588    -56.0035719141  -0.000000844711 0.02814244  0.00330273  0.0003234   0.000171206
589    -56.0035940324  -0.000022118284 0.01931313  0.00225445  0.0008963   0.000461361
590    -56.0035785396   0.000015492823 0.02963207  0.00357856  0.0003394   0.000192685
591    -56.0035567295   0.000021810141 0.02109926  0.00267088  0.0001264   0.000084464
592    -56.0035388544   0.000017875052 0.01857716  0.00237374  0.0001917   0.000115827
593    -56.0035549469  -0.000016092484 0.00420019  0.00050643  0.0002997   0.000159467
594    -56.0035520239   0.000002923000 0.00079091  0.00011281  0.0003871   0.000209140
                          ***Energy convergence achieved***
595    -56.0035524016  -0.000000377670 0.06973412  0.00843040  0.0004172   0.000223990
596    -56.0036146490  -0.000062247468 0.10448611  0.01343324  0.0006338   0.000354417
597    -56.0035103658   0.000104283260 0.10768802  0.01454244  0.0008449   0.000450987
598    -56.0036257879  -0.000115422116 0.01480037  0.00187556  0.0010469   0.000569811
599    -56.0036453795  -0.000019591600 0.00976466  0.00111523  0.0012612   0.000691796
               *** Restarting incremental Fock matrix formation ***
                             ****Resetting KDIIS****
600    -56.0036328692   0.000012510311 0.00009083  0.00001190  0.0011297   0.000620752
                          ***Energy convergence achieved***
601    -56.0036333217  -0.000000452554 0.00015223  0.00001729  0.0010279   0.000557897
602    -56.0036339539  -0.000000632133 0.00043304  0.00004917  0.0008408   0.000458777
603    -56.0036350965  -0.000001142603 0.00096769  0.00013751  0.0005130   0.000286977
604    -56.0036338264   0.000001270047 0.02956147  0.00397686  0.0001957   0.000095667
605    -56.0035921643   0.000041662083 0.03344340  0.00445727  0.0001429   0.000102335
606    -56.0035547081   0.000037456219 0.00579330  0.00076597  0.0002802   0.000242188
607    -56.0035602726  -0.000005564533 0.02563801  0.00341749  0.0004141   0.000367171
608    -56.0035881502  -0.000027877591 0.00323046  0.00041246  0.0005333   0.000455364
609    -56.0035910617  -0.000002911480 0.00666895  0.00082843  0.0006243   0.000533631
                          ***Energy convergence achieved***
610    -56.0035902170   0.000000844680 0.03396710  0.00443998  0.0002526   0.000190275
611    -56.0035589895   0.000031227495 0.04474164  0.00550205  0.0001950   0.000130977
612    -56.0035146025   0.000044387055 0.08575986  0.01144751  0.0004958   0.000279222
613    -56.0036031410  -0.000088538497 0.01963577  0.00236795  0.0007256   0.000405212
614    -56.0036258080  -0.000022666990 0.03858368  0.00458333  0.0009474   0.000528271
615    -56.0035864421   0.000039365865 0.01761868  0.00224766  0.0008557   0.000474522
616    -56.0035707818   0.000015660306 0.01897296  0.00255149  0.0007307   0.000407050
617    -56.0035539819   0.000016799907 0.01808507  0.00238131  0.0007295   0.000408460
618    -56.0035696920  -0.000015710115 0.04513437  0.00579836  0.0007053   0.000411466
619    -56.0036174431  -0.000047751102 0.02007868  0.00257286  0.0009407   0.000526703
               *** Restarting incremental Fock matrix formation ***
                             ****Resetting KDIIS****
620    -56.0035930143   0.000024428791 0.00003750  0.00000549  0.0008429   0.000471396
                          ***Energy convergence achieved***
621    -56.0035932114  -0.000000197053 0.00013611  0.00001629  0.0007684   0.000429675
622    -56.0035936124  -0.000000401048 0.00028556  0.00003512  0.0006198   0.000348299
623    -56.0035942264  -0.000000613952 0.00018320  0.00002557  0.0003761   0.000215892
624    -56.0035945661  -0.000000339749 0.00749524  0.00096295  0.0001450   0.000070579
625    -56.0035861830   0.000008383088 0.01873631  0.00242193  0.0001351   0.000068930
626    -56.0035663390   0.000019844064 0.00404385  0.00051932  0.0001221   0.000078677
627    -56.0035705388  -0.000004199792 0.01603894  0.00207701  0.0001232   0.000075506
628    -56.0035872374  -0.000016698664 0.00285784  0.00037000  0.0004328   0.000289188
629    -56.0035842114   0.000003025975 0.00099902  0.00013122  0.0003571   0.000245783
                          ***Energy convergence achieved***
630    -56.0035834041   0.000000807314 0.00594866  0.00077152  0.0001327   0.000077925
631    -56.0035770476   0.000006356498 0.00706093  0.00090972  0.0001268   0.000066676
632    -56.0035695150   0.000007532615 0.00370915  0.00047474  0.0001239   0.000115971
633    -56.0035735190  -0.000004003956 0.00440353  0.00060263  0.0001240   0.000075846
634    -56.0035691309   0.000004388033 0.00447995  0.00062405  0.0001209   0.000065833
635    -56.0035653174   0.000003813581 0.12593727  0.01434312  0.0001181   0.000064009
636    -56.0033975020   0.000167815354 0.09730046  0.01076788  0.0020868   0.001095226
637    -56.0035392238  -0.000141721770 0.03338305  0.00401403  0.0005121   0.000284565
638    -56.0035043861   0.000034837651 0.02553638  0.00296751  0.0013125   0.000678924
639    -56.0035333137  -0.000028927556 0.07439503  0.01006269  0.0010454   0.000532516
               *** Restarting incremental Fock matrix formation ***
                             ****Resetting KDIIS****
640    -56.0036094548  -0.000076141098 0.00007276  0.00001094  0.0006995   0.000419573
                          ***Energy convergence achieved***
641    -56.0036097276  -0.000000272856 0.00010411  0.00001466  0.0006400   0.000372210
642    -56.0036100735  -0.000000345876 0.00032114  0.00004375  0.0005242   0.000307820
643    -56.0036107833  -0.000000709788 0.00033313  0.00004830  0.0003198   0.000195676
644    -56.0036104820   0.000000301345 0.01380130  0.00179522  0.0001689   0.000082572
645    -56.0035927674   0.000017714536 0.02363468  0.00307573  0.0001471   0.000079962
646    -56.0035654700   0.000027297413 0.01083677  0.00141618  0.0001269   0.000112708
647    -56.0035775927  -0.000012122737 0.00780105  0.00102647  0.0001568   0.000146398
648    -56.0035866819  -0.000009089145 0.00878475  0.00111003  0.0001415   0.000128052
649    -56.0035960122  -0.000009330314 0.03943871  0.00501889  0.0002341   0.000192436
650    -56.0035604641   0.000035548144 0.03863940  0.00504680  0.0002559   0.000179855
651    -56.0035251561   0.000035307960 0.02496413  0.00305136  0.0005477   0.000309245
652    -56.0035492814  -0.000024125294 0.07029276  0.00901356  0.0003939   0.000259505
653    -56.0036171618  -0.000067880427 0.05208474  0.00604414  0.0010258   0.000553112
654    -56.0036845451  -0.000067383274 0.03771400  0.00428366  0.0017533   0.000972094
655    -56.0037415788  -0.000057033696 0.12648403  0.01464195  0.0024930   0.001429216
656    -56.0035824771   0.000159101667 0.06950370  0.00886622  0.0007301   0.000437539
657    -56.0035158972   0.000066579876 0.14972767  0.01924664  0.0008452   0.000534137
658    -56.0036958104  -0.000179913148 0.10087075  0.01132769  0.0020364   0.001175811
659    -56.0038496393  -0.000153828925 0.04475578  0.00507160  0.0040988   0.002582095
               *** Restarting incremental Fock matrix formation ***
                             ****Resetting KDIIS****
660    -56.0037864310   0.000063208345 0.00020797  0.00003186  0.0027334   0.001649876
661    -56.0037894904  -0.000003059419 0.00019349  0.00003444  0.0024966   0.001475415
662    -56.0037932223  -0.000003731946 0.00051583  0.00008751  0.0020398   0.001207322
663    -56.0037988254  -0.000005603103 0.00145983  0.00021009  0.0012415   0.000737262
664    -56.0038048410  -0.000006015547 0.00036302  0.00004693  0.0003044   0.000149424
                          ***Energy convergence achieved***
665    -56.0038039854   0.000000855589 0.02279435  0.00293752  0.0003043   0.000149456
666    -56.0038560276  -0.000052042153 0.14245276  0.01669492  0.0002908   0.000148089
Warning: badly conditioned DIIS matrix, 1 vectors out of 5 destroyed
Warning: badly conditioned DIIS matrix, 1 vectors out of 4 destroyed
667    -56.0039628057  -0.000106778097 0.05723521  0.00643564  0.0022473   0.001747975
668    -56.0039807940  -0.000017988335 0.06865041  0.00767150  0.0011054   0.000924808
669    -56.0039424463   0.000038347654 0.01897687  0.00207825  0.0032002   0.002245116
670    -56.0039759081  -0.000033461767 0.06057232  0.00681513  0.0018409   0.001335604
671    -56.0039789219  -0.000003013772 0.02037372  0.00234296  0.0005423   0.000349442
672    -56.0039917343  -0.000012812453 0.00859206  0.00098162  0.0000830   0.000062175
673    -56.0039933543  -0.000001619942 0.00596996  0.00069883  0.0003703   0.000245239
674    -56.0039946545  -0.000001300232 0.01014011  0.00116528  0.0001689   0.000116807
675    -56.0039929399   0.000001714586 0.00033190  0.00004497  0.0001072   0.000090543
                          ***Energy convergence achieved***
676    -56.0039931007  -0.000000160823 0.00082401  0.00013268  0.0000773   0.000052990
677    -56.0039933362  -0.000000235440 0.00526642  0.00061581  0.0000714   0.000046424
678    -56.0039959351  -0.000002598909 0.01513162  0.00151869  0.0000639   0.000041201
679    -56.0040004098  -0.000004474664 0.00528508  0.00055372  0.0000504   0.000035465
               *** Restarting incremental Fock matrix formation ***
                             ****Resetting KDIIS****
680    -56.0040014518  -0.000001042044 0.00001200  0.00000179  0.0000528   0.000030443
                          ***Energy convergence achieved***
681    -56.0040014583  -0.000000006541 0.00003561  0.00000531  0.0000528   0.000030188
682    -56.0040014775  -0.000000019187 0.00051525  0.00007691  0.0000526   0.000029857
683    -56.0040017510  -0.000000273438 0.00908986  0.00136188  0.0000509   0.000028740
684    -56.0040052742  -0.000003523264 0.00436930  0.00065766  0.0000633   0.000042360
                          ***Energy convergence achieved***
685    -56.0040061118  -0.000000837527 0.00011440  0.00001582  0.0000699   0.000044206
686    -56.0040061442  -0.000000032427 0.00103551  0.00015711  0.0000262   0.000017214
687    -56.0040062693  -0.000000125117 0.00035809  0.00005478  0.0000263   0.000012767
688    -56.0040063318  -0.000000062460 0.00113998  0.00012876  0.0000260   0.000014232
689    -56.0040065112  -0.000000179454 0.00721576  0.00078811  0.0000245   0.000013575
690    -56.0040073622  -0.000000850961 0.00678944  0.00080784  0.0000155   0.000012153
691    -56.0040078931  -0.000000530879 0.00267160  0.00033760  0.0000142   0.000010255
692    -56.0040080440  -0.000000150901 0.00070136  0.00007256  0.0000089   0.000007402
693    -56.0040080694  -0.000000025401 0.00107464  0.00012578  0.0000084   0.000005841
694    -56.0040081156  -0.000000046283 0.00013130  0.00001810  0.0000079   0.000005323
695    -56.0040081229  -0.000000007233 0.00118178  0.00011995  0.0000079   0.000005260
696    -56.0040081060   0.000000016901 0.00319159  0.00037457  0.0000086   0.000004919
697    -56.0040079521   0.000000153819 0.00073334  0.00008721  0.0000101   0.000005300
698    -56.0040079949  -0.000000042786 0.00025823  0.00003347  0.0000096   0.000004726
699    -56.0040079949  -0.000000000009 0.00406899  0.00047920  0.0000094   0.000004877
               *** Restarting incremental Fock matrix formation ***
                             ****Resetting KDIIS****
                           ***RMSP convergence achieved***
                           ***MAXP convergence achieved***
                    *** KDIIS BlockDiag ( 0.000 sec) ***

               *****************************************************
               *                     SUCCESS                       *
               *           SCF CONVERGED AFTER 700 CYCLES          *
               *****************************************************

Setting up the final grid:

General Integration Accuracy     IntAcc      ...  4.670
Radial Grid Type                 RadialGrid  ... Gauss-Chebyshev
Angular Grid (max. acc.)         AngularGrid ... Lebedev-302
Angular grid pruning method      GridPruning ... 3 (G Style)
Weight generation scheme         WeightScheme... Becke
Basis function cutoff            BFCut       ...    1.0000e-10
Integration weight cutoff        WCut        ...    1.0000e-14
Grids for H and He will be reduced by one unit

# of grid points (after initial pruning)     ...  16394 (   0.0 sec)
# of grid points (after weights+screening)   ...  16275 (   0.0 sec)
nearest neighbour list constructed           ...    0.0 sec
Grid point re-assignment to atoms done       ...    0.0 sec
Grid point division into batches done        ...    0.0 sec
Reduced shell lists constructed in    0.1 sec

Total number of grid points                  ...    16275
Total number of batches                      ...      256
Average number of points per batch           ...       63
Average number of grid points per atom       ...     4069
Average number of shells per batch           ...     8.40 (70.01%)
Average number of basis functions per batch  ...    13.25 (66.25%)
Average number of large shells per batch     ...     7.26 (86.43%)
Average number of large basis fcns per batch ...    11.20 (84.52%)
Maximum spatial batch extension              ...  21.92, 14.84, 16.92 au
Average spatial batch extension              ...   3.38,  3.38,  3.40 au

Final grid set up in    0.1 sec
Final integration                            ... done (   0.1 sec)
Change in XC energy                          ...    -0.000141590
Integrated number of electrons               ...    10.000005686
Previous integrated no of electrons          ...     9.996537260

----------------
TOTAL SCF ENERGY
----------------

Total Energy       :          -56.00414979 Eh           -1523.95039 eV

Components:
Nuclear Repulsion  :            4.41070730 Eh             120.02145 eV
Electronic Energy  :          -60.41485710 Eh           -1643.97184 eV
One Electron Energy:          -84.29765443 Eh           -2293.85579 eV
Two Electron Energy:           23.88279734 Eh             649.88396 eV

Virial components:
Potential Energy   :         -111.52612964 Eh           -3034.78027 eV
Kinetic Energy     :           55.52197984 Eh            1510.82988 eV
Virial Ratio       :            2.00868431


DFT components:
N(Alpha)           :        5.000002842941 electrons
N(Beta)            :        5.000002842941 electrons
N(Total)           :       10.000005685883 electrons
E(XC)              :       -5.118138268288 Eh       

---------------
SCF CONVERGENCE
---------------

  Last Energy change         ...   -2.0945e-07  Tolerance :   1.0000e-06
  Last MAX-Density change    ...    1.4975e-06  Tolerance :   1.0000e-05
  Last RMS-Density change    ...    1.9269e-07  Tolerance :   1.0000e-06
  Last DIIS Error            ...    6.6001e-06  Tolerance :   1.0000e-06

             **** THE GBW FILE WAS UPDATED (Scan_31.gbw) ****
             **** DENSITY FILE WAS UPDATED (Scan_31.scfp.tmp) ****
             **** ENERGY FILE WAS UPDATED (Scan_31.en.tmp) ****
----------------
ORBITAL ENERGIES
----------------

  NO   OCC          E(Eh)            E(eV) 
   0   2.0000     -14.536948      -395.5705 
   1   2.0000      -0.802788       -21.8450 
   2   2.0000      -0.586438       -15.9578 
   3   2.0000      -0.338793        -9.2190 
   4   2.0000      -0.289386        -7.8746 
   5   0.0000      -0.140596        -3.8258 
   6   0.0000      -0.065359        -1.7785 
   7   0.0000       0.198408         5.3990 
   8   0.0000       0.736030        20.0284 
   9   0.0000       0.790504        21.5107 
  10   0.0000       0.802839        21.8464 
  11   0.0000       0.841836        22.9075 
  12   0.0000       0.884343        24.0642 
  13   0.0000       0.898809        24.4578 
  14   0.0000       1.036507        28.2048 
  15   0.0000       1.810266        49.2598 
  16   0.0000       1.812129        49.3105 
  17   0.0000       1.826578        49.7037 
  18   0.0000       1.847179        50.2643 
  19   0.0000       1.852043        50.3966 

                    ********************************
                    * MULLIKEN POPULATION ANALYSIS *
                    ********************************

-----------------------
MULLIKEN ATOMIC CHARGES
-----------------------
   0 N :   -0.115779
   1 H :    0.099866
   2 H :   -0.083052
   3 H :    0.098964
Sum of atomic charges:   -0.0000000

--------------------------------
MULLIKEN REDUCED ORBITAL CHARGES
--------------------------------
  0 N s       :     3.999783  s :     3.999783
      pz      :     1.022058  p :     3.115805
      px      :     0.654410
      py      :     1.439336
      dz2     :     0.000002  d :     0.000191
      dxz     :     0.000020
      dyz     :     0.000110
      dx2y2   :     0.000042
      dxy     :     0.000018
  1 H s       :     0.900134  s :     0.900134
  2 H s       :     1.083052  s :     1.083052
  3 H s       :     0.901036  s :     0.901036


                     *******************************
                     * LOEWDIN POPULATION ANALYSIS *
                     *******************************

----------------------
LOEWDIN ATOMIC CHARGES
----------------------
   0 N :   -0.117170
   1 H :    0.055325
   2 H :    0.007097
   3 H :    0.054747

-------------------------------
LOEWDIN REDUCED ORBITAL CHARGES
-------------------------------
  0 N s       :     3.999724  s :     3.999724
      pz      :     1.022464  p :     3.117253
      px      :     0.655205
      py      :     1.439584
      dz2     :     0.000002  d :     0.000193
      dxz     :     0.000020
      dyz     :     0.000110
      dx2y2   :     0.000043
      dxy     :     0.000018
  1 H s       :     0.944675  s :     0.944675
  2 H s       :     0.992903  s :     0.992903
  3 H s       :     0.945253  s :     0.945253


                      *****************************
                      * MAYER POPULATION ANALYSIS *
                      *****************************

  NA   - Mulliken gross atomic population
  ZA   - Total nuclear charge
  QA   - Mulliken gross atomic charge
  VA   - Mayer's total valence
  BVA  - Mayer's bonded valence
  FA   - Mayer's free valence

  ATOM       NA         ZA         QA         VA         BVA        FA
  0 N      7.1158     7.0000    -0.1158     0.9890     0.9890    -0.0000
  1 H      0.9001     1.0000     0.0999     0.9522     0.9522    -0.0000
  2 H      1.0831     1.0000    -0.0831     0.9927     0.9927    -0.0000
  3 H      0.9010     1.0000     0.0990     0.9523     0.9523    -0.0000

  Mayer bond orders larger than 0.1
B(  0-N ,  1-H ) :   0.4939 B(  0-N ,  3-H ) :   0.4948 B(  1-H ,  2-H ) :   0.4967 
B(  2-H ,  3-H ) :   0.4959 

-------
TIMINGS
-------

Total SCF time: 0 days 0 hours 2 min 52 sec 

Total time                  ....     172.810 sec
Sum of individual times     ....     168.029 sec  ( 97.2%)

Fock matrix formation       ....     167.614 sec  ( 97.0%)
  XC integration            ....      29.288 sec  ( 17.5% of F)
    Basis function eval.    ....       6.434 sec  ( 22.0% of XC)
    Density eval.           ....       1.246 sec  (  4.3% of XC)
    XC-Functional eval.     ....       8.952 sec  ( 30.6% of XC)
    XC-Potential eval.      ....       0.487 sec  (  1.7% of XC)
Diagonalization             ....       0.163 sec  (  0.1%)
Density matrix formation    ....       0.004 sec  (  0.0%)
Population analysis         ....       0.008 sec  (  0.0%)
Initial guess               ....       0.109 sec  (  0.1%)
Orbital Transformation      ....       0.000 sec  (  0.0%)
Orbital Orthonormalization  ....       0.000 sec  (  0.0%)
DIIS solution               ....       0.000 sec  (  0.0%)
Grid generation             ....       0.130 sec  (  0.1%)


-------------------------------------------------------------------------------
                          DFT DISPERSION CORRECTION                            
                                                                               
                              DFTD3 V3.1  Rev 1                                
                              USING zero damping                               
-------------------------------------------------------------------------------
The omegaB97X-D3 functional is recognized. Fit by Chai et al.
Active option DFTDOPT                   ...         3   

molecular C6(AA) [au] = 169.323417 


            DFT-D V3
 parameters
 s6 scaling factor         :     1.0000 
 rs6 scaling factor        :     1.2810 
 s8 scaling factor         :     1.0000 
 rs8 scaling factor        :     1.0940 
 Damping factor alpha6     :    14.0000 
 Damping factor alpha8     :    16.0000 
 ad hoc parameters k1-k3   :    16.0000     1.3333    -4.0000 

 Edisp/kcal,au: -0.272534302948  -0.000434311011 
 E6   /kcal   :  -0.166406790 
 E8   /kcal   :  -0.106127513 
 % E8         :  38.940974278 

-------------------------   ----------------
Dispersion correction           -0.000434311
-------------------------   ----------------


-------------------------   --------------------
FINAL SINGLE POINT ENERGY       -56.004584105460
-------------------------   --------------------


                            ***************************************
                            *     ORCA property calculations      *
                            ***************************************

                                    ---------------------
                                    Active property flags
                                    ---------------------
   (+) Dipole Moment


------------------------------------------------------------------------------
                       ORCA ELECTRIC PROPERTIES CALCULATION
------------------------------------------------------------------------------

Dipole Moment Calculation                       ... on
Quadrupole Moment Calculation                   ... off
Polarizability Calculation                      ... off
GBWName                                         ... Scan_31.gbw
Electron density file                           ... Scan_31.scfp.tmp

-------------
DIPOLE MOMENT
-------------
                                X             Y             Z
Electronic contribution:     -2.05889      -6.76947       1.77321
Nuclear contribution   :      2.26738       7.45031      -1.95274
                        -----------------------------------------
Total Dipole Moment    :      0.20848       0.68084      -0.17953
                        -----------------------------------------
Magnitude (a.u.)       :      0.73433
Magnitude (Debye)      :      1.86652


Timings for individual modules:

Sum of individual times         ...      173.132 sec (=   2.886 min)
GTO integral calculation        ...        0.299 sec (=   0.005 min)   0.2 %
SCF iterations                  ...      172.833 sec (=   2.881 min)  99.8 %
                             ****ORCA TERMINATED NORMALLY****
TOTAL RUN TIME: 0 days 0 hours 2 minutes 53 seconds 447 msec
