
                                 *****************
                                 * O   R   C   A *
                                 *****************

           --- An Ab Initio, DFT and Semiempirical electronic structure package ---

                  #######################################################
                  #                        -***-                        #
                  #  Department of molecular theory and spectroscopy    #
                  #              Directorship: Frank Neese              #
                  # Max Planck Institute for Chemical Energy Conversion #
                  #                  D-45470 Muelheim/Ruhr              #
                  #                       Germany                       #
                  #                                                     #
                  #                  All rights reserved                #
                  #                        -***-                        #
                  #######################################################


                         Program Version 4.0.0.2 - RELEASE -


 With contributions from (in alphabetic order):
   Daniel Aravena         : Magnetic Properties
   Michael Atanasov       : Ab Initio Ligand Field Theory
   Ute Becker             : Parallelization
   Martin Brehm           : Molecular dynamics
   Dmytro Bykov           : SCF Hessian
   Vijay G. Chilkuri      : MRCI spin determinant printing
   Dipayan Datta          : RHF DLPNO-CCSD density
   Achintya Kumar Dutta   : EOM-CC, STEOM-CC
   Dmitry Ganyushin       : Spin-Orbit,Spin-Spin,Magnetic field MRCI
   Yang Guo               : DLPNO-NEVPT2, CIM, IAO-localization
   Andreas Hansen         : Spin unrestricted coupled pair/coupled cluster methods
   Lee Huntington         : MR-EOM, pCC
   Robert Izsak           : Overlap fitted RIJCOSX, COSX-SCS-MP3, EOM
   Christian Kollmar      : KDIIS, OOCD, Brueckner-CCSD(T), CCSD density
   Simone Kossmann        : Meta GGA functionals, TD-DFT gradient, OOMP2, MP2 Hessian
   Martin Krupicka        : AUTO-CI
   Dagmar Lenk            : GEPOL surface
   Dimitrios Liakos       : Extrapolation schemes; parallel MDCI
   Dimitrios Manganas     : ROCIS; embedding schemes
   Dimitrios Pantazis     : SARC Basis sets
   Taras Petrenko         : DFT Hessian,TD-DFT gradient, ASA, ECA, R-Raman, ABS, FL, XAS/XES, NRVS
   Peter Pinski           : DLPNO-MP2
   Christoph Reimann      : Effective Core Potentials
   Marius Retegan         : Local ZFS, SOC
   Christoph Riplinger    : Optimizer, TS searches, QM/MM, DLPNO-CCSD(T), (RO)-DLPNO pert. Triples
   Tobias Risthaus        : Range-separated hybrids, TD-DFT gradient, RPA, STAB
   Michael Roemelt        : Restricted open shell CIS
   Masaaki Saitow         : Open-shell DLPNO
   Barbara Sandhoefer     : DKH picture change effects
   Kantharuban Sivalingam : CASSCF convergence, NEVPT2, FIC-MRCI
   Georgi Stoychev        : AutoAux
   Boris Wezisla          : Elementary symmetry handling
   Frank Wennmohs         : Technical directorship


 We gratefully acknowledge several colleagues who have allowed us to
 interface, adapt or use parts of their codes:
   Stefan Grimme, W. Hujo, H. Kruse,             : VdW corrections, initial TS optimization,
                  C. Bannwarth                     DFT functionals, gCP, sTDA/sTD-DF
   Ed Valeev                                     : LibInt (2-el integral package), F12 methods
   Garnet Chan, S. Sharma, J. Yang, R. Olivares  : DMRG
   Ulf Ekstrom                                   : XCFun DFT Library
   Mihaly Kallay                                 : mrcc  (arbitrary order and MRCC methods)
   Jiri Pittner, Ondrej Demel                    : Mk-CCSD
   Frank Weinhold                                : gennbo (NPA and NBO analysis)
   Christopher J. Cramer and Donald G. Truhlar   : smd solvation model


 Your calculation uses the libint2 library for the computation of 2-el integrals
 For citations please refer to: http://libint.valeyev.net

 This ORCA versions uses:
   CBLAS   interface :  Fast vector & matrix operations
   LAPACKE interface :  Fast linear algebra routines
   SCALAPACK package :  Parallel linear algebra routines


Your calculation utilizes the atom-pairwise dispersion correction
with the zero-damping scheme (D30)
Cite in your paper:
S.Grimme, J.Antony, S.Ehrlich and H.Krieg, J.Chem.Phys., 132, (2010), 154104 
   

XCFun DFT library Copyright 2009-2010 Ulf Ekstrom and contributors.
See http://admol.org/xcfun for more information. This is free soft-
ware; see the source code for copying conditions. There is ABSOLUTELY
NO WARRANTY; not even for MERCHANTABILITY or FITNESS FOR A PARTICULAR
PURPOSE. For details see the documentation. Scientific users of this 
library should cite U. Ekstrom, L. Visscher, R. Bast, A. J. Thorvald-
sen and K. Ruud; J.Chem.Theor.Comp. 2010, DOI: 10.1021/ct100117s
XCFun Version 0.99 
Your calculation utilizes the basis: 6-31G(d)
   H-He, Li-Ne : W. J. Hehre, R. Ditchfield and J.A. Pople, J. Chem. Phys. 56, 2257 (1972).
                 Note: He and Ne are unpublished basis sets taken from the Gaussian program.
                 Note: Li and B from J. D. Dill and J. A. Pople, J. Chem. Phys. 62, 2921 (1975).
   Na - Ar     : M. M. Francl, W. J. Pietro, W. J. Hehre, J. S. Binkley, M. S. Gordon, 
                 D. J. DeFrees and J. A. Pople, J. Chem. Phys. 77, 3654 (1982).
   K - Zn      : V. A. Rassolov, J. A. Pople, M. A. Ratner, and T. L. Windus, J. Chem. Phys. 109, 1223 (1998).

================================================================================
                                        WARNINGS
                       Please study these warnings very carefully!
================================================================================

Warning: TCutStore was < 0. Adjusted to Thresh (uncritical)

INFO   : the flag for use of LIBINT has been found!

================================================================================
                                       INPUT FILE
================================================================================
NAME = initial32.inp
|  1> ! WB97X-D3 6-31G(d) VerySlowConv
|  2> ! KDIIS NOSOSCF
|  3> %base "Scan_32"
|  4> 
|  5> %scf
|  6> maxiter 999
|  7> end
|  8> 
|  9> * xyz 0 1
| 10> N         -0.706633333051   -1.191926465194    0.615970769817
| 11> H          1.045992542069    1.707822645249   -0.805872656941
| 12> H          0.328335966474    2.205764882505   -0.273306525161
| 13> H         -0.465845175492    2.462558937440    0.318248412284
| 14> **                         ****END OF INPUT****
================================================================================

                       ****************************
                       * Single Point Calculation *
                       ****************************

---------------------------------
CARTESIAN COORDINATES (ANGSTROEM)
---------------------------------
  N     -0.706633   -1.191926    0.615971
  H      1.045993    1.707823   -0.805873
  H      0.328336    2.205765   -0.273307
  H     -0.465845    2.462559    0.318248

----------------------------
CARTESIAN COORDINATES (A.U.)
----------------------------
  NO LB      ZA    FRAG     MASS         X           Y           Z
   0 N     7.0000    0    14.007   -1.335343   -2.252415    1.164016
   1 H     1.0000    0     1.008    1.976639    3.227317   -1.522879
   2 H     1.0000    0     1.008    0.620465    4.168292   -0.516474
   3 H     1.0000    0     1.008   -0.880320    4.653562    0.601402

--------------------------------
INTERNAL COORDINATES (ANGSTROEM)
--------------------------------
 N      0   0   0     0.000000000000     0.00000000     0.00000000
 H      1   0   0     3.674490589438     0.00000000     0.00000000
 H      2   1   0     1.023036713348    81.26158642     0.00000000
 H      3   2   1     1.023036713378   165.41122113   358.85684930

---------------------------
INTERNAL COORDINATES (A.U.)
---------------------------
 N      0   0   0     0.000000000000     0.00000000     0.00000000
 H      1   0   0     6.943780895709     0.00000000     0.00000000
 H      2   1   0     1.933259213174    81.26158642     0.00000000
 H      3   2   1     1.933259213232   165.41122113   358.85684930

---------------------
BASIS SET INFORMATION
---------------------
There are 2 groups of distinct atoms

 Group   1 Type N   : 10s4p1d contracted to 3s2p1d pattern {631/31/1}
 Group   2 Type H   : 4s contracted to 2s pattern {31}

Atom   0N    basis set group =>   1
Atom   1H    basis set group =>   2
Atom   2H    basis set group =>   2
Atom   3H    basis set group =>   2
------------------------------------------------------------------------------
                           ORCA GTO INTEGRAL CALCULATION
------------------------------------------------------------------------------

                         BASIS SET STATISTICS AND STARTUP INFO

 # of primitive gaussian shells          ...   27
 # of primitive gaussian functions       ...   39
 # of contracted shells                  ...   12
 # of contracted basis functions         ...   20
 Highest angular momentum                ...    2
 Maximum contraction depth               ...    6
 Integral package used                   ... LIBINT
 Integral threshhold            Thresh   ...  1.000e-10
 Primitive cut-off              TCut     ...  1.000e-11


------------------------------ INTEGRAL EVALUATION ----------------------------


 * One electron integrals 
 Pre-screening matrix                    ... done
 Shell pair data                         ... done (   0.000 sec)

-------------------------------------------------------------------------------
                                 ORCA SCF
-------------------------------------------------------------------------------

------------
SCF SETTINGS
------------
Hamiltonian:
 Density Functional     Method          .... DFT(GTOs)
 Exchange Functional    Exchange        .... WB97X-D3
 Correlation Functional Correlation     .... WB97X-D3
 Gradients option       PostSCFGGA      .... off
 Hybrid DFT is turned on
   Fraction HF Exchange ScalHFX         ....  0.195728
   Scaling of DF-GGA-X  ScalDFX         ....  0.000000
   Scaling of DF-GGA-C  ScalDFC         ....  1.000000
   Scaling of DF-LDA-C  ScalLDAC        ....  1.000000
   Perturbative correction              ....  0.000000
 Long-range corrected/Screened/Range-Separated Hybrid DFT is turned on
   Amount of maximum screened exact exchange              ....  0.804272
   Range separation parameter mu (erf(mu*r12)/r12)        ....  0.250000


General Settings:
 Integral files         IntName         .... Scan_32
 Hartree-Fock type      HFTyp           .... RHF
 Total Charge           Charge          ....    0
 Multiplicity           Mult            ....    1
 Number of Electrons    NEL             ....   10
 Basis Dimension        Dim             ....   20
 Nuclear Repulsion      ENuc            ....      4.3231401444 Eh

Convergence Acceleration:
 DIIS                   CNVDIIS         .... on
   Start iteration      DIISMaxIt       ....     0
   Startup error        DIISStart       ....  0.200000
   # of expansion vecs  DIISMaxEq       ....     5
   Bias factor          DIISBfac        ....   1.050
   Max. coefficient     DIISMaxC        ....  10.000
 Newton-Raphson         CNVNR           .... off
 SOSCF                  CNVSOSCF        .... off
 Level Shifting         CNVShift        .... off
 Zerner damping         CNVZerner       .... off
 Static damping         CNVDamp         .... off
 Fernandez-Rico         CNVRico         .... off

SCF Procedure:
 Maximum # iterations   MaxIter         ....   999
 SCF integral mode      SCFMode         .... Direct
   Integral package                     .... LIBINT
 Reset frequeny         DirectResetFreq ....    20
 Integral Threshold     Thresh          ....  1.000e-10 Eh
 Primitive CutOff       TCut            ....  1.000e-11 Eh

Convergence Tolerance:
 Convergence Check Mode ConvCheckMode   .... All-Criteria
 Convergence forced     ConvForced      .... 0
 Energy Change          TolE            ....  1.000e-06 Eh
 Max Density Change     TolMaxP         ....  1.000e-05
 RMS Density Change     TolRMSP         ....  1.000e-06
 DIIS Error             TolErr          ....  1.000e-06


Diagonalization of the overlap matrix:
Smallest eigenvalue                        ... 6.334e-02
Time for diagonalization                   ...    0.000 sec
Threshold for overlap eigenvalues          ... 1.000e-08
Number of eigenvalues below threshold      ... 0
Time for construction of square roots      ...    0.007 sec
Total time needed                          ...    0.007 sec

-------------------
DFT GRID GENERATION
-------------------

General Integration Accuracy     IntAcc      ...  4.340
Radial Grid Type                 RadialGrid  ... Gauss-Chebyshev
Angular Grid (max. acc.)         AngularGrid ... Lebedev-110
Angular grid pruning method      GridPruning ... 3 (G Style)
Weight generation scheme         WeightScheme... Becke
Basis function cutoff            BFCut       ...    1.0000e-10
Integration weight cutoff        WCut        ...    1.0000e-14
Grids for H and He will be reduced by one unit

# of grid points (after initial pruning)     ...   4084 (   0.0 sec)
# of grid points (after weights+screening)   ...   4053 (   0.0 sec)
nearest neighbour list constructed           ...    0.0 sec
Grid point re-assignment to atoms done       ...    0.0 sec
Grid point division into batches done        ...    0.0 sec
Reduced shell lists constructed in    0.0 sec

Total number of grid points                  ...     4053
Total number of batches                      ...       65
Average number of points per batch           ...       62
Average number of grid points per atom       ...     1013
Average number of shells per batch           ...     9.14 (76.14%)
Average number of basis functions per batch  ...    14.68 (73.41%)
Average number of large shells per batch     ...     8.23 (90.05%)
Average number of large basis fcns per batch ...    13.14 (89.47%)
Maximum spatial batch extension              ...  25.65, 16.94, 25.65 au
Average spatial batch extension              ...   5.79,  5.38,  6.38 au

Time for grid setup =    0.023 sec

------------------------------
INITIAL GUESS: MODEL POTENTIAL
------------------------------
Loading Hartree-Fock densities                     ... done
Calculating cut-offs                               ... done
Setting up the integral package                    ... done
Initializing the effective Hamiltonian             ... done
Starting the Coulomb interaction                   ... done (   0.0 sec)
Reading the grid                                   ... done
Mapping shells                                     ... done
Starting the XC term evaluation                    ... done (   0.0 sec)
  promolecular density results
     # of electrons  =      9.996276045
     EX              =     -7.181502000
     EC              =     -0.262863902
     EX+EC           =     -7.444365902
Transforming the Hamiltonian                       ... done (   0.0 sec)
Diagonalizing the Hamiltonian                      ... done (   0.0 sec)
Back transforming the eigenvectors                 ... done (   0.0 sec)
Now organizing SCF variables                       ... done
                      ------------------
                      INITIAL GUESS DONE (   0.1 sec)
                      ------------------
--------------
SCF ITERATIONS
--------------
ITER       Energy         Delta-E        Max-DP      RMS-DP      [F,P]   Gradient Norm
               ***  Starting incremental Fock matrix formation  ***
                             ****Resetting KDIIS****
                             ****Turning on KDIIS(Cayley)****
  0    -55.7577697946   0.000000000000 0.03753828  0.00405756  0.1472848   0.115432992
  1    -55.7824383039  -0.024668509321 0.05110435  0.00638943  0.1217605   0.096982707
  2    -55.8173200130  -0.034881709086 0.06739642  0.01075454  0.0847007   0.073266499
  3    -55.8758934911  -0.058573478106 0.09619491  0.01116303  0.0987255   0.056062037
  4    -55.9120884837  -0.036194992543 0.03606890  0.00686246  0.0859476   0.042426596
  5    -55.9429448438  -0.030856360182 0.02775586  0.00386481  0.0769467   0.040065446
  6    -55.9513822186  -0.008437374788 0.01325388  0.00208343  0.0661173   0.042570010
  7    -55.9586388806  -0.007256662006 0.11600705  0.02129169  0.0604530   0.041238833
  8    -55.8711434483   0.087495432323 0.21891800  0.03678856  0.0737423   0.048597531
  9    -55.9901800575  -0.119036609233 0.12392130  0.01685535  0.0497558   0.040764490
 10    -55.9890192391   0.001160818476 0.09372646  0.01228234  0.0548321   0.030180449
 11    -55.9990177733  -0.009998534213 0.18528699  0.02120817  0.0145631   0.007696570
 12    -55.9671971334   0.031820639909 0.09699445  0.01152891  0.0888043   0.042992015
 13    -55.9965703141  -0.029373180747 0.08611640  0.00996930  0.0312329   0.014875854
 14    -55.9990251237  -0.002454809631 0.01378639  0.00158690  0.0177469   0.007979877
 15    -55.9999434117  -0.000918287927 0.00988763  0.00115305  0.0107893   0.004844077
 16    -56.0003278786  -0.000384466953 0.00333402  0.00038702  0.0059081   0.002653219
 17    -56.0002222137   0.000105664889 0.01517548  0.00176343  0.0076069   0.003416821
 18    -56.0004895513  -0.000267337566 0.00053855  0.00005887  0.0003615   0.000213051
                          ***Energy convergence achieved***
 19    -56.0004903931  -0.000000841799 0.00457874  0.00050962  0.0003655   0.000222344
               *** Restarting incremental Fock matrix formation ***
                             ****Resetting KDIIS****
 20    -56.0004995578  -0.000009164721 0.00009786  0.00001320  0.0003508   0.000209457
                          ***Energy convergence achieved***
 21    -56.0004998688  -0.000000311000 0.00030552  0.00003359  0.0003484   0.000205450
 22    -56.0005006485  -0.000000779656 0.00353315  0.00039013  0.0003466   0.000203530
 23    -56.0005095321  -0.000008883673 0.05827144  0.00644523  0.0003304   0.000194235
 24    -56.0006148934  -0.000105361288 0.00157563  0.00022642  0.0014994   0.000921819
 25    -56.0006243365  -0.000009443039 0.03465386  0.00410264  0.0005888   0.000382290
 26    -56.0006600718  -0.000035735318 0.01279243  0.00145611  0.0010629   0.000631622
 27    -56.0006513475   0.000008724266 0.02113535  0.00243243  0.0009802   0.000599131
 28    -56.0006668356  -0.000015488071 0.00371045  0.00040749  0.0010379   0.000629522
 29    -56.0006745689  -0.000007733282 0.05870773  0.00703894  0.0001569   0.000095635
 30    -56.0006987633  -0.000024194411 0.01183501  0.00118610  0.0010022   0.000661220
 31    -56.0006748251   0.000023938199 0.01786668  0.00183243  0.0021474   0.001345319
 32    -56.0007002948  -0.000025469716 0.00849705  0.00137034  0.0013399   0.000841603
 33    -56.0007172208  -0.000016926021 0.06300601  0.00751567  0.0001501   0.000119548
 34    -56.0006734277   0.000043793082 0.01579183  0.00180921  0.0010636   0.000640367
 35    -56.0006909141  -0.000017486318 0.00222939  0.00030741  0.0006828   0.000412850
                          ***Energy convergence achieved***
 36    -56.0006912811  -0.000000367008 0.04055343  0.00430065  0.0002917   0.000195071
 37    -56.0007225172  -0.000031236156 0.04654285  0.00663358  0.0001412   0.000088293
 38    -56.0006736625   0.000048854776 0.06805649  0.00889694  0.0026058   0.001615150
 39    -56.0007082479  -0.000034585437 0.00945315  0.00088330  0.0029552   0.001824597
               *** Restarting incremental Fock matrix formation ***
                             ****Resetting KDIIS****
 40    -56.0007136128  -0.000005364913 0.00069234  0.00009642  0.0027736   0.001696458
 41    -56.0007264959  -0.000012883057 0.00043110  0.00005845  0.0020549   0.001217555
 42    -56.0007319578  -0.000005461904 0.00086861  0.00012024  0.0016948   0.001011041
 43    -56.0007399146  -0.000007956801 0.00169228  0.00023715  0.0010087   0.000611821
 44    -56.0007463142  -0.000006399611 0.00387468  0.00061733  0.0001984   0.000105624
 45    -56.0007379137   0.000008400444 0.02110780  0.00345281  0.0002114   0.000109362
 46    -56.0007819188  -0.000044005058 0.00141041  0.00019576  0.0003726   0.000254496
 47    -56.0007848023  -0.000002883529 0.00634831  0.00103672  0.0001678   0.000109544
 48    -56.0007716001   0.000013202192 0.00462437  0.00067572  0.0002017   0.000173974
 49    -56.0007785551  -0.000006954959 0.02422433  0.00299677  0.0006831   0.000436742
 50    -56.0007491145   0.000029440623 0.05919642  0.00775522  0.0001324   0.000106016
 51    -56.0006853885   0.000063725945 0.01205606  0.00140110  0.0006251   0.000477112
 52    -56.0006949660  -0.000009577444 0.04949256  0.00668906  0.0002462   0.000174920
 53    -56.0006445925   0.000050373442 0.03682235  0.00476137  0.0015918   0.001153782
 54    -56.0006814488  -0.000036856328 0.00692768  0.00092726  0.0006662   0.000514356
 55    -56.0006877618  -0.000006312916 0.04143758  0.00594000  0.0005475   0.000421497
 56    -56.0007366569  -0.000048895090 0.02869039  0.00415192  0.0007188   0.000405871
 57    -56.0007007080   0.000035948853 0.01163508  0.00146068  0.0005701   0.000328796
 58    -56.0006913871   0.000009320878 0.04272340  0.00533355  0.0003626   0.000218046
 59    -56.0006561152   0.000035271948 0.04243944  0.00564027  0.0006252   0.000424606
               *** Restarting incremental Fock matrix formation ***
                             ****Resetting KDIIS****
 60    -56.0006886825  -0.000032567279 0.00015050  0.00002139  0.0007629   0.000524128
                          ***Energy convergence achieved***
 61    -56.0006894152  -0.000000732711 0.00012428  0.00001749  0.0006976   0.000433388
 62    -56.0006899255  -0.000000510311 0.00033930  0.00004589  0.0005678   0.000357896
 63    -56.0006908142  -0.000000888707 0.00120288  0.00017132  0.0003395   0.000220424
 64    -56.0006925489  -0.000001734675 0.00510594  0.00082675  0.0001312   0.000068689
 65    -56.0006993423  -0.000006793467 0.01306373  0.00214259  0.0001173   0.000067080
 66    -56.0007151756  -0.000015833284 0.00038164  0.00005734  0.0001510   0.000114954
                          ***Energy convergence achieved***
 67    -56.0007156469  -0.000000471251 0.00050939  0.00008079  0.0000993   0.000089090
 68    -56.0007150503   0.000000596542 0.00089496  0.00014769  0.0001100   0.000096191
 69    -56.0007160834  -0.000001033092 0.00361915  0.00049387  0.0001004   0.000088226
 70    -56.0007124606   0.000003622812 0.01845289  0.00234812  0.0000944   0.000063981
 71    -56.0006971563   0.000015304280 0.00887537  0.00120301  0.0000872   0.000074561
 72    -56.0006894694   0.000007686895 0.00122743  0.00013840  0.0000907   0.000070529
                          ***Energy convergence achieved***
 73    -56.0006901459  -0.000000676433 0.00116245  0.00011468  0.0000886   0.000070933
 74    -56.0006899592   0.000000186694 0.00524273  0.00075483  0.0000852   0.000056159
 75    -56.0006936470  -0.000003687850 0.00359325  0.00047341  0.0002348   0.000175666
 76    -56.0006915261   0.000002120904 0.00424219  0.00054701  0.0000836   0.000054591
 77    -56.0006939196  -0.000002393490 0.00252346  0.00036281  0.0000810   0.000055303
 78    -56.0006957346  -0.000001815035 0.01218374  0.00172826  0.0000831   0.000054967
 79    -56.0007007014  -0.000004966782 0.00510464  0.00062409  0.0002629   0.000161028
               *** Restarting incremental Fock matrix formation ***
                             ****Resetting KDIIS****
 80    -56.0006990092   0.000001692218 0.00001752  0.00000243  0.0000756   0.000044314
                          ***Energy convergence achieved***
 81    -56.0006990216  -0.000000012399 0.00004570  0.00000641  0.0000757   0.000043583
 82    -56.0006990541  -0.000000032545 0.00011220  0.00001575  0.0000757   0.000042637
 83    -56.0006991337  -0.000000079539 0.00023659  0.00003382  0.0000759   0.000041449
 84    -56.0006989657   0.000000167942 0.01200313  0.00165241  0.0000756   0.000040564
 85    -56.0006910438   0.000007921988 0.00428229  0.00057970  0.0000673   0.000047772
 86    -56.0006937776  -0.000002733821 0.00280096  0.00036948  0.0000683   0.000041798
 87    -56.0006954879  -0.000001710376 0.00083870  0.00011919  0.0000869   0.000078706
                          ***Energy convergence achieved***
 88    -56.0006960663  -0.000000578331 0.01349261  0.00180806  0.0000817   0.000074519
 89    -56.0006874850   0.000008581305 0.02578768  0.00355253  0.0000690   0.000052626
 90    -56.0007050444  -0.000017559429 0.00044680  0.00005634  0.0000873   0.000071993
                          ***Energy convergence achieved***
 91    -56.0007052830  -0.000000238594 0.01435440  0.00205385  0.0001304   0.000095313
 92    -56.0006948630   0.000010420009 0.00849532  0.00116024  0.0000952   0.000071793
 93    -56.0006893448   0.000005518156 0.00708467  0.00097331  0.0000871   0.000071737
 94    -56.0006939416  -0.000004596752 0.01873052  0.00269549  0.0001056   0.000088047
 95    -56.0007074153  -0.000013473670 0.00499678  0.00070472  0.0002525   0.000188686
 96    -56.0007036396   0.000003775660 0.00070472  0.00008713  0.0002230   0.000168316
                          ***Energy convergence achieved***
 97    -56.0007035725   0.000000067065 0.02491845  0.00346328  0.0001385   0.000107475
 98    -56.0006866024   0.000016970165 0.02202039  0.00304804  0.0000922   0.000078739
 99    -56.0007012437  -0.000014641321 0.01388566  0.00195795  0.0002099   0.000152705
               *** Restarting incremental Fock matrix formation ***
                             ****Resetting KDIIS****
100    -56.0006918685   0.000009375219 0.00002890  0.00000423  0.0000989   0.000082341
                          ***Energy convergence achieved***
101    -56.0006918975  -0.000000029035 0.00004414  0.00000652  0.0000729   0.000068303
102    -56.0006919346  -0.000000037102 0.00015734  0.00002321  0.0000676   0.000060297
103    -56.0006920533  -0.000000118653 0.00059615  0.00008640  0.0000675   0.000047056
104    -56.0006924633  -0.000000410033 0.00126743  0.00017835  0.0000673   0.000038464
105    -56.0006932977  -0.000000834451 0.00581908  0.00081114  0.0000678   0.000038367
106    -56.0006970742  -0.000003776493 0.00433173  0.00060530  0.0000721   0.000039432
107    -56.0006942512   0.000002822997 0.00067416  0.00009686  0.0000687   0.000040070
                          ***Energy convergence achieved***
108    -56.0006937952   0.000000456022 0.01271289  0.00179908  0.0000683   0.000041095
109    -56.0007023178  -0.000008522551 0.01393274  0.00198623  0.0002113   0.000138998
110    -56.0006929125   0.000009405231 0.00178728  0.00025268  0.0000676   0.000038979
111    -56.0006917324   0.000001180107 0.00798911  0.00110804  0.0000671   0.000038963
112    -56.0006968396  -0.000005107176 0.00192808  0.00024599  0.0000716   0.000044595
113    -56.0006980154  -0.000001175828 0.04109661  0.00503249  0.0000739   0.000051451
114    -56.0006709332   0.000027082227 0.05178693  0.00671010  0.0001855   0.000154323
115    -56.0007062409  -0.000035307708 0.03325520  0.00470812  0.0002173   0.000118172
116    -56.0007379381  -0.000031697213 0.02127970  0.00311821  0.0006369   0.000323570
117    -56.0007143859   0.000023552264 0.03927067  0.00543699  0.0004453   0.000230718
118    -56.0006865825   0.000027803361 0.05222872  0.00637945  0.0004254   0.000228887
119    -56.0006415788   0.000045003706 0.02792897  0.00336843  0.0008625   0.000475314
               *** Restarting incremental Fock matrix formation ***
                             ****Resetting KDIIS****
120    -56.0006685259  -0.000026947131 0.00006359  0.00000940  0.0006601   0.000355555
                          ***Energy convergence achieved***
121    -56.0006687249  -0.000000198985 0.00009735  0.00001091  0.0005991   0.000313554
122    -56.0006689493  -0.000000224435 0.00029001  0.00003210  0.0004876   0.000257779
123    -56.0006693789  -0.000000429557 0.00134527  0.00016305  0.0002894   0.000158716
124    -56.0006706653  -0.000001286385 0.00766819  0.00089874  0.0000966   0.000055106
125    -56.0006766976  -0.000006032347 0.02166415  0.00258718  0.0000896   0.000054009
126    -56.0006898457  -0.000013148096 0.00694132  0.00083866  0.0001663   0.000113383
127    -56.0006862120   0.000003633739 0.00659855  0.00080158  0.0000927   0.000076651
128    -56.0006895831  -0.000003371060 0.00554492  0.00066946  0.0002212   0.000147251
129    -56.0006924455  -0.000002862482 0.00551874  0.00067810  0.0001661   0.000113266
130    -56.0006897528   0.000002692746 0.00628090  0.00076313  0.0000935   0.000072897
131    -56.0006863518   0.000003400957 0.00358360  0.00043006  0.0000780   0.000050778
132    -56.0006883734  -0.000002021618 0.00054425  0.00006312  0.0000759   0.000039404
                          ***Energy convergence achieved***
133    -56.0006884828  -0.000000109363 0.00663118  0.00082218  0.0000752   0.000044968
134    -56.0006922711  -0.000003788249 0.03880187  0.00536762  0.0000733   0.000039657
135    -56.0007229464  -0.000030675309 0.07538554  0.00981916  0.0002659   0.000149912
136    -56.0006670490   0.000055897401 0.02517775  0.00283805  0.0003863   0.000194636
137    -56.0006432385   0.000023810489 0.05732525  0.00603879  0.0007273   0.000356711
138    -56.0005558493   0.000087389181 0.01280839  0.00130250  0.0022416   0.001090104
139    -56.0005299148   0.000025934467 0.05975322  0.00619249  0.0026350   0.001288990
               *** Restarting incremental Fock matrix formation ***
                             ****Resetting KDIIS****
140    -56.0006297912  -0.000099876404 0.00007697  0.00001158  0.0013876   0.000690766
                          ***Energy convergence achieved***
141    -56.0006302950  -0.000000503807 0.00014427  0.00001789  0.0012606   0.000622577
142    -56.0006310320  -0.000000736912 0.00043996  0.00005051  0.0010251   0.000509514
143    -56.0006322944  -0.000001262417 0.00222331  0.00023835  0.0006073   0.000308856
144    -56.0006352435  -0.000002949117 0.00915176  0.00099526  0.0001584   0.000083540
145    -56.0006452704  -0.000010026899 0.04089056  0.00468078  0.0001425   0.000079409
146    -56.0006794674  -0.000034196973 0.03758631  0.00478975  0.0002597   0.000133828
147    -56.0007028667  -0.000023399321 0.04784533  0.00685356  0.0004759   0.000235153
148    -56.0007545074  -0.000051640748 0.08414243  0.01171547  0.0010646   0.000524806
149    -56.0006786919   0.000075815578 0.17853202  0.01835354  0.0004846   0.000232222
150    -56.0003767375   0.000301954306 0.07650073  0.00753721  0.0049025   0.002357690
151    -56.0005487447  -0.000172007172 0.05671234  0.00591281  0.0026143   0.001245502
152    -56.0006379802  -0.000089235457 0.01148194  0.00125961  0.0012102   0.000580579
153    -56.0006502342  -0.000012254049 0.05281900  0.00622423  0.0010539   0.000504625
154    -56.0006900589  -0.000039824637 0.02534888  0.00335011  0.0007339   0.000360121
155    -56.0007065506  -0.000016491693 0.07444433  0.00914173  0.0009454   0.000456237
156    -56.0006540226   0.000052527986 0.05650039  0.00601706  0.0009192   0.000440058
157    -56.0005788299   0.000075192699 0.06019803  0.00643162  0.0018740   0.000896491
158    -56.0006574157  -0.000078585842 0.00188687  0.00020658  0.0009156   0.000437914
159    -56.0006557111   0.000001704625 0.04432210  0.00525129  0.0009503   0.000454443
               *** Restarting incremental Fock matrix formation ***
                             ****Resetting KDIIS****
160    -56.0006885889  -0.000032877815 0.00004447  0.00000633  0.0006956   0.000339973
                          ***Energy convergence achieved***
161    -56.0006887166  -0.000000127684 0.00005790  0.00000825  0.0006323   0.000305199
162    -56.0006888851  -0.000000168535 0.00018030  0.00002222  0.0005153   0.000250210
163    -56.0006891588  -0.000000273710 0.00069719  0.00008306  0.0003105   0.000154184
164    -56.0006896487  -0.000000489876 0.00256085  0.00031153  0.0000772   0.000039398
165    -56.0006911064  -0.000001457733 0.01394414  0.00167817  0.0000756   0.000038903
166    -56.0006985397  -0.000007433254 0.00263711  0.00031413  0.0000764   0.000048624
167    -56.0006971670   0.000001372714 0.00256489  0.00031359  0.0000752   0.000049053
168    -56.0006957237   0.000001443247 0.00117354  0.00014812  0.0001101   0.000079557
                          ***Energy convergence achieved***
169    -56.0006964094  -0.000000685678 0.00172946  0.00020099  0.0000939   0.000072762
170    -56.0006956056   0.000000803769 0.00639246  0.00077512  0.0000746   0.000046990
171    -56.0006921431   0.000003462586 0.00553743  0.00066920  0.0000750   0.000039608
172    -56.0006951317  -0.000002988682 0.00365305  0.00042724  0.0000744   0.000039363
173    -56.0006969330  -0.000001801286 0.00364061  0.00047261  0.0000750   0.000044490
174    -56.0006992137  -0.000002280674 0.02012427  0.00262227  0.0000789   0.000052616
175    -56.0006867579   0.000012455758 0.01264946  0.00158159  0.0000801   0.000062746
176    -56.0006942171  -0.000007459193 0.03944710  0.00524323  0.0000740   0.000045172
177    -56.0007245356  -0.000030318478 0.11581195  0.01454082  0.0002605   0.000145241
178    -56.0006235957   0.000100939927 0.02733996  0.00302575  0.0011133   0.000554793
179    -56.0006547890  -0.000031193319 0.05236596  0.00633939  0.0006779   0.000344653
               *** Restarting incremental Fock matrix formation ***
                             ****Resetting KDIIS****
180    -56.0006936653  -0.000038876321 0.00003475  0.00000516  0.0005481   0.000269182
                          ***Energy convergence achieved***
181    -56.0006937486  -0.000000083275 0.00005223  0.00000717  0.0004982   0.000241441
182    -56.0006938613  -0.000000112673 0.00016020  0.00002014  0.0004062   0.000198219
183    -56.0006940572  -0.000000195886 0.00044282  0.00005575  0.0002447   0.000122965
184    -56.0006943686  -0.000000311436 0.00010384  0.00001371  0.0000742   0.000037310
185    -56.0006944314  -0.000000062808 0.00296243  0.00039361  0.0000742   0.000037319
186    -56.0006926233   0.000001808066 0.00561965  0.00074790  0.0000743   0.000037534
187    -56.0006960652  -0.000003441835 0.00436714  0.00058308  0.0000752   0.000038668
188    -56.0006933787   0.000002686484 0.00486520  0.00055236  0.0000741   0.000038441
189    -56.0006953466  -0.000001967946 0.00897052  0.00116451  0.0001190   0.000087752
190    -56.0006901831   0.000005163534 0.00522645  0.00060534  0.0000751   0.000047271
191    -56.0006876082   0.000002574859 0.00762197  0.00089106  0.0000793   0.000042647
192    -56.0006900889  -0.000002480678 0.02676372  0.00372404  0.0001039   0.000080831
193    -56.0007083984  -0.000018309511 0.06260944  0.00813991  0.0001558   0.000111456
194    -56.0006635717   0.000044826709 0.04897021  0.00615862  0.0004300   0.000248121
195    -56.0006981636  -0.000034591845 0.00492623  0.00059839  0.0002390   0.000131852
                          ***Energy convergence achieved***
196    -56.0006985665  -0.000000402912 0.00546690  0.00073649  0.0002925   0.000187291
197    -56.0006953452   0.000003221279 0.06474423  0.00889646  0.0003708   0.000191345
198    -56.0007581008  -0.000062755554 0.08081924  0.01156654  0.0010193   0.000525774
199    -56.0006813726   0.000076728166 0.02182007  0.00268278  0.0005476   0.000273080
               *** Restarting incremental Fock matrix formation ***
                             ****Resetting KDIIS****
200    -56.0006642412   0.000017131426 0.00003481  0.00000446  0.0007196   0.000354470
                          ***Energy convergence achieved***
201    -56.0006643601  -0.000000118940 0.00012849  0.00001467  0.0006547   0.000323082
202    -56.0006646234  -0.000000263336 0.00026799  0.00003130  0.0005236   0.000260895
203    -56.0006650408  -0.000000417375 0.00254463  0.00029689  0.0003101   0.000160934
204    -56.0006674247  -0.000002383907 0.01521074  0.00178298  0.0001067   0.000058891
205    -56.0006792229  -0.000011798200 0.01445425  0.00172941  0.0000906   0.000063453
206    -56.0006877507  -0.000008527795 0.00905809  0.00111038  0.0001204   0.000088132
207    -56.0006825870   0.000005163690 0.01560895  0.00190010  0.0001365   0.000104416
208    -56.0006910197  -0.000008432720 0.00712323  0.00085298  0.0001011   0.000077409
209    -56.0006871960   0.000003823710 0.00304775  0.00036477  0.0002282   0.000158096
210    -56.0006891440  -0.000001947965 0.00291769  0.00036760  0.0000765   0.000046366
211    -56.0006908506  -0.000001706582 0.01016889  0.00136393  0.0000752   0.000043091
212    -56.0006972895  -0.000006438972 0.04856088  0.00593474  0.0000785   0.000054797
213    -56.0006644293   0.000032860236 0.07937496  0.01018844  0.0002431   0.000129533
214    -56.0007229555  -0.000058526226 0.05723055  0.00759249  0.0004292   0.000220610
215    -56.0006811378   0.000041817693 0.08053042  0.00892899  0.0002326   0.000133831
216    -56.0005933718   0.000087766052 0.00118259  0.00014335  0.0015059   0.000720582
217    -56.0005952426  -0.000001870827 0.07156294  0.00721003  0.0014325   0.000691855
218    -56.0004545014   0.000140741209 0.00334165  0.00033112  0.0037356   0.001738618
219    -56.0004473433   0.000007158118 0.19249533  0.02084191  0.0038352   0.001784461
               *** Restarting incremental Fock matrix formation ***
                             ****Resetting KDIIS****
220    -56.0007044765  -0.000257133233 0.00006564  0.00000930  0.0005540   0.000306868
                          ***Energy convergence achieved***
221    -56.0007046460  -0.000000169476 0.00007310  0.00001021  0.0005061   0.000268221
222    -56.0007048188  -0.000000172800 0.00022463  0.00002907  0.0004128   0.000221434
223    -56.0007051409  -0.000000322082 0.00063838  0.00007617  0.0002485   0.000138071
224    -56.0007056630  -0.000000522082 0.00064026  0.00007412  0.0000973   0.000049035
225    -56.0007052292   0.000000433759 0.00471384  0.00054980  0.0000969   0.000048937
226    -56.0007020377   0.000003191547 0.00285080  0.00033908  0.0000933   0.000048353
227    -56.0007000989   0.000001938731 0.00048840  0.00006342  0.0000908   0.000048326
                          ***Energy convergence achieved***
228    -56.0006997835   0.000000315463 0.00125053  0.00016702  0.0000899   0.000049887
229    -56.0006989325   0.000000850938 0.01590342  0.00199245  0.0000879   0.000050275
230    -56.0006904137   0.000008518875 0.05427258  0.00633341  0.0000765   0.000049393
231    -56.0006485498   0.000041863846 0.04777188  0.00583660  0.0005806   0.000302491
232    -56.0006877181  -0.000039168267 0.02835542  0.00387682  0.0003591   0.000200707
233    -56.0007065989  -0.000018880844 0.03095561  0.00413466  0.0005406   0.000261892
234    -56.0007348596  -0.000028260727 0.00804202  0.00108122  0.0009262   0.000463732
235    -56.0007443407  -0.000009481039 0.01553980  0.00212156  0.0010672   0.000536269
236    -56.0007249386   0.000019402044 0.06318197  0.00874461  0.0009724   0.000505970
237    -56.0006761467   0.000048791949 0.00076098  0.00009498  0.0006979   0.000366370
                          ***Energy convergence achieved***
238    -56.0006757703   0.000000376348 0.08415550  0.00936813  0.0006651   0.000362979
239    -56.0005655267   0.000110243670 0.11968740  0.01389101  0.0024132   0.001171731
               *** Restarting incremental Fock matrix formation ***
                             ****Resetting KDIIS****
240    -56.0006996290  -0.000134102325 0.00004394  0.00000714  0.0007180   0.000355380
                          ***Energy convergence achieved***
241    -56.0006997786  -0.000000149623 0.00007118  0.00000890  0.0006546   0.000318481
242    -56.0006999721  -0.000000193470 0.00020694  0.00002451  0.0005333   0.000261189
243    -56.0007002987  -0.000000326580 0.00054659  0.00006504  0.0003199   0.000160176
244    -56.0007007675  -0.000000468789 0.00054280  0.00006947  0.0000752   0.000043664
245    -56.0007003709   0.000000396554 0.00126420  0.00016185  0.0000744   0.000043614
246    -56.0006994489   0.000000922007 0.00017570  0.00002258  0.0000724   0.000043480
247    -56.0006995772  -0.000000128269 0.00024536  0.00003228  0.0000727   0.000043528
248    -56.0006993971   0.000000180048 0.01341986  0.00178413  0.0000723   0.000043402
249    -56.0006913155   0.000008081642 0.00224547  0.00029748  0.0001072   0.000095593
250    -56.0006926675  -0.000001352005 0.07780167  0.00948357  0.0000682   0.000042218
251    -56.0006201541   0.000072513432 0.03050153  0.00341642  0.0010521   0.000571189
252    -56.0006557547  -0.000035600641 0.03568863  0.00429778  0.0005860   0.000345039
253    -56.0006846872  -0.000028932488 0.03509436  0.00474840  0.0005970   0.000303651
254    -56.0007084965  -0.000023809314 0.01350962  0.00183329  0.0007622   0.000365318
255    -56.0007201514  -0.000011654866 0.01537530  0.00215545  0.0009207   0.000439665
256    -56.0007066043   0.000013547084 0.06213280  0.00787233  0.0007254   0.000346306
257    -56.0006618428   0.000044761498 0.00179647  0.00022271  0.0007867   0.000387095
258    -56.0006634737  -0.000001630964 0.00776470  0.00090324  0.0007517   0.000373794
259    -56.0006561693   0.000007304406 0.00040021  0.00005419  0.0008438   0.000418485
               *** Restarting incremental Fock matrix formation ***
                             ****Resetting KDIIS****
                          ***Energy convergence achieved***
260    -56.0006557370   0.000000432313 0.00005228  0.00000748  0.0008374   0.000421479
261    -56.0006559349  -0.000000197869 0.00010964  0.00001221  0.0007626   0.000380097
262    -56.0006562369  -0.000000302047 0.00034974  0.00003770  0.0006200   0.000311720
263    -56.0006568231  -0.000000586138 0.00281942  0.00031642  0.0003667   0.000191002
264    -56.0006596714  -0.000002848318 0.01720621  0.00200625  0.0001243   0.000065668
265    -56.0006743014  -0.000014630052 0.01841104  0.00221430  0.0001017   0.000061938
266    -56.0006859264  -0.000011624939 0.00178200  0.00021493  0.0001039   0.000081723
                          ***Energy convergence achieved***
267    -56.0006868880  -0.000000961609 0.00500285  0.00061420  0.0000794   0.000054678
268    -56.0006893755  -0.000002487547 0.00823195  0.00099328  0.0000764   0.000060708
269    -56.0006848611   0.000004514473 0.00522491  0.00062487  0.0002127   0.000161054
270    -56.0006879755  -0.000003114402 0.00253836  0.00030205  0.0000780   0.000044684
271    -56.0006868663   0.000001109188 0.00079403  0.00009763  0.0000797   0.000041471
                          ***Energy convergence achieved***
272    -56.0006873456  -0.000000479312 0.01532920  0.00203867  0.0000791   0.000040945
273    -56.0006970117  -0.000009666132 0.03312953  0.00418180  0.0000769   0.000047154
274    -56.0006757105   0.000021301236 0.13536623  0.01777956  0.0001224   0.000076809
275    -56.0008189009  -0.000143190460 0.00878674  0.00106437  0.0017384   0.000887148
276    -56.0008056050   0.000013295899 0.02850977  0.00336954  0.0016024   0.000817648
277    -56.0007685438   0.000037061265 0.00332141  0.00039746  0.0009793   0.000513487
278    -56.0007726851  -0.000004141314 0.24681518  0.02882748  0.0010559   0.000543836
279    -56.0004447565   0.000327928575 0.23050078  0.02616598  0.0037602   0.001745420
               *** Restarting incremental Fock matrix formation ***
                             ****Resetting KDIIS****
280    -56.0007423149  -0.000297558421 0.00004907  0.00000777  0.0014089   0.000686008
                          ***Energy convergence achieved***
281    -56.0007427149  -0.000000399955 0.00008024  0.00001512  0.0012836   0.000623201
282    -56.0007433766  -0.000000661706 0.00025570  0.00004037  0.0010448   0.000509399
283    -56.0007444157  -0.000001039059 0.00042713  0.00005222  0.0006323   0.000313334
                          ***Energy convergence achieved***
284    -56.0007443877   0.000000027957 0.02411418  0.00308643  0.0001547   0.000077171
285    -56.0007186976   0.000025690089 0.03871295  0.00531450  0.0001168   0.000074202
286    -56.0006885033   0.000030194294 0.00986046  0.00124853  0.0003317   0.000182831
287    -56.0006824440   0.000006059315 0.01231307  0.00151139  0.0002666   0.000146096
288    -56.0006737319   0.000008712071 0.07578189  0.01047497  0.0004659   0.000249815
289    -56.0007379417  -0.000064209804 0.12075304  0.01433955  0.0005766   0.000305025
290    -56.0009055567  -0.000167614994 0.02227189  0.00242486  0.0032143   0.001684431
291    -56.0009365661  -0.000031009338 0.20207706  0.02455144  0.0038040   0.001999638
292    -56.0006866805   0.000249885546 0.01273115  0.00169274  0.0001917   0.000144255
293    -56.0006945363  -0.000007855818 0.00978024  0.00127784  0.0004898   0.000279294
294    -56.0006876110   0.000006925314 0.01562704  0.00207989  0.0009682   0.000523028
295    -56.0006986019  -0.000010990878 0.02141156  0.00288139  0.0005051   0.000288359
296    -56.0006844657   0.000014136250 0.01505274  0.00184798  0.0004574   0.000262130
297    -56.0006747456   0.000009720029 0.00911387  0.00107451  0.0001476   0.000106834
298    -56.0006679978   0.000006747872 0.17488770  0.02236124  0.0001935   0.000125353
299    -56.0008615507  -0.000193552961 0.00465399  0.00060114  0.0029339   0.001533117
               *** Restarting incremental Fock matrix formation ***
                             ****Resetting KDIIS****
300    -56.0008745813  -0.000013030563 0.00012278  0.00001766  0.0024552   0.001262057
301    -56.0008760577  -0.000001476450 0.00019356  0.00002735  0.0022340   0.001141587
302    -56.0008782691  -0.000002211330 0.00054677  0.00007208  0.0018226   0.000933899
303    -56.0008817020  -0.000003432957 0.00088298  0.00011695  0.0011055   0.000572858
Warning: badly conditioned DIIS matrix, 1 vectors out of 5 destroyed
304    -56.0008847702  -0.000003068230 0.00217990  0.00028311  0.0002540   0.000131278
Warning: badly conditioned DIIS matrix, 1 vectors out of 5 destroyed
Warning: badly conditioned DIIS matrix, 1 vectors out of 4 destroyed
305    -56.0008802498   0.000004520459 0.00807479  0.00106791  0.0002514   0.000130586
306    -56.0008634970   0.000016752792 0.12016791  0.01655248  0.0002407   0.000128601
307    -56.0006349969   0.000228500139 0.03646088  0.00452440  0.0033448   0.002202979
308    -56.0005148854   0.000120111414 0.04989238  0.00631333  0.0055939   0.003722185
309    -56.0006653308  -0.000150445392 0.04066886  0.00546257  0.0026016   0.001732670
310    -56.0007386174  -0.000073286575 0.01190980  0.00159793  0.0006990   0.000522379
311    -56.0007214522   0.000017165202 0.00311774  0.00040535  0.0008508   0.000610871
312    -56.0007198056   0.000001646583 0.01171013  0.00154360  0.0004688   0.000367389
313    -56.0007062509   0.000013554751 0.00400266  0.00053095  0.0004915   0.000383498
314    -56.0007121071  -0.000005856241 0.00194081  0.00029929  0.0001264   0.000092277
315    -56.0007133539  -0.000001246745 0.01084090  0.00152235  0.0004531   0.000275710
316    -56.0007033914   0.000009962452 0.03036485  0.00376431  0.0001100   0.000082622
317    -56.0006875233   0.000015868096 0.05543989  0.00728380  0.0001333   0.000099144
318    -56.0006407405   0.000046782827 0.01341098  0.00166303  0.0008885   0.000539390
319    -56.0006546947  -0.000013954222 0.00776770  0.00095767  0.0007616   0.000456520
               *** Restarting incremental Fock matrix formation ***
                             ****Resetting KDIIS****
320    -56.0006620809  -0.000007386190 0.00010814  0.00001566  0.0006561   0.000409303
                          ***Energy convergence achieved***
321    -56.0006624972  -0.000000416329 0.00012530  0.00001387  0.0005943   0.000341740
322    -56.0006628229  -0.000000325655 0.00037983  0.00003986  0.0004836   0.000282179
323    -56.0006634552  -0.000000632324 0.00228545  0.00025299  0.0002865   0.000175181
324    -56.0006658292  -0.000002374042 0.01300635  0.00151439  0.0001125   0.000066080
325    -56.0006770887  -0.000011259480 0.01563460  0.00182198  0.0000987   0.000063418
326    -56.0006862625  -0.000009173722 0.00121522  0.00014676  0.0000836   0.000073401
                          ***Energy convergence achieved***
327    -56.0006868855  -0.000000623001 0.00204654  0.00023951  0.0000830   0.000044706
328    -56.0006878042  -0.000000918786 0.00049674  0.00006096  0.0000813   0.000041412
329    -56.0006880846  -0.000000280348 0.00853401  0.00109010  0.0000808   0.000040543
330    -56.0006932587  -0.000005174127 0.02316481  0.00291074  0.0000757   0.000042448
331    -56.0007080911  -0.000014832372 0.02922553  0.00392273  0.0001188   0.000087438
332    -56.0006885037   0.000019587401 0.04386319  0.00528130  0.0001349   0.000088804
333    -56.0006533498   0.000035153910 0.02964941  0.00356371  0.0006676   0.000328011
334    -56.0006790217  -0.000025671937 0.00295133  0.00034089  0.0003924   0.000200908
335    -56.0006774969   0.000001524811 0.05247919  0.00706490  0.0005670   0.000272573
336    -56.0007144231  -0.000036926213 0.00580977  0.00073900  0.0008230   0.000401390
337    -56.0007192731  -0.000004850016 0.00781461  0.00097981  0.0008765   0.000428134
338    -56.0007130964   0.000006176748 0.04557373  0.00616113  0.0007329   0.000356285
339    -56.0006809820   0.000032114421 0.00909278  0.00107882  0.0005567   0.000274982
               *** Restarting incremental Fock matrix formation ***
                             ****Resetting KDIIS****
340    -56.0006740304   0.000006951583 0.00004297  0.00000532  0.0006064   0.000302211
                          ***Energy convergence achieved***
341    -56.0006741339  -0.000000103473 0.00008759  0.00000958  0.0005511   0.000273593
342    -56.0006743007  -0.000000166800 0.00027417  0.00002949  0.0004484   0.000224791
343    -56.0006746379  -0.000000337206 0.00189782  0.00022045  0.0002659   0.000139165
344    -56.0006762116  -0.000001573769 0.01342766  0.00163068  0.0001001   0.000052114
345    -56.0006858382  -0.000009626566 0.01344368  0.00163848  0.0000836   0.000050800
346    -56.0006932071  -0.000007368937 0.00497518  0.00059650  0.0000750   0.000062808
347    -56.0006907553   0.000002451865 0.00825565  0.00100165  0.0000766   0.000045357
348    -56.0006948774  -0.000004122106 0.00589727  0.00073914  0.0000761   0.000064000
349    -56.0006917491   0.000003128307 0.01240952  0.00155059  0.0000913   0.000079736
350    -56.0006844092   0.000007339863 0.00768524  0.00099416  0.0000866   0.000070283
351    -56.0006893561  -0.000004946945 0.01142585  0.00154838  0.0001602   0.000115105
352    -56.0006965105  -0.000007154340 0.08282061  0.01063206  0.0001305   0.000082764
353    -56.0007796932  -0.000083182730 0.05256930  0.00683170  0.0011186   0.000558895
354    -56.0007170162   0.000062677042 0.03112062  0.00429479  0.0005638   0.000291416
355    -56.0006932037   0.000023812510 0.05646646  0.00689053  0.0005862   0.000294173
356    -56.0006459584   0.000047245221 0.02575952  0.00301293  0.0012050   0.000606406
357    -56.0006712182  -0.000025259767 0.00230244  0.00030363  0.0007920   0.000401717
358    -56.0006725447  -0.000001326531 0.06117367  0.00836985  0.0008442   0.000424752
359    -56.0007187561  -0.000046211330 0.00165238  0.00021180  0.0009239   0.000448543
               *** Restarting incremental Fock matrix formation ***
                             ****Resetting KDIIS****
360    -56.0007201209  -0.000001364820 0.00005319  0.00000630  0.0009648   0.000468665
                          ***Energy convergence achieved***
361    -56.0007203275  -0.000000206605 0.00010743  0.00001252  0.0008780   0.000425679
362    -56.0007206730  -0.000000345540 0.00030942  0.00003434  0.0007154   0.000349114
363    -56.0007212657  -0.000000592653 0.00057280  0.00006429  0.0004300   0.000214961
364    -56.0007219362  -0.000000670506 0.00306162  0.00039137  0.0001111   0.000061946
365    -56.0007188322   0.000003103980 0.01032913  0.00131196  0.0001048   0.000061176
366    -56.0007088434   0.000009988789 0.00360400  0.00045717  0.0000908   0.000063925
367    -56.0007122543  -0.000003410845 0.00023297  0.00003009  0.0000928   0.000064543
                          ***Energy convergence achieved***
368    -56.0007124871  -0.000000232814 0.00102747  0.00013744  0.0000931   0.000059862
369    -56.0007115085   0.000000978567 0.00293877  0.00038004  0.0003302   0.000245301
370    -56.0007096073   0.000001901239 0.00109228  0.00013659  0.0000883   0.000058494
371    -56.0007106480  -0.000001040727 0.01903726  0.00256716  0.0000901   0.000058216
372    -56.0006966533   0.000013994697 0.06209580  0.00791824  0.0000693   0.000055933
373    -56.0006466959   0.000049957455 0.02294969  0.00272176  0.0008228   0.000404309
374    -56.0006689561  -0.000022260263 0.03900108  0.00506787  0.0005242   0.000262910
375    -56.0006967477  -0.000027791549 0.05137527  0.00680767  0.0005052   0.000245040
376    -56.0007425148  -0.000045767085 0.00335637  0.00043526  0.0011361   0.000545329
377    -56.0007465044  -0.000003989596 0.03166488  0.00398247  0.0011951   0.000573911
378    -56.0007157642   0.000030740176 0.04486854  0.00604960  0.0005698   0.000278586
379    -56.0006815044   0.000034259819 0.05520443  0.00666981  0.0006808   0.000348780
               *** Restarting incremental Fock matrix formation ***
                             ****Resetting KDIIS****
380    -56.0006281554   0.000053348993 0.00005889  0.00000702  0.0011663   0.000558447
                          ***Energy convergence achieved***
381    -56.0006284504  -0.000000295071 0.00022625  0.00002485  0.0010606   0.000508991
382    -56.0006291334  -0.000000682958 0.00046563  0.00005194  0.0008444   0.000408995
383    -56.0006301992  -0.000001065786 0.00667431  0.00078188  0.0004974   0.000251546
384    -56.0006396405  -0.000009441354 0.02507342  0.00296764  0.0001570   0.000091141
385    -56.0006656534  -0.000026012895 0.01414771  0.00167581  0.0001204   0.000113595
386    -56.0006749635  -0.000009310033 0.00119174  0.00013848  0.0001261   0.000104206
                          ***Energy convergence achieved***
387    -56.0006757160  -0.000000752532 0.00254446  0.00028744  0.0001277   0.000116376
388    -56.0006769679  -0.000001251881 0.00014888  0.00001890  0.0000982   0.000063988
                          ***Energy convergence achieved***
389    -56.0006768563   0.000000111565 0.00331514  0.00041748  0.0000985   0.000063604
390    -56.0006792962  -0.000002439863 0.01844420  0.00235703  0.0000944   0.000051470
391    -56.0006914070  -0.000012110796 0.03923829  0.00475293  0.0000778   0.000071227
392    -56.0007171231  -0.000025716168 0.01278113  0.00156242  0.0003362   0.000205150
393    -56.0007074137   0.000009709483 0.01595929  0.00193398  0.0003377   0.000209887
394    -56.0006973394   0.000010074254 0.01129884  0.00143251  0.0002496   0.000146238
395    -56.0007047592  -0.000007419763 0.04317897  0.00568105  0.0002494   0.000164366
396    -56.0006758222   0.000028936949 0.07468879  0.00961729  0.0002536   0.000140465
397    -56.0007316062  -0.000055784028 0.03736936  0.00457171  0.0005761   0.000306450
398    -56.0007013711   0.000030235134 0.05042894  0.00636966  0.0003298   0.000182016
399    -56.0006675712   0.000033799890 0.01715175  0.00220506  0.0003826   0.000195363
               *** Restarting incremental Fock matrix formation ***
                             ****Resetting KDIIS****
400    -56.0006803497  -0.000012778447 0.00006880  0.00000984  0.0005145   0.000298088
                          ***Energy convergence achieved***
401    -56.0006805292  -0.000000179497 0.00007380  0.00000991  0.0004667   0.000258061
402    -56.0006806959  -0.000000166752 0.00021842  0.00002723  0.0003802   0.000212979
403    -56.0006810048  -0.000000308925 0.00066098  0.00008378  0.0002265   0.000131281
404    -56.0006815610  -0.000000556197 0.00287756  0.00035236  0.0000884   0.000044307
405    -56.0006835183  -0.000001957286 0.02023382  0.00255283  0.0000849   0.000043323
406    -56.0006959100  -0.000012391686 0.01040133  0.00137242  0.0000740   0.000060097
407    -56.0007027261  -0.000006816111 0.07671556  0.00925185  0.0001082   0.000068110
408    -56.0006429220   0.000059804076 0.07525762  0.00906973  0.0006804   0.000338368
409    -56.0007017050  -0.000058782943 0.00674276  0.00092504  0.0002529   0.000129437
410    -56.0007067422  -0.000005037218 0.04352732  0.00559543  0.0003423   0.000173647
411    -56.0006780449   0.000028697334 0.00779003  0.00093205  0.0003377   0.000179615
412    -56.0006720446   0.000006000223 0.01530522  0.00181725  0.0004842   0.000243818
413    -56.0006829871  -0.000010942454 0.05037216  0.00586083  0.0004516   0.000225868
414    -56.0006383189   0.000044668248 0.08402784  0.01013453  0.0008887   0.000425688
415    -56.0007041645  -0.000065845679 0.05534477  0.00687284  0.0002068   0.000124242
416    -56.0006667116   0.000037452969 0.05168130  0.00661410  0.0005402   0.000293069
417    -56.0007024255  -0.000035713947 0.04973398  0.00667698  0.0005905   0.000292921
418    -56.0007514314  -0.000049005851 0.09054745  0.01258837  0.0012135   0.000591503
419    -56.0006702090   0.000081222406 0.10045162  0.01085312  0.0007693   0.000373517
               *** Restarting incremental Fock matrix formation ***
                             ****Resetting KDIIS****
420    -56.0005254952   0.000144713785 0.00008750  0.00001328  0.0029467   0.001379674
421    -56.0005270424  -0.000001547222 0.00033109  0.00004012  0.0026791   0.001255198
422    -56.0005300893  -0.000003046872 0.00068116  0.00007756  0.0021351   0.001004124
423    -56.0005341206  -0.000004031310 0.00382191  0.00040166  0.0012633   0.000604449
424    -56.0005429537  -0.000008833080 0.02046256  0.00213748  0.0002473   0.000140207
425    -56.0005798712  -0.000036917568 0.05647255  0.00599076  0.0002311   0.000138848
426    -56.0006469121  -0.000067040911 0.02670457  0.00286826  0.0006259   0.000449137
427    -56.0006224634   0.000024448786 0.04597140  0.00498686  0.0002183   0.000194195
428    -56.0006550871  -0.000032623703 0.00564264  0.00064337  0.0011752   0.000838149
429    -56.0006561066  -0.000001019581 0.00313009  0.00034118  0.0006150   0.000433572
430    -56.0006590882  -0.000002981540 0.00076114  0.00008383  0.0003244   0.000231339
                          ***Energy convergence achieved***
431    -56.0006595263  -0.000000438151 0.00101641  0.00010568  0.0003255   0.000232129
432    -56.0006597372  -0.000000210845 0.00657266  0.00073778  0.0001338   0.000069562
433    -56.0006563001   0.000003437050 0.00150719  0.00017900  0.0001390   0.000069452
                          ***Energy convergence achieved***
434    -56.0006569337  -0.000000633588 0.00971202  0.00122114  0.0001379   0.000070290
435    -56.0006662232  -0.000009289449 0.06672606  0.00758845  0.0001253   0.000079542
436    -56.0007058382  -0.000039615073 0.07314357  0.00859990  0.0006536   0.000444065
437    -56.0006589052   0.000046933077 0.00859534  0.00117158  0.0001356   0.000066929
438    -56.0006549903   0.000003914879 0.09040688  0.01150743  0.0002200   0.000139189
439    -56.0007210775  -0.000066087260 0.07639111  0.00910045  0.0007792   0.000496702
               *** Restarting incremental Fock matrix formation ***
                             ****Resetting KDIIS****
440    -56.0008170913  -0.000096013776 0.00017194  0.00002586  0.0018162   0.000982442
441    -56.0008185406  -0.000001449327 0.00015312  0.00002587  0.0016587   0.000865362
442    -56.0008200302  -0.000001489601 0.00047932  0.00006774  0.0013539   0.000710707
443    -56.0008224433  -0.000002413066 0.00076677  0.00010638  0.0008212   0.000437778
Warning: badly conditioned DIIS matrix, 1 vectors out of 5 destroyed
Warning: badly conditioned DIIS matrix, 1 vectors out of 4 destroyed
Warning: badly conditioned DIIS matrix, 1 vectors out of 3 destroyed
444    -56.0008246087  -0.000002165348 0.00057926  0.00006852  0.0002293   0.000113644
                          ***Energy convergence achieved***
445    -56.0008255370  -0.000000928322 0.01677555  0.00202123  0.0002299   0.000113925
446    -56.0007992166   0.000026320424 0.06390709  0.00810657  0.0002100   0.000109617
447    -56.0007173384   0.000081878171 0.04319559  0.00584526  0.0003661   0.000227170
448    -56.0006841128   0.000033225614 0.01248691  0.00159825  0.0008007   0.000426473
449    -56.0006921543  -0.000008041501 0.01439664  0.00182410  0.0003852   0.000208484
450    -56.0006836041   0.000008550212 0.04042770  0.00474405  0.0005082   0.000269297
451    -56.0006538219   0.000029782194 0.03877227  0.00454635  0.0007404   0.000364442
452    -56.0006829500  -0.000029128153 0.02452688  0.00316323  0.0002875   0.000146645
453    -56.0006980342  -0.000015084198 0.04556360  0.00614957  0.0003666   0.000183820
454    -56.0007428614  -0.000044827224 0.48007575  0.04902202  0.0008575   0.000422100
455    -55.9999293677   0.000813493710 0.41324727  0.04176709  0.0186924   0.013344132
456    -56.0008400036  -0.000910635862 0.17891415  0.02465813  0.0020813   0.001178335
457    -56.0006268991   0.000213104468 0.02390727  0.00261396  0.0011365   0.000615028
458    -56.0006523243  -0.000025425138 0.24400151  0.03087603  0.0008018   0.000485201
459    -56.0009564734  -0.000304149117 0.41102640  0.04922595  0.0048657   0.002642538
               *** Restarting incremental Fock matrix formation ***
                             ****Resetting KDIIS****
460    -56.0001087361   0.000847737242 0.00114486  0.00016061  0.0093847   0.005216328
461    -56.0001571717  -0.000048435608 0.00087664  0.00011461  0.0085120   0.004489079
462    -56.0001947321  -0.000037560328 0.00181361  0.00023385  0.0069230   0.003670364
463    -56.0002457038  -0.000050971755 0.00292616  0.00044139  0.0041352   0.002201407
464    -56.0002796985  -0.000033994637 0.00072218  0.00010849  0.0002888   0.000178049
465    -56.0002820475  -0.000002349068 0.03723051  0.00549434  0.0002822   0.000176385
466    -56.0003731415  -0.000091094003 0.00809590  0.00122565  0.0007088   0.000443920
467    -56.0003878613  -0.000014719805 0.01145809  0.00174852  0.0005570   0.000355485
468    -56.0004048843  -0.000017022947 0.01097064  0.00160050  0.0002490   0.000196448
469    -56.0004143233  -0.000009438968 0.00104100  0.00014641  0.0005220   0.000316374
470    -56.0004115496   0.000002773608 0.00457487  0.00065059  0.0009931   0.000597167
471    -56.0004216700  -0.000010120367 0.00505309  0.00058770  0.0001930   0.000163465
472    -56.0004281374  -0.000006467408 0.00349384  0.00046457  0.0001576   0.000146203
                          ***Energy convergence achieved***
473    -56.0004281598  -0.000000022429 0.00478212  0.00058719  0.0001336   0.000089102
474    -56.0004347080  -0.000006548195 0.01304302  0.00149069  0.0001329   0.000087014
475    -56.0004511461  -0.000016438062 0.00752386  0.00077611  0.0001461   0.000088016
476    -56.0004592041  -0.000008058008 0.00963431  0.00101374  0.0001529   0.000100589
477    -56.0004483593   0.000010844835 0.00261939  0.00036703  0.0002085   0.000142777
478    -56.0004499985  -0.000001639190 0.01669120  0.00203834  0.0002320   0.000154722
479    -56.0004718671  -0.000021868630 0.00272981  0.00034587  0.0003158   0.000207186
               *** Restarting incremental Fock matrix formation ***
                             ****Resetting KDIIS****
480    -56.0004694849   0.000002382159 0.00004505  0.00000469  0.0001603   0.000085687
                          ***Energy convergence achieved***
481    -56.0004695372  -0.000000052273 0.00010570  0.00001091  0.0001604   0.000085496

            ***Energy convergence in two consecutive cycles with***
                    ***'reasonable' density convergence***
                       *** signaling convergence ***

                    *** KDIIS BlockDiag ( 0.000 sec) ***

               *****************************************************
               *                     SUCCESS                       *
               *           SCF CONVERGED AFTER 482 CYCLES          *
               *****************************************************

Setting up the final grid:

General Integration Accuracy     IntAcc      ...  4.670
Radial Grid Type                 RadialGrid  ... Gauss-Chebyshev
Angular Grid (max. acc.)         AngularGrid ... Lebedev-302
Angular grid pruning method      GridPruning ... 3 (G Style)
Weight generation scheme         WeightScheme... Becke
Basis function cutoff            BFCut       ...    1.0000e-10
Integration weight cutoff        WCut        ...    1.0000e-14
Grids for H and He will be reduced by one unit

# of grid points (after initial pruning)     ...  16394 (   0.0 sec)
# of grid points (after weights+screening)   ...  16275 (   0.0 sec)
nearest neighbour list constructed           ...    0.0 sec
Grid point re-assignment to atoms done       ...    0.0 sec
Grid point division into batches done        ...    0.0 sec
Reduced shell lists constructed in    0.1 sec

Total number of grid points                  ...    16275
Total number of batches                      ...      256
Average number of points per batch           ...       63
Average number of grid points per atom       ...     4069
Average number of shells per batch           ...     8.22 (68.51%)
Average number of basis functions per batch  ...    12.88 (64.42%)
Average number of large shells per batch     ...     7.24 (88.07%)
Average number of large basis fcns per batch ...    11.16 (86.65%)
Maximum spatial batch extension              ...  21.92, 14.56, 16.92 au
Average spatial batch extension              ...   3.41,  3.40,  3.49 au

Final grid set up in    0.1 sec
Final integration                            ... done (   0.1 sec)
Change in XC energy                          ...    -0.000117667
Integrated number of electrons               ...     9.999996286
Previous integrated no of electrons          ...     9.997811170

----------------
TOTAL SCF ENERGY
----------------

Total Energy       :          -56.00058733 Eh           -1523.85345 eV

Components:
Nuclear Repulsion  :            4.32314014 Eh             117.63862 eV
Electronic Energy  :          -60.32372747 Eh           -1641.49208 eV
One Electron Energy:          -84.07866243 Eh           -2287.89672 eV
Two Electron Energy:           23.75493496 Eh             646.40464 eV

Virial components:
Potential Energy   :         -111.52730250 Eh           -3034.81219 eV
Kinetic Energy     :           55.52671517 Eh            1510.95874 eV
Virial Ratio       :            2.00853413


DFT components:
N(Alpha)           :        4.999998143084 electrons
N(Beta)            :        4.999998143084 electrons
N(Total)           :        9.999996286168 electrons
E(XC)              :       -5.117809166292 Eh       

---------------
SCF CONVERGENCE
---------------

  Last Energy change         ...   -1.2153e-07  Tolerance :   1.0000e-06
  Last MAX-Density change    ...    1.5174e-05  Tolerance :   1.0000e-05
  Last RMS-Density change    ...    1.4957e-06  Tolerance :   1.0000e-06
  Last DIIS Error            ...    1.6051e-04  Tolerance :   1.0000e-06

             **** THE GBW FILE WAS UPDATED (Scan_32.gbw) ****
             **** DENSITY FILE WAS UPDATED (Scan_32.scfp.tmp) ****
             **** ENERGY FILE WAS UPDATED (Scan_32.en.tmp) ****
----------------
ORBITAL ENERGIES
----------------

  NO   OCC          E(Eh)            E(eV) 
   0   2.0000     -14.542222      -395.7140 
   1   2.0000      -0.807102       -21.9623 
   2   2.0000      -0.589876       -16.0513 
   3   2.0000      -0.342855        -9.3296 
   4   2.0000      -0.290695        -7.9102 
   5   0.0000      -0.146365        -3.9828 
   6   0.0000      -0.069807        -1.8996 
   7   0.0000       0.195505         5.3200 
   8   0.0000       0.738686        20.1007 
   9   0.0000       0.788527        21.4569 
  10   0.0000       0.799999        21.7691 
  11   0.0000       0.833604        22.6835 
  12   0.0000       0.879960        23.9449 
  13   0.0000       0.889322        24.1997 
  14   0.0000       1.033673        28.1277 
  15   0.0000       1.805804        49.1384 
  16   0.0000       1.807926        49.1962 
  17   0.0000       1.822390        49.5897 
  18   0.0000       1.842686        50.1420 
  19   0.0000       1.847808        50.2814 

                    ********************************
                    * MULLIKEN POPULATION ANALYSIS *
                    ********************************

-----------------------
MULLIKEN ATOMIC CHARGES
-----------------------
   0 N :   -0.101085
   1 H :    0.092227
   2 H :   -0.082776
   3 H :    0.091633
Sum of atomic charges:   -0.0000000

--------------------------------
MULLIKEN REDUCED ORBITAL CHARGES
--------------------------------
  0 N s       :     3.999802  s :     3.999802
      pz      :     1.741489  p :     3.101095
      px      :     0.998391
      py      :     0.361215
      dz2     :     0.000069  d :     0.000187
      dxz     :     0.000052
      dyz     :     0.000005
      dx2y2   :     0.000020
      dxy     :     0.000041
  1 H s       :     0.907773  s :     0.907773
  2 H s       :     1.082776  s :     1.082776
  3 H s       :     0.908367  s :     0.908367


                     *******************************
                     * LOEWDIN POPULATION ANALYSIS *
                     *******************************

----------------------
LOEWDIN ATOMIC CHARGES
----------------------
   0 N :   -0.102126
   1 H :    0.046906
   2 H :    0.007410
   3 H :    0.047810

-------------------------------
LOEWDIN REDUCED ORBITAL CHARGES
-------------------------------
  0 N s       :     3.999759  s :     3.999759
      pz      :     1.741800  p :     3.102178
      px      :     0.998954
      py      :     0.361424
      dz2     :     0.000069  d :     0.000188
      dxz     :     0.000052
      dyz     :     0.000005
      dx2y2   :     0.000020
      dxy     :     0.000042
  1 H s       :     0.953094  s :     0.953094
  2 H s       :     0.992590  s :     0.992590
  3 H s       :     0.952190  s :     0.952190


                      *****************************
                      * MAYER POPULATION ANALYSIS *
                      *****************************

  NA   - Mulliken gross atomic population
  ZA   - Total nuclear charge
  QA   - Mulliken gross atomic charge
  VA   - Mayer's total valence
  BVA  - Mayer's bonded valence
  FA   - Mayer's free valence

  ATOM       NA         ZA         QA         VA         BVA        FA
  0 N      7.1011     7.0000    -0.1011     0.9910     0.9910    -0.0000
  1 H      0.9078     1.0000     0.0922     0.9523     0.9523     0.0000
  2 H      1.0828     1.0000    -0.0828     0.9931     0.9931    -0.0000
  3 H      0.9084     1.0000     0.0916     0.9524     0.9524    -0.0000

  Mayer bond orders larger than 0.1
B(  0-N ,  1-H ) :   0.4908 B(  0-N ,  3-H ) :   0.4998 B(  1-H ,  2-H ) :   0.5008 
B(  2-H ,  3-H ) :   0.4919 

-------
TIMINGS
-------

Total SCF time: 0 days 0 hours 2 min 41 sec 

Total time                  ....     161.106 sec
Sum of individual times     ....     156.942 sec  ( 97.4%)

Fock matrix formation       ....     156.525 sec  ( 97.2%)
  XC integration            ....      21.795 sec  ( 13.9% of F)
    Basis function eval.    ....       4.454 sec  ( 20.4% of XC)
    Density eval.           ....       0.924 sec  (  4.2% of XC)
    XC-Functional eval.     ....       6.356 sec  ( 29.2% of XC)
    XC-Potential eval.      ....       0.334 sec  (  1.5% of XC)
Diagonalization             ....       0.135 sec  (  0.1%)
Density matrix formation    ....       0.003 sec  (  0.0%)
Population analysis         ....       0.009 sec  (  0.0%)
Initial guess               ....       0.133 sec  (  0.1%)
Orbital Transformation      ....       0.000 sec  (  0.0%)
Orbital Orthonormalization  ....       0.000 sec  (  0.0%)
DIIS solution               ....       0.000 sec  (  0.0%)
Grid generation             ....       0.137 sec  (  0.1%)


-------------------------------------------------------------------------------
                          DFT DISPERSION CORRECTION                            
                                                                               
                              DFTD3 V3.1  Rev 1                                
                              USING zero damping                               
-------------------------------------------------------------------------------
The omegaB97X-D3 functional is recognized. Fit by Chai et al.
Active option DFTDOPT                   ...         3   

molecular C6(AA) [au] = 169.343854 


            DFT-D V3
 parameters
 s6 scaling factor         :     1.0000 
 rs6 scaling factor        :     1.2810 
 s8 scaling factor         :     1.0000 
 rs8 scaling factor        :     1.0940 
 Damping factor alpha6     :    14.0000 
 Damping factor alpha8     :    16.0000 
 ad hoc parameters k1-k3   :    16.0000     1.3333    -4.0000 

 Edisp/kcal,au: -0.249137520802  -0.000397025869 
 E6   /kcal   :  -0.160522613 
 E8   /kcal   :  -0.088614908 
 % E8         :  35.568672223 

-------------------------   ----------------
Dispersion correction           -0.000397026
-------------------------   ----------------


-------------------------   --------------------
FINAL SINGLE POINT ENERGY       -56.000984352088
-------------------------   --------------------


                            ***************************************
                            *     ORCA property calculations      *
                            ***************************************

                                    ---------------------
                                    Active property flags
                                    ---------------------
   (+) Dipole Moment


------------------------------------------------------------------------------
                       ORCA ELECTRIC PROPERTIES CALCULATION
------------------------------------------------------------------------------

Dipole Moment Calculation                       ... on
Quadrupole Moment Calculation                   ... off
Polarizability Calculation                      ... off
GBWName                                         ... Scan_32.gbw
Electron density file                           ... Scan_32.scfp.tmp

-------------
DIPOLE MOMENT
-------------
                                X             Y             Z
Electronic contribution:     -2.15054      -7.06482       1.85159
Nuclear contribution   :      2.33570       7.67561      -2.01212
                        -----------------------------------------
Total Dipole Moment    :      0.18515       0.61079      -0.16053
                        -----------------------------------------
Magnitude (a.u.)       :      0.65812
Magnitude (Debye)      :      1.67280


Timings for individual modules:

Sum of individual times         ...      161.552 sec (=   2.693 min)
GTO integral calculation        ...        0.422 sec (=   0.007 min)   0.3 %
SCF iterations                  ...      161.130 sec (=   2.685 min)  99.7 %
                             ****ORCA TERMINATED NORMALLY****
TOTAL RUN TIME: 0 days 0 hours 2 minutes 41 seconds 988 msec
