
                                 *****************
                                 * O   R   C   A *
                                 *****************

           --- An Ab Initio, DFT and Semiempirical electronic structure package ---

                  #######################################################
                  #                        -***-                        #
                  #  Department of molecular theory and spectroscopy    #
                  #              Directorship: Frank Neese              #
                  # Max Planck Institute for Chemical Energy Conversion #
                  #                  D-45470 Muelheim/Ruhr              #
                  #                       Germany                       #
                  #                                                     #
                  #                  All rights reserved                #
                  #                        -***-                        #
                  #######################################################


                         Program Version 4.0.0.2 - RELEASE -


 With contributions from (in alphabetic order):
   Daniel Aravena         : Magnetic Properties
   Michael Atanasov       : Ab Initio Ligand Field Theory
   Ute Becker             : Parallelization
   Martin Brehm           : Molecular dynamics
   Dmytro Bykov           : SCF Hessian
   Vijay G. Chilkuri      : MRCI spin determinant printing
   Dipayan Datta          : RHF DLPNO-CCSD density
   Achintya Kumar Dutta   : EOM-CC, STEOM-CC
   Dmitry Ganyushin       : Spin-Orbit,Spin-Spin,Magnetic field MRCI
   Yang Guo               : DLPNO-NEVPT2, CIM, IAO-localization
   Andreas Hansen         : Spin unrestricted coupled pair/coupled cluster methods
   Lee Huntington         : MR-EOM, pCC
   Robert Izsak           : Overlap fitted RIJCOSX, COSX-SCS-MP3, EOM
   Christian Kollmar      : KDIIS, OOCD, Brueckner-CCSD(T), CCSD density
   Simone Kossmann        : Meta GGA functionals, TD-DFT gradient, OOMP2, MP2 Hessian
   Martin Krupicka        : AUTO-CI
   Dagmar Lenk            : GEPOL surface
   Dimitrios Liakos       : Extrapolation schemes; parallel MDCI
   Dimitrios Manganas     : ROCIS; embedding schemes
   Dimitrios Pantazis     : SARC Basis sets
   Taras Petrenko         : DFT Hessian,TD-DFT gradient, ASA, ECA, R-Raman, ABS, FL, XAS/XES, NRVS
   Peter Pinski           : DLPNO-MP2
   Christoph Reimann      : Effective Core Potentials
   Marius Retegan         : Local ZFS, SOC
   Christoph Riplinger    : Optimizer, TS searches, QM/MM, DLPNO-CCSD(T), (RO)-DLPNO pert. Triples
   Tobias Risthaus        : Range-separated hybrids, TD-DFT gradient, RPA, STAB
   Michael Roemelt        : Restricted open shell CIS
   Masaaki Saitow         : Open-shell DLPNO
   Barbara Sandhoefer     : DKH picture change effects
   Kantharuban Sivalingam : CASSCF convergence, NEVPT2, FIC-MRCI
   Georgi Stoychev        : AutoAux
   Boris Wezisla          : Elementary symmetry handling
   Frank Wennmohs         : Technical directorship


 We gratefully acknowledge several colleagues who have allowed us to
 interface, adapt or use parts of their codes:
   Stefan Grimme, W. Hujo, H. Kruse,             : VdW corrections, initial TS optimization,
                  C. Bannwarth                     DFT functionals, gCP, sTDA/sTD-DF
   Ed Valeev                                     : LibInt (2-el integral package), F12 methods
   Garnet Chan, S. Sharma, J. Yang, R. Olivares  : DMRG
   Ulf Ekstrom                                   : XCFun DFT Library
   Mihaly Kallay                                 : mrcc  (arbitrary order and MRCC methods)
   Jiri Pittner, Ondrej Demel                    : Mk-CCSD
   Frank Weinhold                                : gennbo (NPA and NBO analysis)
   Christopher J. Cramer and Donald G. Truhlar   : smd solvation model


 Your calculation uses the libint2 library for the computation of 2-el integrals
 For citations please refer to: http://libint.valeyev.net

 This ORCA versions uses:
   CBLAS   interface :  Fast vector & matrix operations
   LAPACKE interface :  Fast linear algebra routines
   SCALAPACK package :  Parallel linear algebra routines


Your calculation utilizes the atom-pairwise dispersion correction
with the zero-damping scheme (D30)
Cite in your paper:
S.Grimme, J.Antony, S.Ehrlich and H.Krieg, J.Chem.Phys., 132, (2010), 154104 
   

XCFun DFT library Copyright 2009-2010 Ulf Ekstrom and contributors.
See http://admol.org/xcfun for more information. This is free soft-
ware; see the source code for copying conditions. There is ABSOLUTELY
NO WARRANTY; not even for MERCHANTABILITY or FITNESS FOR A PARTICULAR
PURPOSE. For details see the documentation. Scientific users of this 
library should cite U. Ekstrom, L. Visscher, R. Bast, A. J. Thorvald-
sen and K. Ruud; J.Chem.Theor.Comp. 2010, DOI: 10.1021/ct100117s
XCFun Version 0.99 
Your calculation utilizes the basis: 6-31G(d)
   H-He, Li-Ne : W. J. Hehre, R. Ditchfield and J.A. Pople, J. Chem. Phys. 56, 2257 (1972).
                 Note: He and Ne are unpublished basis sets taken from the Gaussian program.
                 Note: Li and B from J. D. Dill and J. A. Pople, J. Chem. Phys. 62, 2921 (1975).
   Na - Ar     : M. M. Francl, W. J. Pietro, W. J. Hehre, J. S. Binkley, M. S. Gordon, 
                 D. J. DeFrees and J. A. Pople, J. Chem. Phys. 77, 3654 (1982).
   K - Zn      : V. A. Rassolov, J. A. Pople, M. A. Ratner, and T. L. Windus, J. Chem. Phys. 109, 1223 (1998).

================================================================================
                                        WARNINGS
                       Please study these warnings very carefully!
================================================================================

Warning: TCutStore was < 0. Adjusted to Thresh (uncritical)

INFO   : the flag for use of LIBINT has been found!

================================================================================
                                       INPUT FILE
================================================================================
NAME = initial33.inp
|  1> ! WB97X-D3 6-31G(d) VerySlowConv
|  2> ! KDIIS NOSOSCF
|  3> %base "Scan_33"
|  4> 
|  5> %scf
|  6> maxiter 999
|  7> end
|  8> 
|  9> * xyz 0 1
| 10> N         -0.728908200404   -1.264868873690    0.634986781168
| 11> H          1.055506091127    1.732916019929   -0.811521448986
| 12> H          0.332900689308    2.227863096353   -0.282004168200
| 13> H         -0.457648580031    2.488309757408    0.313578836019
| 14> **                         ****END OF INPUT****
================================================================================

                       ****************************
                       * Single Point Calculation *
                       ****************************

---------------------------------
CARTESIAN COORDINATES (ANGSTROEM)
---------------------------------
  N     -0.728908   -1.264869    0.634987
  H      1.055506    1.732916   -0.811521
  H      0.332901    2.227863   -0.282004
  H     -0.457649    2.488310    0.313579

----------------------------
CARTESIAN COORDINATES (A.U.)
----------------------------
  NO LB      ZA    FRAG     MASS         X           Y           Z
   0 N     7.0000    0    14.007   -1.377437   -2.390256    1.199951
   1 H     1.0000    0     1.008    1.994617    3.274737   -1.533553
   2 H     1.0000    0     1.008    0.629091    4.210051   -0.532911
   3 H     1.0000    0     1.008   -0.864830    4.702224    0.592578

--------------------------------
INTERNAL COORDINATES (ANGSTROEM)
--------------------------------
 N      0   0   0     0.000000000000     0.00000000     0.00000000
 H      1   0   0     3.776669788601     0.00000000     0.00000000
 H      2   1   0     1.023484111186    81.49555121     0.00000000
 H      3   2   1     1.023484110977   165.80465011     1.27956552

---------------------------
INTERNAL COORDINATES (A.U.)
---------------------------
 N      0   0   0     0.000000000000     0.00000000     0.00000000
 H      1   0   0     7.136871598711     0.00000000     0.00000000
 H      2   1   0     1.934104672561    81.49555121     0.00000000
 H      3   2   1     1.934104672166   165.80465011     1.27956552

---------------------
BASIS SET INFORMATION
---------------------
There are 2 groups of distinct atoms

 Group   1 Type N   : 10s4p1d contracted to 3s2p1d pattern {631/31/1}
 Group   2 Type H   : 4s contracted to 2s pattern {31}

Atom   0N    basis set group =>   1
Atom   1H    basis set group =>   2
Atom   2H    basis set group =>   2
Atom   3H    basis set group =>   2
------------------------------------------------------------------------------
                           ORCA GTO INTEGRAL CALCULATION
------------------------------------------------------------------------------

                         BASIS SET STATISTICS AND STARTUP INFO

 # of primitive gaussian shells          ...   27
 # of primitive gaussian functions       ...   39
 # of contracted shells                  ...   12
 # of contracted basis functions         ...   20
 Highest angular momentum                ...    2
 Maximum contraction depth               ...    6
 Integral package used                   ... LIBINT
 Integral threshhold            Thresh   ...  1.000e-10
 Primitive cut-off              TCut     ...  1.000e-11


------------------------------ INTEGRAL EVALUATION ----------------------------


 * One electron integrals 
 Pre-screening matrix                    ... done
 Shell pair data                         ... done (   0.000 sec)

-------------------------------------------------------------------------------
                                 ORCA SCF
-------------------------------------------------------------------------------

------------
SCF SETTINGS
------------
Hamiltonian:
 Density Functional     Method          .... DFT(GTOs)
 Exchange Functional    Exchange        .... WB97X-D3
 Correlation Functional Correlation     .... WB97X-D3
 Gradients option       PostSCFGGA      .... off
 Hybrid DFT is turned on
   Fraction HF Exchange ScalHFX         ....  0.195728
   Scaling of DF-GGA-X  ScalDFX         ....  0.000000
   Scaling of DF-GGA-C  ScalDFC         ....  1.000000
   Scaling of DF-LDA-C  ScalLDAC        ....  1.000000
   Perturbative correction              ....  0.000000
 Long-range corrected/Screened/Range-Separated Hybrid DFT is turned on
   Amount of maximum screened exact exchange              ....  0.804272
   Range separation parameter mu (erf(mu*r12)/r12)        ....  0.250000


General Settings:
 Integral files         IntName         .... Scan_33
 Hartree-Fock type      HFTyp           .... RHF
 Total Charge           Charge          ....    0
 Multiplicity           Mult            ....    1
 Number of Electrons    NEL             ....   10
 Basis Dimension        Dim             ....   20
 Nuclear Repulsion      ENuc            ....      4.2403585368 Eh

Convergence Acceleration:
 DIIS                   CNVDIIS         .... on
   Start iteration      DIISMaxIt       ....     0
   Startup error        DIISStart       ....  0.200000
   # of expansion vecs  DIISMaxEq       ....     5
   Bias factor          DIISBfac        ....   1.050
   Max. coefficient     DIISMaxC        ....  10.000
 Newton-Raphson         CNVNR           .... off
 SOSCF                  CNVSOSCF        .... off
 Level Shifting         CNVShift        .... off
 Zerner damping         CNVZerner       .... off
 Static damping         CNVDamp         .... off
 Fernandez-Rico         CNVRico         .... off

SCF Procedure:
 Maximum # iterations   MaxIter         ....   999
 SCF integral mode      SCFMode         .... Direct
   Integral package                     .... LIBINT
 Reset frequeny         DirectResetFreq ....    20
 Integral Threshold     Thresh          ....  1.000e-10 Eh
 Primitive CutOff       TCut            ....  1.000e-11 Eh

Convergence Tolerance:
 Convergence Check Mode ConvCheckMode   .... All-Criteria
 Convergence forced     ConvForced      .... 0
 Energy Change          TolE            ....  1.000e-06 Eh
 Max Density Change     TolMaxP         ....  1.000e-05
 RMS Density Change     TolRMSP         ....  1.000e-06
 DIIS Error             TolErr          ....  1.000e-06


Diagonalization of the overlap matrix:
Smallest eigenvalue                        ... 6.332e-02
Time for diagonalization                   ...    0.000 sec
Threshold for overlap eigenvalues          ... 1.000e-08
Number of eigenvalues below threshold      ... 0
Time for construction of square roots      ...    0.005 sec
Total time needed                          ...    0.005 sec

-------------------
DFT GRID GENERATION
-------------------

General Integration Accuracy     IntAcc      ...  4.340
Radial Grid Type                 RadialGrid  ... Gauss-Chebyshev
Angular Grid (max. acc.)         AngularGrid ... Lebedev-110
Angular grid pruning method      GridPruning ... 3 (G Style)
Weight generation scheme         WeightScheme... Becke
Basis function cutoff            BFCut       ...    1.0000e-10
Integration weight cutoff        WCut        ...    1.0000e-14
Grids for H and He will be reduced by one unit

# of grid points (after initial pruning)     ...   4084 (   0.0 sec)
# of grid points (after weights+screening)   ...   4055 (   0.0 sec)
nearest neighbour list constructed           ...    0.0 sec
Grid point re-assignment to atoms done       ...    0.0 sec
Grid point division into batches done        ...    0.0 sec
Reduced shell lists constructed in    0.0 sec

Total number of grid points                  ...     4055
Total number of batches                      ...       65
Average number of points per batch           ...       62
Average number of grid points per atom       ...     1014
Average number of shells per batch           ...     9.05 (75.38%)
Average number of basis functions per batch  ...    14.56 (72.80%)
Average number of large shells per batch     ...     8.21 (90.79%)
Average number of large basis fcns per batch ...    13.18 (90.53%)
Maximum spatial batch extension              ...  25.65, 16.94, 25.65 au
Average spatial batch extension              ...   5.67,  5.51,  6.28 au

Time for grid setup =    0.021 sec

------------------------------
INITIAL GUESS: MODEL POTENTIAL
------------------------------
Loading Hartree-Fock densities                     ... done
Calculating cut-offs                               ... done
Setting up the integral package                    ... done
Initializing the effective Hamiltonian             ... done
Starting the Coulomb interaction                   ... done (   0.0 sec)
Reading the grid                                   ... done
Mapping shells                                     ... done
Starting the XC term evaluation                    ... done (   0.0 sec)
  promolecular density results
     # of electrons  =      9.996328300
     EX              =     -7.181426718
     EC              =     -0.262802658
     EX+EC           =     -7.444229376
Transforming the Hamiltonian                       ... done (   0.0 sec)
Diagonalizing the Hamiltonian                      ... done (   0.0 sec)
Back transforming the eigenvectors                 ... done (   0.0 sec)
Now organizing SCF variables                       ... done
                      ------------------
                      INITIAL GUESS DONE (   0.1 sec)
                      ------------------
--------------
SCF ITERATIONS
--------------
ITER       Energy         Delta-E        Max-DP      RMS-DP      [F,P]   Gradient Norm
               ***  Starting incremental Fock matrix formation  ***
                             ****Resetting KDIIS****
                             ****Turning on KDIIS(Cayley)****
  0    -55.7511627852   0.000000000000 0.03770889  0.00399236  0.1474464   0.115374917
  1    -55.7747255785  -0.023562793259 0.05243549  0.00625723  0.1225507   0.097019210
  2    -55.8071773987  -0.032451820286 0.09538329  0.01468061  0.0857758   0.072431206
  3    -55.8830361824  -0.075858783680 0.14988970  0.01550271  0.0940824   0.045820584
  4    -55.8584547265   0.024581455867 0.31497166  0.05612294  0.0696373   0.044419328
  5    -55.9211490269  -0.062694300330 0.18943845  0.03206752  0.1317449   0.098109889
  6    -55.9579887906  -0.036839763768 0.18686211  0.02304363  0.0852404   0.040789897
  7    -55.9963665428  -0.038377752120 0.07975389  0.00838166  0.0133908   0.009311918
  8    -55.9961422309   0.000224311881 0.06417748  0.00721658  0.0198688   0.009251725
  9    -55.9969629273  -0.000820696394 0.02004469  0.00229401  0.0134519   0.006087733
 10    -55.9977468959  -0.000783968615 0.00244470  0.00028372  0.0040744   0.001846615
 11    -55.9977866928  -0.000039796886 0.00456808  0.00056602  0.0026691   0.001209699
 12    -55.9978197386  -0.000033045780 0.00105487  0.00012246  0.0002928   0.000156534
 13    -55.9978219290  -0.000002190485 0.00311022  0.00035076  0.0002905   0.000154076
 14    -55.9978281178  -0.000006188753 0.03162700  0.00353942  0.0002804   0.000152397
 15    -55.9978815761  -0.000053458280 0.01150156  0.00134543  0.0006786   0.000413012
 16    -55.9978999701  -0.000018393990 0.02277639  0.00264865  0.0004381   0.000270829
 17    -55.9979284663  -0.000028496221 0.00163569  0.00023368  0.0004918   0.000313953
 18    -55.9979268378   0.000001628534 0.00441055  0.00050055  0.0008786   0.000537263
 19    -55.9979201626   0.000006675138 0.00482687  0.00055088  0.0011248   0.000681560
               *** Restarting incremental Fock matrix formation ***
                             ****Resetting KDIIS****
 20    -55.9979283194  -0.000008156776 0.00006815  0.00001110  0.0002879   0.000195931
                          ***Energy convergence achieved***
 21    -55.9979285194  -0.000000200007 0.00011470  0.00001663  0.0002156   0.000156738
 22    -55.9979287615  -0.000000242063 0.00040057  0.00005254  0.0001798   0.000141434
 23    -55.9979294494  -0.000000687938 0.00047719  0.00006547  0.0001783   0.000117099
Warning: badly conditioned DIIS matrix, 1 vectors out of 5 destroyed
 24    -55.9979302564  -0.000000806988 0.00916743  0.00100789  0.0001790   0.000100888
Warning: badly conditioned DIIS matrix, 1 vectors out of 5 destroyed
 25    -55.9979184291   0.000011827273 0.01485575  0.00164051  0.0001740   0.000099908
Warning: badly conditioned DIIS matrix, 1 vectors out of 5 destroyed
 26    -55.9978995879   0.000018841169 0.00885685  0.00099685  0.0001624   0.000099827
 27    -55.9978885679   0.000011020066 0.00593427  0.00066017  0.0001526   0.000099551
 28    -55.9978943263  -0.000005758470 0.00854049  0.00097769  0.0004431   0.000368377
 29    -55.9979038596  -0.000009533278 0.02982795  0.00370506  0.0006610   0.000517317
 30    -55.9978701897   0.000033669959 0.04534208  0.00645906  0.0001619   0.000134165
 31    -55.9978320044   0.000038185229 0.03567949  0.00449335  0.0011944   0.000730837
 32    -55.9978578556  -0.000025851146 0.02424965  0.00315372  0.0007540   0.000470142
 33    -55.9978801157  -0.000022260118 0.00943315  0.00121767  0.0001288   0.000087828
 34    -55.9978699265   0.000010189203 0.06368407  0.00827854  0.0002675   0.000169738
 35    -55.9978259362   0.000043990328 0.01869148  0.00260600  0.0017154   0.001126980
 36    -55.9978220748   0.000003861325 0.00909732  0.00113655  0.0023444   0.001470974
 37    -55.9978271042  -0.000005029376 0.05713814  0.00669290  0.0021415   0.001300271
 38    -55.9978358631  -0.000008758910 0.02146318  0.00326139  0.0011141   0.000698537
 39    -55.9978616093  -0.000025746201 0.01558862  0.00208555  0.0002319   0.000159118
               *** Restarting incremental Fock matrix formation ***
                             ****Resetting KDIIS****
 40    -55.9978541185   0.000007490832 0.00022849  0.00002823  0.0007714   0.000483501
 41    -55.9978552114  -0.000001092873 0.00012743  0.00002082  0.0005668   0.000347980
                          ***Energy convergence achieved***
 42    -55.9978557768  -0.000000565420 0.00038665  0.00005676  0.0004659   0.000292295
 43    -55.9978568836  -0.000001106758 0.00198221  0.00027651  0.0002717   0.000186438
 44    -55.9978601610  -0.000003277477 0.01932483  0.00282249  0.0001470   0.000086476
 45    -55.9978869736  -0.000026812544 0.00793674  0.00120762  0.0001456   0.000115920
 46    -55.9978966444  -0.000009670798 0.00036637  0.00005539  0.0001198   0.000102310
                          ***Energy convergence achieved***
 47    -55.9978971237  -0.000000479289 0.00056845  0.00008229  0.0001204   0.000087627
 48    -55.9978969695   0.000000154205 0.00310591  0.00045964  0.0001199   0.000078358
 49    -55.9978931422   0.000003827244 0.00879005  0.00120021  0.0001152   0.000078572
 50    -55.9978828214   0.000010320833 0.01616441  0.00230998  0.0001171   0.000077545
 51    -55.9978650071   0.000017814249 0.00237540  0.00035081  0.0002755   0.000178831
 52    -55.9978629633   0.000002043831 0.01386204  0.00181717  0.0002161   0.000146168
 53    -55.9978568057   0.000006157589 0.01582429  0.00220339  0.0007866   0.000464085
 54    -55.9978232998   0.000033505937 0.01016537  0.00143960  0.0026576   0.001603087
 55    -55.9978547377  -0.000031437961 0.00316585  0.00053718  0.0001928   0.000126521
 56    -55.9978575149  -0.000002777214 0.00282760  0.00037336  0.0001336   0.000095529
 57    -55.9978562768   0.000001238149 0.00128233  0.00017742  0.0001067   0.000074711
                          ***Energy convergence achieved***
 58    -55.9978560035   0.000000273322 0.00917507  0.00115438  0.0001077   0.000075507
 59    -55.9978540749   0.000001928600 0.00872846  0.00108374  0.0001059   0.000058039
               *** Restarting incremental Fock matrix formation ***
                             ****Resetting KDIIS****
 60    -55.9978597603  -0.000005685453 0.00001789  0.00000272  0.0000941   0.000045048
                          ***Energy convergence achieved***
 61    -55.9978597752  -0.000000014896 0.00006197  0.00000941  0.0000941   0.000044680
 62    -55.9978598266  -0.000000051332 0.00021626  0.00003275  0.0000940   0.000044210
 63    -55.9978600049  -0.000000178391 0.00319032  0.00048370  0.0000938   0.000043573
 64    -55.9978625975  -0.000002592556 0.01200435  0.00183338  0.0000906   0.000043074
 65    -55.9978717451  -0.000009147588 0.00007378  0.00001076  0.0001904   0.000124141
                          ***Energy convergence achieved***
 66    -55.9978718177  -0.000000072645 0.00219572  0.00030757  0.0001223   0.000087049
 67    -55.9978695525   0.000002265221 0.00163652  0.00018598  0.0004700   0.000287416
                          ***Energy convergence achieved***
 68    -55.9978702698  -0.000000717238 0.00174300  0.00022194  0.0002938   0.000172752
 69    -55.9978698317   0.000000438027 0.01276563  0.00131696  0.0002145   0.000127836
 70    -55.9978702773  -0.000000445566 0.00649540  0.00079154  0.0000586   0.000039075
 71    -55.9978678698   0.000002407446 0.00242503  0.00031701  0.0000516   0.000040257
                          ***Energy convergence achieved***
 72    -55.9978669284   0.000000941485 0.00119308  0.00016688  0.0000560   0.000044979
 73    -55.9978665706   0.000000357741 0.00241766  0.00034523  0.0000521   0.000034680
 74    -55.9978663714   0.000000199261 0.00361187  0.00048409  0.0000538   0.000032219
 75    -55.9978657386   0.000000632722 0.00156860  0.00023727  0.0000575   0.000031263
 76    -55.9978657611  -0.000000022486 0.00211790  0.00025651  0.0000590   0.000030111
 77    -55.9978663229  -0.000000561785 0.00013277  0.00001737  0.0000601   0.000029953
 78    -55.9978663873  -0.000000064359 0.00036671  0.00004871  0.0000604   0.000029196
 79    -55.9978664509  -0.000000063592 0.00150605  0.00021329  0.0000605   0.000029132
               *** Restarting incremental Fock matrix formation ***
                             ****Resetting KDIIS****

            ***Energy convergence in two consecutive cycles with***
                    ***'reasonable' density convergence***
                       *** signaling convergence ***

                    *** KDIIS BlockDiag ( 0.000 sec) ***

               *****************************************************
               *                     SUCCESS                       *
               *           SCF CONVERGED AFTER  80 CYCLES          *
               *****************************************************

Setting up the final grid:

General Integration Accuracy     IntAcc      ...  4.670
Radial Grid Type                 RadialGrid  ... Gauss-Chebyshev
Angular Grid (max. acc.)         AngularGrid ... Lebedev-302
Angular grid pruning method      GridPruning ... 3 (G Style)
Weight generation scheme         WeightScheme... Becke
Basis function cutoff            BFCut       ...    1.0000e-10
Integration weight cutoff        WCut        ...    1.0000e-14
Grids for H and He will be reduced by one unit

# of grid points (after initial pruning)     ...  16394 (   0.0 sec)
# of grid points (after weights+screening)   ...  16279 (   0.0 sec)
nearest neighbour list constructed           ...    0.0 sec
Grid point re-assignment to atoms done       ...    0.0 sec
Grid point division into batches done        ...    0.0 sec
Reduced shell lists constructed in    0.1 sec

Total number of grid points                  ...    16279
Total number of batches                      ...      256
Average number of points per batch           ...       63
Average number of grid points per atom       ...     4070
Average number of shells per batch           ...     8.12 (67.70%)
Average number of basis functions per batch  ...    12.64 (63.19%)
Average number of large shells per batch     ...     7.15 (87.98%)
Average number of large basis fcns per batch ...    11.02 (87.22%)
Maximum spatial batch extension              ...  21.92, 23.56, 16.92 au
Average spatial batch extension              ...   3.39,  3.49,  3.42 au

Final grid set up in    0.1 sec
Final integration                            ... done (   0.1 sec)
Change in XC energy                          ...    -0.000104835
Integrated number of electrons               ...    10.000003395
Previous integrated no of electrons          ...     9.997927286

----------------
TOTAL SCF ENERGY
----------------

Total Energy       :          -55.99797142 Eh           -1523.78227 eV

Components:
Nuclear Repulsion  :            4.24035854 Eh             115.38602 eV
Electronic Energy  :          -60.23832996 Eh           -1639.16829 eV
One Electron Energy:          -83.91634849 Eh           -2283.47993 eV
Two Electron Energy:           23.67801853 Eh             644.31164 eV

Virial components:
Potential Energy   :         -111.52772139 Eh           -3034.82359 eV
Kinetic Energy     :           55.52974997 Eh            1511.04132 eV
Virial Ratio       :            2.00843190


DFT components:
N(Alpha)           :        5.000001697576 electrons
N(Beta)            :        5.000001697576 electrons
N(Total)           :       10.000003395152 electrons
E(XC)              :       -5.118216169889 Eh       

---------------
SCF CONVERGENCE
---------------

  Last Energy change         ...   -1.3468e-07  Tolerance :   1.0000e-06
  Last MAX-Density change    ...    1.2332e-05  Tolerance :   1.0000e-05
  Last RMS-Density change    ...    1.7662e-06  Tolerance :   1.0000e-06
  Last DIIS Error            ...    6.0746e-05  Tolerance :   1.0000e-06

             **** THE GBW FILE WAS UPDATED (Scan_33.gbw) ****
             **** DENSITY FILE WAS UPDATED (Scan_33.scfp.tmp) ****
             **** ENERGY FILE WAS UPDATED (Scan_33.en.tmp) ****
----------------
ORBITAL ENERGIES
----------------

  NO   OCC          E(Eh)            E(eV) 
   0   2.0000     -14.541552      -395.6958 
   1   2.0000      -0.806651       -21.9501 
   2   2.0000      -0.589469       -16.0403 
   3   2.0000      -0.342406        -9.3173 
   4   2.0000      -0.288304        -7.8452 
   5   0.0000      -0.148241        -4.0338 
   6   0.0000      -0.069378        -1.8879 
   7   0.0000       0.195701         5.3253 
   8   0.0000       0.745476        20.2854 
   9   0.0000       0.790089        21.4994 
  10   0.0000       0.800276        21.7766 
  11   0.0000       0.829431        22.5700 
  12   0.0000       0.878874        23.9154 
  13   0.0000       0.885594        24.0982 
  14   0.0000       1.033968        28.1357 
  15   0.0000       1.806196        49.1491 
  16   0.0000       1.808220        49.2042 
  17   0.0000       1.822763        49.5999 
  18   0.0000       1.843093        50.1531 
  19   0.0000       1.848206        50.2922 

                    ********************************
                    * MULLIKEN POPULATION ANALYSIS *
                    ********************************

-----------------------
MULLIKEN ATOMIC CHARGES
-----------------------
   0 N :   -0.100791
   1 H :    0.091869
   2 H :   -0.082869
   3 H :    0.091791
Sum of atomic charges:   -0.0000000

--------------------------------
MULLIKEN REDUCED ORBITAL CHARGES
--------------------------------
  0 N s       :     3.999809  s :     3.999809
      pz      :     1.738107  p :     3.100798
      px      :     1.183872
      py      :     0.178819
      dz2     :     0.000066  d :     0.000184
      dxz     :     0.000040
      dyz     :     0.000016
      dx2y2   :     0.000032
      dxy     :     0.000030
  1 H s       :     0.908131  s :     0.908131
  2 H s       :     1.082869  s :     1.082869
  3 H s       :     0.908209  s :     0.908209


                     *******************************
                     * LOEWDIN POPULATION ANALYSIS *
                     *******************************

----------------------
LOEWDIN ATOMIC CHARGES
----------------------
   0 N :   -0.101595
   1 H :    0.047649
   2 H :    0.007293
   3 H :    0.046653

-------------------------------
LOEWDIN REDUCED ORBITAL CHARGES
-------------------------------
  0 N s       :     3.999781  s :     3.999781
      pz      :     1.738359  p :     3.101629
      px      :     1.184377
      py      :     0.178893
      dz2     :     0.000066  d :     0.000185
      dxz     :     0.000040
      dyz     :     0.000016
      dx2y2   :     0.000032
      dxy     :     0.000031
  1 H s       :     0.952351  s :     0.952351
  2 H s       :     0.992707  s :     0.992707
  3 H s       :     0.953347  s :     0.953347


                      *****************************
                      * MAYER POPULATION ANALYSIS *
                      *****************************

  NA   - Mulliken gross atomic population
  ZA   - Total nuclear charge
  QA   - Mulliken gross atomic charge
  VA   - Mayer's total valence
  BVA  - Mayer's bonded valence
  FA   - Mayer's free valence

  ATOM       NA         ZA         QA         VA         BVA        FA
  0 N      7.1008     7.0000    -0.1008     0.9908     0.9908    -0.0000
  1 H      0.9081     1.0000     0.0919     0.9522     0.9522    -0.0000
  2 H      1.0829     1.0000    -0.0829     0.9931     0.9931    -0.0000
  3 H      0.9082     1.0000     0.0918     0.9522     0.9522    -0.0000

  Mayer bond orders larger than 0.1
B(  0-N ,  1-H ) :   0.4983 B(  0-N ,  3-H ) :   0.4921 B(  1-H ,  2-H ) :   0.4933 
B(  2-H ,  3-H ) :   0.4994 

-------
TIMINGS
-------

Total SCF time: 0 days 0 hours 0 min 20 sec 

Total time                  ....      20.046 sec
Sum of individual times     ....      19.395 sec  ( 96.7%)

Fock matrix formation       ....      19.131 sec  ( 95.4%)
  XC integration            ....       3.451 sec  ( 18.0% of F)
    Basis function eval.    ....       0.724 sec  ( 21.0% of XC)
    Density eval.           ....       0.144 sec  (  4.2% of XC)
    XC-Functional eval.     ....       1.059 sec  ( 30.7% of XC)
    XC-Potential eval.      ....       0.056 sec  (  1.6% of XC)
Diagonalization             ....       0.020 sec  (  0.1%)
Density matrix formation    ....       0.000 sec  (  0.0%)
Population analysis         ....       0.009 sec  (  0.0%)
Initial guess               ....       0.106 sec  (  0.5%)
Orbital Transformation      ....       0.000 sec  (  0.0%)
Orbital Orthonormalization  ....       0.000 sec  (  0.0%)
DIIS solution               ....       0.000 sec  (  0.0%)
Grid generation             ....       0.128 sec  (  0.6%)


-------------------------------------------------------------------------------
                          DFT DISPERSION CORRECTION                            
                                                                               
                              DFTD3 V3.1  Rev 1                                
                              USING zero damping                               
-------------------------------------------------------------------------------
The omegaB97X-D3 functional is recognized. Fit by Chai et al.
Active option DFTDOPT                   ...         3   

molecular C6(AA) [au] = 169.361941 


            DFT-D V3
 parameters
 s6 scaling factor         :     1.0000 
 rs6 scaling factor        :     1.2810 
 s8 scaling factor         :     1.0000 
 rs8 scaling factor        :     1.0940 
 Damping factor alpha6     :    14.0000 
 Damping factor alpha8     :    16.0000 
 ad hoc parameters k1-k3   :    16.0000     1.3333    -4.0000 

 Edisp/kcal,au: -0.224923118101  -0.000358437766 
 E6   /kcal   :  -0.150350285 
 E8   /kcal   :  -0.074572833 
 % E8         :  33.154810159 

-------------------------   ----------------
Dispersion correction           -0.000358438
-------------------------   ----------------


-------------------------   --------------------
FINAL SINGLE POINT ENERGY       -55.998329858043
-------------------------   --------------------


                            ***************************************
                            *     ORCA property calculations      *
                            ***************************************

                                    ---------------------
                                    Active property flags
                                    ---------------------
   (+) Dipole Moment


------------------------------------------------------------------------------
                       ORCA ELECTRIC PROPERTIES CALCULATION
------------------------------------------------------------------------------

Dipole Moment Calculation                       ... on
Quadrupole Moment Calculation                   ... off
Polarizability Calculation                      ... off
GBWName                                         ... Scan_33.gbw
Electron density file                           ... Scan_33.scfp.tmp

-------------
DIPOLE MOMENT
-------------
                                X             Y             Z
Electronic contribution:     -2.21262      -7.27420       1.90601
Nuclear contribution   :      2.40442       7.90065      -2.07079
                        -----------------------------------------
Total Dipole Moment    :      0.19180       0.62645      -0.16477
                        -----------------------------------------
Magnitude (a.u.)       :      0.67555
Magnitude (Debye)      :      1.71712


Timings for individual modules:

Sum of individual times         ...       20.363 sec (=   0.339 min)
GTO integral calculation        ...        0.295 sec (=   0.005 min)   1.4 %
SCF iterations                  ...       20.069 sec (=   0.334 min)  98.6 %
                             ****ORCA TERMINATED NORMALLY****
TOTAL RUN TIME: 0 days 0 hours 0 minutes 20 seconds 686 msec
