
                                 *****************
                                 * O   R   C   A *
                                 *****************

           --- An Ab Initio, DFT and Semiempirical electronic structure package ---

                  #######################################################
                  #                        -***-                        #
                  #  Department of molecular theory and spectroscopy    #
                  #              Directorship: Frank Neese              #
                  # Max Planck Institute for Chemical Energy Conversion #
                  #                  D-45470 Muelheim/Ruhr              #
                  #                       Germany                       #
                  #                                                     #
                  #                  All rights reserved                #
                  #                        -***-                        #
                  #######################################################


                         Program Version 4.0.0.2 - RELEASE -


 With contributions from (in alphabetic order):
   Daniel Aravena         : Magnetic Properties
   Michael Atanasov       : Ab Initio Ligand Field Theory
   Ute Becker             : Parallelization
   Martin Brehm           : Molecular dynamics
   Dmytro Bykov           : SCF Hessian
   Vijay G. Chilkuri      : MRCI spin determinant printing
   Dipayan Datta          : RHF DLPNO-CCSD density
   Achintya Kumar Dutta   : EOM-CC, STEOM-CC
   Dmitry Ganyushin       : Spin-Orbit,Spin-Spin,Magnetic field MRCI
   Yang Guo               : DLPNO-NEVPT2, CIM, IAO-localization
   Andreas Hansen         : Spin unrestricted coupled pair/coupled cluster methods
   Lee Huntington         : MR-EOM, pCC
   Robert Izsak           : Overlap fitted RIJCOSX, COSX-SCS-MP3, EOM
   Christian Kollmar      : KDIIS, OOCD, Brueckner-CCSD(T), CCSD density
   Simone Kossmann        : Meta GGA functionals, TD-DFT gradient, OOMP2, MP2 Hessian
   Martin Krupicka        : AUTO-CI
   Dagmar Lenk            : GEPOL surface
   Dimitrios Liakos       : Extrapolation schemes; parallel MDCI
   Dimitrios Manganas     : ROCIS; embedding schemes
   Dimitrios Pantazis     : SARC Basis sets
   Taras Petrenko         : DFT Hessian,TD-DFT gradient, ASA, ECA, R-Raman, ABS, FL, XAS/XES, NRVS
   Peter Pinski           : DLPNO-MP2
   Christoph Reimann      : Effective Core Potentials
   Marius Retegan         : Local ZFS, SOC
   Christoph Riplinger    : Optimizer, TS searches, QM/MM, DLPNO-CCSD(T), (RO)-DLPNO pert. Triples
   Tobias Risthaus        : Range-separated hybrids, TD-DFT gradient, RPA, STAB
   Michael Roemelt        : Restricted open shell CIS
   Masaaki Saitow         : Open-shell DLPNO
   Barbara Sandhoefer     : DKH picture change effects
   Kantharuban Sivalingam : CASSCF convergence, NEVPT2, FIC-MRCI
   Georgi Stoychev        : AutoAux
   Boris Wezisla          : Elementary symmetry handling
   Frank Wennmohs         : Technical directorship


 We gratefully acknowledge several colleagues who have allowed us to
 interface, adapt or use parts of their codes:
   Stefan Grimme, W. Hujo, H. Kruse,             : VdW corrections, initial TS optimization,
                  C. Bannwarth                     DFT functionals, gCP, sTDA/sTD-DF
   Ed Valeev                                     : LibInt (2-el integral package), F12 methods
   Garnet Chan, S. Sharma, J. Yang, R. Olivares  : DMRG
   Ulf Ekstrom                                   : XCFun DFT Library
   Mihaly Kallay                                 : mrcc  (arbitrary order and MRCC methods)
   Jiri Pittner, Ondrej Demel                    : Mk-CCSD
   Frank Weinhold                                : gennbo (NPA and NBO analysis)
   Christopher J. Cramer and Donald G. Truhlar   : smd solvation model


 Your calculation uses the libint2 library for the computation of 2-el integrals
 For citations please refer to: http://libint.valeyev.net

 This ORCA versions uses:
   CBLAS   interface :  Fast vector & matrix operations
   LAPACKE interface :  Fast linear algebra routines
   SCALAPACK package :  Parallel linear algebra routines


Your calculation utilizes the atom-pairwise dispersion correction
with the zero-damping scheme (D30)
Cite in your paper:
S.Grimme, J.Antony, S.Ehrlich and H.Krieg, J.Chem.Phys., 132, (2010), 154104 
   

XCFun DFT library Copyright 2009-2010 Ulf Ekstrom and contributors.
See http://admol.org/xcfun for more information. This is free soft-
ware; see the source code for copying conditions. There is ABSOLUTELY
NO WARRANTY; not even for MERCHANTABILITY or FITNESS FOR A PARTICULAR
PURPOSE. For details see the documentation. Scientific users of this 
library should cite U. Ekstrom, L. Visscher, R. Bast, A. J. Thorvald-
sen and K. Ruud; J.Chem.Theor.Comp. 2010, DOI: 10.1021/ct100117s
XCFun Version 0.99 
Your calculation utilizes the basis: 6-31G(d)
   H-He, Li-Ne : W. J. Hehre, R. Ditchfield and J.A. Pople, J. Chem. Phys. 56, 2257 (1972).
                 Note: He and Ne are unpublished basis sets taken from the Gaussian program.
                 Note: Li and B from J. D. Dill and J. A. Pople, J. Chem. Phys. 62, 2921 (1975).
   Na - Ar     : M. M. Francl, W. J. Pietro, W. J. Hehre, J. S. Binkley, M. S. Gordon, 
                 D. J. DeFrees and J. A. Pople, J. Chem. Phys. 77, 3654 (1982).
   K - Zn      : V. A. Rassolov, J. A. Pople, M. A. Ratner, and T. L. Windus, J. Chem. Phys. 109, 1223 (1998).

================================================================================
                                        WARNINGS
                       Please study these warnings very carefully!
================================================================================

Warning: TCutStore was < 0. Adjusted to Thresh (uncritical)

INFO   : the flag for use of LIBINT has been found!

================================================================================
                                       INPUT FILE
================================================================================
NAME = initial35.inp
|  1> ! WB97X-D3 6-31G(d) VerySlowConv
|  2> ! KDIIS NOSOSCF
|  3> %base "Scan_35"
|  4> 
|  5> %scf
|  6> maxiter 999
|  7> end
|  8> 
|  9> * xyz 0 1
| 10> N         -0.773219876162   -1.410600261357    0.673235956825
| 11> H          1.070597458963    1.783396082843   -0.825770359824
| 12> H          0.347568500818    2.272365343716   -0.292156197933
| 13> H         -0.443096083620    2.539058834798    0.299730600931
| 14> **                         ****END OF INPUT****
================================================================================

                       ****************************
                       * Single Point Calculation *
                       ****************************

---------------------------------
CARTESIAN COORDINATES (ANGSTROEM)
---------------------------------
  N     -0.773220   -1.410600    0.673236
  H      1.070597    1.783396   -0.825770
  H      0.347569    2.272365   -0.292156
  H     -0.443096    2.539059    0.299731

----------------------------
CARTESIAN COORDINATES (A.U.)
----------------------------
  NO LB      ZA    FRAG     MASS         X           Y           Z
   0 N     7.0000    0    14.007   -1.461174   -2.665648    1.272232
   1 H     1.0000    0     1.008    2.023136    3.370130   -1.560480
   2 H     1.0000    0     1.008    0.656809    4.294148   -0.552095
   3 H     1.0000    0     1.008   -0.837330    4.798126    0.566409

--------------------------------
INTERNAL COORDINATES (ANGSTROEM)
--------------------------------
 N      0   0   0     0.000000000000     0.00000000     0.00000000
 H      1   0   0     3.980991704265     0.00000000     0.00000000
 H      2   1   0     1.023037578081    81.93681263     0.00000000
 H      3   2   1     1.023037577970   166.55390272     0.00000000

---------------------------
INTERNAL COORDINATES (A.U.)
---------------------------
 N      0   0   0     0.000000000000     0.00000000     0.00000000
 H      1   0   0     7.522984062473     0.00000000     0.00000000
 H      2   1   0     1.933260847283    81.93681263     0.00000000
 H      3   2   1     1.933260847074   166.55390272     0.00000000

---------------------
BASIS SET INFORMATION
---------------------
There are 2 groups of distinct atoms

 Group   1 Type N   : 10s4p1d contracted to 3s2p1d pattern {631/31/1}
 Group   2 Type H   : 4s contracted to 2s pattern {31}

Atom   0N    basis set group =>   1
Atom   1H    basis set group =>   2
Atom   2H    basis set group =>   2
Atom   3H    basis set group =>   2
------------------------------------------------------------------------------
                           ORCA GTO INTEGRAL CALCULATION
------------------------------------------------------------------------------

                         BASIS SET STATISTICS AND STARTUP INFO

 # of primitive gaussian shells          ...   27
 # of primitive gaussian functions       ...   39
 # of contracted shells                  ...   12
 # of contracted basis functions         ...   20
 Highest angular momentum                ...    2
 Maximum contraction depth               ...    6
 Integral package used                   ... LIBINT
 Integral threshhold            Thresh   ...  1.000e-10
 Primitive cut-off              TCut     ...  1.000e-11


------------------------------ INTEGRAL EVALUATION ----------------------------


 * One electron integrals 
 Pre-screening matrix                    ... done
 Shell pair data                         ... done (   0.000 sec)

-------------------------------------------------------------------------------
                                 ORCA SCF
-------------------------------------------------------------------------------

------------
SCF SETTINGS
------------
Hamiltonian:
 Density Functional     Method          .... DFT(GTOs)
 Exchange Functional    Exchange        .... WB97X-D3
 Correlation Functional Correlation     .... WB97X-D3
 Gradients option       PostSCFGGA      .... off
 Hybrid DFT is turned on
   Fraction HF Exchange ScalHFX         ....  0.195728
   Scaling of DF-GGA-X  ScalDFX         ....  0.000000
   Scaling of DF-GGA-C  ScalDFC         ....  1.000000
   Scaling of DF-LDA-C  ScalLDAC        ....  1.000000
   Perturbative correction              ....  0.000000
 Long-range corrected/Screened/Range-Separated Hybrid DFT is turned on
   Amount of maximum screened exact exchange              ....  0.804272
   Range separation parameter mu (erf(mu*r12)/r12)        ....  0.250000


General Settings:
 Integral files         IntName         .... Scan_35
 Hartree-Fock type      HFTyp           .... RHF
 Total Charge           Charge          ....    0
 Multiplicity           Mult            ....    1
 Number of Electrons    NEL             ....   10
 Basis Dimension        Dim             ....   20
 Nuclear Repulsion      ENuc            ....      4.0892165708 Eh

Convergence Acceleration:
 DIIS                   CNVDIIS         .... on
   Start iteration      DIISMaxIt       ....     0
   Startup error        DIISStart       ....  0.200000
   # of expansion vecs  DIISMaxEq       ....     5
   Bias factor          DIISBfac        ....   1.050
   Max. coefficient     DIISMaxC        ....  10.000
 Newton-Raphson         CNVNR           .... off
 SOSCF                  CNVSOSCF        .... off
 Level Shifting         CNVShift        .... off
 Zerner damping         CNVZerner       .... off
 Static damping         CNVDamp         .... off
 Fernandez-Rico         CNVRico         .... off

SCF Procedure:
 Maximum # iterations   MaxIter         ....   999
 SCF integral mode      SCFMode         .... Direct
   Integral package                     .... LIBINT
 Reset frequeny         DirectResetFreq ....    20
 Integral Threshold     Thresh          ....  1.000e-10 Eh
 Primitive CutOff       TCut            ....  1.000e-11 Eh

Convergence Tolerance:
 Convergence Check Mode ConvCheckMode   .... All-Criteria
 Convergence forced     ConvForced      .... 0
 Energy Change          TolE            ....  1.000e-06 Eh
 Max Density Change     TolMaxP         ....  1.000e-05
 RMS Density Change     TolRMSP         ....  1.000e-06
 DIIS Error             TolErr          ....  1.000e-06


Diagonalization of the overlap matrix:
Smallest eigenvalue                        ... 6.306e-02
Time for diagonalization                   ...    0.000 sec
Threshold for overlap eigenvalues          ... 1.000e-08
Number of eigenvalues below threshold      ... 0
Time for construction of square roots      ...    0.004 sec
Total time needed                          ...    0.004 sec

-------------------
DFT GRID GENERATION
-------------------

General Integration Accuracy     IntAcc      ...  4.340
Radial Grid Type                 RadialGrid  ... Gauss-Chebyshev
Angular Grid (max. acc.)         AngularGrid ... Lebedev-110
Angular grid pruning method      GridPruning ... 3 (G Style)
Weight generation scheme         WeightScheme... Becke
Basis function cutoff            BFCut       ...    1.0000e-10
Integration weight cutoff        WCut        ...    1.0000e-14
Grids for H and He will be reduced by one unit

# of grid points (after initial pruning)     ...   4084 (   0.0 sec)
# of grid points (after weights+screening)   ...   4056 (   0.0 sec)
nearest neighbour list constructed           ...    0.0 sec
Grid point re-assignment to atoms done       ...    0.0 sec
Grid point division into batches done        ...    0.0 sec
Reduced shell lists constructed in    0.0 sec

Total number of grid points                  ...     4056
Total number of batches                      ...       65
Average number of points per batch           ...       62
Average number of grid points per atom       ...     1014
Average number of shells per batch           ...     9.02 (75.13%)
Average number of basis functions per batch  ...    14.47 (72.35%)
Average number of large shells per batch     ...     7.77 (86.22%)
Average number of large basis fcns per batch ...    12.50 (86.39%)
Maximum spatial batch extension              ...  25.65, 15.12, 25.65 au
Average spatial batch extension              ...   5.78,  5.59,  6.26 au

Time for grid setup =    0.020 sec

------------------------------
INITIAL GUESS: MODEL POTENTIAL
------------------------------
Loading Hartree-Fock densities                     ... done
Calculating cut-offs                               ... done
Setting up the integral package                    ... done
Initializing the effective Hamiltonian             ... done
Starting the Coulomb interaction                   ... done (   0.0 sec)
Reading the grid                                   ... done
Mapping shells                                     ... done
Starting the XC term evaluation                    ... done (   0.0 sec)
  promolecular density results
     # of electrons  =      9.996503495
     EX              =     -7.181486582
     EC              =     -0.262732711
     EX+EC           =     -7.444219293
Transforming the Hamiltonian                       ... done (   0.0 sec)
Diagonalizing the Hamiltonian                      ... done (   0.0 sec)
Back transforming the eigenvectors                 ... done (   0.0 sec)
Now organizing SCF variables                       ... done
                      ------------------
                      INITIAL GUESS DONE (   0.1 sec)
                      ------------------
--------------
SCF ITERATIONS
--------------
ITER       Energy         Delta-E        Max-DP      RMS-DP      [F,P]   Gradient Norm
               ***  Starting incremental Fock matrix formation  ***
                             ****Resetting KDIIS****
                             ****Turning on KDIIS(Cayley)****
  0    -55.7416811458   0.000000000000 0.03759873  0.00392280  0.1250027   0.115250770
  1    -55.7638737259  -0.022192580085 0.04544016  0.00542601  0.1045687   0.096993490
  2    -55.7902475363  -0.026373810449 0.05154611  0.00640952  0.0783664   0.075177266
  3    -55.8028608728  -0.012613336467 0.08509687  0.01028442  0.0493632   0.046930756
  4    -55.8119782969  -0.009117424160 0.01592330  0.00172239  0.0031372   0.002237788
  5    -55.8119983813  -0.000020084392 0.02773505  0.00275265  0.0021794   0.001235236
  6    -55.8118610334   0.000137347907 0.00293324  0.00039407  0.0016020   0.001399315
  7    -55.8118826433  -0.000021609848 0.04488182  0.00443333  0.0021790   0.001460904
  8    -55.8117083475   0.000174295747 0.03087720  0.00301840  0.0010526   0.000976560
  9    -55.8116741509   0.000034196637 0.00382858  0.00040905  0.0009735   0.000578742
 10    -55.8116843605  -0.000010209623 0.00083318  0.00010761  0.0009753   0.000481956
 11    -55.8116886461  -0.000004285580 0.00319274  0.00039336  0.0009797   0.000488199
 12    -55.8116682175   0.000020428621 0.00230295  0.00024845  0.0009618   0.000470870
 13    -55.8116830380  -0.000014820581 0.00548510  0.00057018  0.0009682   0.000471260
 14    -55.8116479374   0.000035100596 0.03289523  0.00339291  0.0009467   0.000482362
 15    -55.8114563418   0.000191595630 0.00739842  0.00077625  0.0008173   0.000464889
 16    -55.8114151788   0.000041163014 0.00647661  0.00073632  0.0007942   0.000452098
 17    -55.8113852545   0.000029924328 0.01178287  0.00157793  0.0007601   0.000428326
 18    -55.8113193463   0.000065908161 0.01072488  0.00139192  0.0007339   0.000427279
 19    -55.8112728486   0.000046497750 0.03230141  0.00341895  0.0007129   0.000451553
               *** Restarting incremental Fock matrix formation ***
                             ****Resetting KDIIS****
 20    -55.8111309720   0.000141876530 0.00014394  0.00002366  0.0005640   0.000444805
                          ***Energy convergence achieved***
 21    -55.8111318923  -0.000000920268 0.00013337  0.00002387  0.0005648   0.000429173
 22    -55.8111325533  -0.000000661026 0.00050710  0.00008254  0.0005657   0.000385387
 23    -55.8111348357  -0.000002282412 0.00453860  0.00062159  0.0005658   0.000343899
 24    -55.8111527537  -0.000017917977 0.00275125  0.00030684  0.0005735   0.000307964
 25    -55.8111454119   0.000007341857 0.00713602  0.00074212  0.0005698   0.000309840
 26    -55.8111328981   0.000012513752 0.00509837  0.00050291  0.0005650   0.000309485
 27    -55.8111305713   0.000002326763 0.00061132  0.00008748  0.0005707   0.000291603
 28    -55.8111280914   0.000002479923 0.00039728  0.00005543  0.0005678   0.000290892
 29    -55.8111267836   0.000001307797 0.00095474  0.00013147  0.0005679   0.000286203
 30    -55.8111304304  -0.000003646780 0.00306862  0.00037502  0.0005719   0.000288885
 31    -55.8111218416   0.000008588792 0.00216741  0.00021425  0.0005646   0.000285135
                          ***Energy convergence achieved***
 32    -55.8111220468  -0.000000205221 0.00281490  0.00027506  0.0005679   0.000279824
 33    -55.8111226314  -0.000000584574 0.00098386  0.00012362  0.0005642   0.000283109
 34    -55.8111264414  -0.000003809984 0.00065458  0.00007239  0.0005693   0.000282192
 35    -55.8111239377   0.000002503671 0.00177596  0.00021931  0.0005648   0.000283803
 36    -55.8111170899   0.000006847811 0.00539862  0.00057972  0.0005571   0.000280567
 37    -55.8110970401   0.000020049862 0.00302144  0.00034951  0.0005295   0.000278266
 38    -55.8110867691   0.000010270918 0.00214474  0.00020947  0.0005119   0.000269381
                          ***Energy convergence achieved***
 39    -55.8110865549   0.000000214258 0.01119396  0.00142894  0.0005175   0.000283937
               *** Restarting incremental Fock matrix formation ***
                             ****Resetting KDIIS****
 40    -55.8110500695   0.000036485402 0.00011941  0.00001639  0.0004647   0.000268528
                          ***Energy convergence achieved***
 41    -55.8110505670  -0.000000497496 0.00009791  0.00001266  0.0004650   0.000275419
 42    -55.8110506164  -0.000000049433 0.00034484  0.00005008  0.0004657   0.000260905
 43    -55.8110516626  -0.000001046154 0.00135505  0.00018485  0.0004687   0.000244520
 44    -55.8110475784   0.000004084142 0.00446610  0.00049289  0.0004615   0.000231723
 45    -55.8110420507   0.000005527729 0.00272513  0.00027671  0.0004379   0.000239000
 46    -55.8110439347  -0.000001884061 0.00059911  0.00006910  0.0004395   0.000226364
 47    -55.8110451524  -0.000001217694 0.00177828  0.00019952  0.0004402   0.000219338
 48    -55.8110397074   0.000005445007 0.00276756  0.00030267  0.0004295   0.000220900
 49    -55.8110317485   0.000007958923 0.00213511  0.00024045  0.0004124   0.000223939
 50    -55.8110280890   0.000003659503 0.00142289  0.00017804  0.0004073   0.000225382
 51    -55.8110252125   0.000002876483 0.00112791  0.00013084  0.0004040   0.000219313
 52    -55.8110219331   0.000003279453 0.00679697  0.00083425  0.0003991   0.000216480
 53    -55.8110035141   0.000018418979 0.00898609  0.00113973  0.0003613   0.000200664
 54    -55.8109824912   0.000021022898 0.00741463  0.00104782  0.0003173   0.000180977
 55    -55.8109684119   0.000014079258 0.00159297  0.00018265  0.0002805   0.000161439
 56    -55.8109717879  -0.000003375975 0.00163770  0.00018923  0.0002911   0.000167340
 57    -55.8109683788   0.000003409158 0.00267425  0.00031381  0.0002793   0.000163832
 58    -55.8109632669   0.000005111827 0.00597986  0.00069659  0.0002637   0.000155818
 59    -55.8109531161   0.000010150855 0.00243784  0.00036456  0.0002271   0.000158753
               *** Restarting incremental Fock matrix formation ***
                             ****Resetting KDIIS****
 60    -55.8109500532   0.000003062871 0.00013242  0.00001512  0.0002153   0.000157133
                          ***Energy convergence achieved***
 61    -55.8109502342  -0.000000181012 0.00007255  0.00000819  0.0002161   0.000161241
 62    -55.8109502609  -0.000000026693 0.00036192  0.00004215  0.0002162   0.000154206
 63    -55.8109506315  -0.000000370568 0.00083926  0.00008723  0.0002172   0.000146318
 64    -55.8109501521   0.000000479326 0.00772131  0.00078249  0.0002122   0.000148894
 65    -55.8109485885   0.000001563661 0.00060806  0.00007401  0.0001962   0.000111168
                          ***Energy convergence achieved***
 66    -55.8109491792  -0.000000590720 0.00027790  0.00002842  0.0001976   0.000097839
 67    -55.8109492453  -0.000000066126 0.00080709  0.00008112  0.0001971   0.000096544
 68    -55.8109491499   0.000000095423 0.00010565  0.00001310  0.0001973   0.000099263
 69    -55.8109492994  -0.000000149529 0.00058923  0.00006296  0.0001983   0.000098099
 70    -55.8109489843   0.000000315177 0.00089672  0.00009392  0.0001975   0.000098881
 71    -55.8109494316  -0.000000447361 0.00051620  0.00006097  0.0001985   0.000098347
 72    -55.8109490444   0.000000387192 0.00108888  0.00011217  0.0001989   0.000099896
 73    -55.8109486389   0.000000405514 0.00063642  0.00009437  0.0001982   0.000098209
 74    -55.8109495028  -0.000000863850 0.00028201  0.00003735  0.0002013   0.000096406
 75    -55.8109492428   0.000000259928 0.00079290  0.00009505  0.0001996   0.000100148
 76    -55.8109499153  -0.000000672499 0.00068984  0.00008723  0.0002016   0.000098731
 77    -55.8109492106   0.000000704762 0.00127223  0.00013203  0.0001992   0.000101037
 78    -55.8109487348   0.000000475793 0.00108830  0.00011678  0.0002004   0.000096685

            ***Energy convergence in two consecutive cycles with***
                    ***'reasonable' density convergence***
                       *** signaling convergence ***

                    *** KDIIS BlockDiag ( 0.000 sec) ***

               *****************************************************
               *                     SUCCESS                       *
               *           SCF CONVERGED AFTER  79 CYCLES          *
               *****************************************************

Setting up the final grid:

General Integration Accuracy     IntAcc      ...  4.670
Radial Grid Type                 RadialGrid  ... Gauss-Chebyshev
Angular Grid (max. acc.)         AngularGrid ... Lebedev-302
Angular grid pruning method      GridPruning ... 3 (G Style)
Weight generation scheme         WeightScheme... Becke
Basis function cutoff            BFCut       ...    1.0000e-10
Integration weight cutoff        WCut        ...    1.0000e-14
Grids for H and He will be reduced by one unit

# of grid points (after initial pruning)     ...  16394 (   0.0 sec)
# of grid points (after weights+screening)   ...  16286 (   0.0 sec)
nearest neighbour list constructed           ...    0.0 sec
Grid point re-assignment to atoms done       ...    0.0 sec
Grid point division into batches done        ...    0.0 sec
Reduced shell lists constructed in    0.1 sec

Total number of grid points                  ...    16286
Total number of batches                      ...      257
Average number of points per batch           ...       63
Average number of grid points per atom       ...     4072
Average number of shells per batch           ...     7.99 (66.57%)
Average number of basis functions per batch  ...    12.43 (62.15%)
Average number of large shells per batch     ...     6.86 (85.83%)
Average number of large basis fcns per batch ...    10.54 (84.78%)
Maximum spatial batch extension              ...  21.92, 22.77, 16.92 au
Average spatial batch extension              ...   3.42,  3.48,  3.42 au

Final grid set up in    0.1 sec
Final integration                            ... done (   0.1 sec)
Change in XC energy                          ...    -0.000084897
Integrated number of electrons               ...    10.000037065
Previous integrated no of electrons          ...     9.997341948

----------------
TOTAL SCF ENERGY
----------------

Total Energy       :          -55.81103418 Eh           -1518.69545 eV

Components:
Nuclear Repulsion  :            4.08921657 Eh             111.27324 eV
Electronic Energy  :          -59.90025075 Eh           -1629.96869 eV
One Electron Energy:          -85.20767542 Eh           -2318.61872 eV
Two Electron Energy:           25.30742467 Eh             688.65004 eV

Virial components:
Potential Energy   :         -111.18450473 Eh           -3025.48419 eV
Kinetic Energy     :           55.37347055 Eh            1506.78874 eV
Virial Ratio       :            2.00790204


DFT components:
N(Alpha)           :        5.000018532734 electrons
N(Beta)            :        5.000018532734 electrons
N(Total)           :       10.000037065468 electrons
E(XC)              :       -5.174584435620 Eh       

---------------
SCF CONVERGENCE
---------------

  Last Energy change         ...   -5.5179e-07  Tolerance :   1.0000e-06
  Last MAX-Density change    ...    8.6013e-05  Tolerance :   1.0000e-05
  Last RMS-Density change    ...    8.9782e-06  Tolerance :   1.0000e-06
  Last DIIS Error            ...    2.0188e-04  Tolerance :   1.0000e-06

             **** THE GBW FILE WAS UPDATED (Scan_35.gbw) ****
             **** DENSITY FILE WAS UPDATED (Scan_35.scfp.tmp) ****
             **** ENERGY FILE WAS UPDATED (Scan_35.en.tmp) ****
----------------
ORBITAL ENERGIES
----------------

  NO   OCC          E(Eh)            E(eV) 
   0   2.0000     -14.172862      -385.6632 
   1   2.0000      -0.804299       -21.8861 
   2   2.0000      -0.498686       -13.5699 
   3   2.0000      -0.046085        -1.2540 
   4   2.0000      -0.045892        -1.2488 
   5   0.0000      -0.311387        -8.4733 
   6   0.0000       0.038277         1.0416 
   7   0.0000       0.211015         5.7420 
   8   0.0000       0.584279        15.8991 
   9   0.0000       0.686465        18.6797 
  10   0.0000       0.835733        22.7414 
  11   0.0000       1.046997        28.4902 
  12   0.0000       1.055829        28.7306 
  13   0.0000       1.056054        28.7367 
  14   0.0000       1.136292        30.9201 
  15   0.0000       2.115428        57.5637 
  16   0.0000       2.118985        57.6605 
  17   0.0000       2.119069        57.6628 
  18   0.0000       2.158786        58.7436 
  19   0.0000       2.158792        58.7437 

                    ********************************
                    * MULLIKEN POPULATION ANALYSIS *
                    ********************************

-----------------------
MULLIKEN ATOMIC CHARGES
-----------------------
   0 N :   -0.999737
   1 H :    0.608404
   2 H :   -0.216862
   3 H :    0.608195
Sum of atomic charges:   -0.0000000

--------------------------------
MULLIKEN REDUCED ORBITAL CHARGES
--------------------------------
  0 N s       :     3.998938  s :     3.998938
      pz      :     1.920484  p :     4.000529
      px      :     1.805006
      py      :     0.275039
      dz2     :     0.000050  d :     0.000270
      dxz     :     0.000004
      dyz     :     0.000033
      dx2y2   :     0.000114
      dxy     :     0.000069
  1 H s       :     0.391596  s :     0.391596
  2 H s       :     1.216862  s :     1.216862
  3 H s       :     0.391805  s :     0.391805


                     *******************************
                     * LOEWDIN POPULATION ANALYSIS *
                     *******************************

----------------------
LOEWDIN ATOMIC CHARGES
----------------------
   0 N :   -0.999766
   1 H :    0.523341
   2 H :   -0.046697
   3 H :    0.523121

-------------------------------
LOEWDIN REDUCED ORBITAL CHARGES
-------------------------------
  0 N s       :     3.998938  s :     3.998938
      pz      :     1.920488  p :     4.000558
      px      :     1.805017
      py      :     0.275053
      dz2     :     0.000050  d :     0.000270
      dxz     :     0.000004
      dyz     :     0.000033
      dx2y2   :     0.000114
      dxy     :     0.000069
  1 H s       :     0.476659  s :     0.476659
  2 H s       :     1.046697  s :     1.046697
  3 H s       :     0.476879  s :     0.476879


                      *****************************
                      * MAYER POPULATION ANALYSIS *
                      *****************************

  NA   - Mulliken gross atomic population
  ZA   - Total nuclear charge
  QA   - Mulliken gross atomic charge
  VA   - Mayer's total valence
  BVA  - Mayer's bonded valence
  FA   - Mayer's free valence

  ATOM       NA         ZA         QA         VA         BVA        FA
  0 N      7.9997     7.0000    -0.9997     0.0005     0.0005    -0.0000
  1 H      0.3916     1.0000     0.6084     0.6299     0.6299     0.0000
  2 H      1.2169     1.0000    -0.2169     0.9529     0.9529     0.0000
  3 H      0.3918     1.0000     0.6082     0.6302     0.6302     0.0000

  Mayer bond orders larger than 0.1
B(  1-H ,  2-H ) :   0.4763 B(  1-H ,  3-H ) :   0.1533 B(  2-H ,  3-H ) :   0.4766 


-------
TIMINGS
-------

Total SCF time: 0 days 0 hours 0 min 20 sec 

Total time                  ....      20.272 sec
Sum of individual times     ....      19.667 sec  ( 97.0%)

Fock matrix formation       ....      19.410 sec  ( 95.7%)
  XC integration            ....       3.335 sec  ( 17.2% of F)
    Basis function eval.    ....       0.704 sec  ( 21.1% of XC)
    Density eval.           ....       0.141 sec  (  4.2% of XC)
    XC-Functional eval.     ....       1.032 sec  ( 30.9% of XC)
    XC-Potential eval.      ....       0.049 sec  (  1.5% of XC)
Diagonalization             ....       0.019 sec  (  0.1%)
Density matrix formation    ....       0.000 sec  (  0.0%)
Population analysis         ....       0.009 sec  (  0.0%)
Initial guess               ....       0.105 sec  (  0.5%)
Orbital Transformation      ....       0.000 sec  (  0.0%)
Orbital Orthonormalization  ....       0.000 sec  (  0.0%)
DIIS solution               ....       0.000 sec  (  0.0%)
Grid generation             ....       0.123 sec  (  0.6%)


-------------------------------------------------------------------------------
                          DFT DISPERSION CORRECTION                            
                                                                               
                              DFTD3 V3.1  Rev 1                                
                              USING zero damping                               
-------------------------------------------------------------------------------
The omegaB97X-D3 functional is recognized. Fit by Chai et al.
Active option DFTDOPT                   ...         3   

molecular C6(AA) [au] = 169.344547 


            DFT-D V3
 parameters
 s6 scaling factor         :     1.0000 
 rs6 scaling factor        :     1.2810 
 s8 scaling factor         :     1.0000 
 rs8 scaling factor        :     1.0940 
 Damping factor alpha6     :    14.0000 
 Damping factor alpha8     :    16.0000 
 ad hoc parameters k1-k3   :    16.0000     1.3333    -4.0000 

 Edisp/kcal,au: -0.178496602731  -0.000284452412 
 E6   /kcal   :  -0.124203856 
 E8   /kcal   :  -0.054292747 
 % E8         :  30.416683750 

-------------------------   ----------------
Dispersion correction           -0.000284452
-------------------------   ----------------


-------------------------   --------------------
FINAL SINGLE POINT ENERGY       -55.811318635925
-------------------------   --------------------


                            ***************************************
                            *     ORCA property calculations      *
                            ***************************************

                                    ---------------------
                                    Active property flags
                                    ---------------------
   (+) Dipole Moment


------------------------------------------------------------------------------
                       ORCA ELECTRIC PROPERTIES CALCULATION
------------------------------------------------------------------------------

Dipole Moment Calculation                       ... on
Quadrupole Moment Calculation                   ... off
Polarizability Calculation                      ... off
GBWName                                         ... Scan_35.gbw
Electron density file                           ... Scan_35.scfp.tmp

-------------
DIPOLE MOMENT
-------------
                                X             Y             Z
Electronic contribution:     -0.51986      -1.70660       0.44569
Nuclear contribution   :      2.54112       8.35024      -2.18879
                        -----------------------------------------
Total Dipole Moment    :      2.02127       6.64364      -1.74309
                        -----------------------------------------
Magnitude (a.u.)       :      7.15974
Magnitude (Debye)      :     18.19860


Timings for individual modules:

Sum of individual times         ...       20.594 sec (=   0.343 min)
GTO integral calculation        ...        0.301 sec (=   0.005 min)   1.5 %
SCF iterations                  ...       20.293 sec (=   0.338 min)  98.5 %
                             ****ORCA TERMINATED NORMALLY****
TOTAL RUN TIME: 0 days 0 hours 0 minutes 20 seconds 905 msec
