
                                 *****************
                                 * O   R   C   A *
                                 *****************

           --- An Ab Initio, DFT and Semiempirical electronic structure package ---

                  #######################################################
                  #                        -***-                        #
                  #  Department of molecular theory and spectroscopy    #
                  #              Directorship: Frank Neese              #
                  # Max Planck Institute for Chemical Energy Conversion #
                  #                  D-45470 Muelheim/Ruhr              #
                  #                       Germany                       #
                  #                                                     #
                  #                  All rights reserved                #
                  #                        -***-                        #
                  #######################################################


                         Program Version 4.0.0.2 - RELEASE -


 With contributions from (in alphabetic order):
   Daniel Aravena         : Magnetic Properties
   Michael Atanasov       : Ab Initio Ligand Field Theory
   Ute Becker             : Parallelization
   Martin Brehm           : Molecular dynamics
   Dmytro Bykov           : SCF Hessian
   Vijay G. Chilkuri      : MRCI spin determinant printing
   Dipayan Datta          : RHF DLPNO-CCSD density
   Achintya Kumar Dutta   : EOM-CC, STEOM-CC
   Dmitry Ganyushin       : Spin-Orbit,Spin-Spin,Magnetic field MRCI
   Yang Guo               : DLPNO-NEVPT2, CIM, IAO-localization
   Andreas Hansen         : Spin unrestricted coupled pair/coupled cluster methods
   Lee Huntington         : MR-EOM, pCC
   Robert Izsak           : Overlap fitted RIJCOSX, COSX-SCS-MP3, EOM
   Christian Kollmar      : KDIIS, OOCD, Brueckner-CCSD(T), CCSD density
   Simone Kossmann        : Meta GGA functionals, TD-DFT gradient, OOMP2, MP2 Hessian
   Martin Krupicka        : AUTO-CI
   Dagmar Lenk            : GEPOL surface
   Dimitrios Liakos       : Extrapolation schemes; parallel MDCI
   Dimitrios Manganas     : ROCIS; embedding schemes
   Dimitrios Pantazis     : SARC Basis sets
   Taras Petrenko         : DFT Hessian,TD-DFT gradient, ASA, ECA, R-Raman, ABS, FL, XAS/XES, NRVS
   Peter Pinski           : DLPNO-MP2
   Christoph Reimann      : Effective Core Potentials
   Marius Retegan         : Local ZFS, SOC
   Christoph Riplinger    : Optimizer, TS searches, QM/MM, DLPNO-CCSD(T), (RO)-DLPNO pert. Triples
   Tobias Risthaus        : Range-separated hybrids, TD-DFT gradient, RPA, STAB
   Michael Roemelt        : Restricted open shell CIS
   Masaaki Saitow         : Open-shell DLPNO
   Barbara Sandhoefer     : DKH picture change effects
   Kantharuban Sivalingam : CASSCF convergence, NEVPT2, FIC-MRCI
   Georgi Stoychev        : AutoAux
   Boris Wezisla          : Elementary symmetry handling
   Frank Wennmohs         : Technical directorship


 We gratefully acknowledge several colleagues who have allowed us to
 interface, adapt or use parts of their codes:
   Stefan Grimme, W. Hujo, H. Kruse,             : VdW corrections, initial TS optimization,
                  C. Bannwarth                     DFT functionals, gCP, sTDA/sTD-DF
   Ed Valeev                                     : LibInt (2-el integral package), F12 methods
   Garnet Chan, S. Sharma, J. Yang, R. Olivares  : DMRG
   Ulf Ekstrom                                   : XCFun DFT Library
   Mihaly Kallay                                 : mrcc  (arbitrary order and MRCC methods)
   Jiri Pittner, Ondrej Demel                    : Mk-CCSD
   Frank Weinhold                                : gennbo (NPA and NBO analysis)
   Christopher J. Cramer and Donald G. Truhlar   : smd solvation model


 Your calculation uses the libint2 library for the computation of 2-el integrals
 For citations please refer to: http://libint.valeyev.net

 This ORCA versions uses:
   CBLAS   interface :  Fast vector & matrix operations
   LAPACKE interface :  Fast linear algebra routines
   SCALAPACK package :  Parallel linear algebra routines


Your calculation utilizes the atom-pairwise dispersion correction
with the zero-damping scheme (D30)
Cite in your paper:
S.Grimme, J.Antony, S.Ehrlich and H.Krieg, J.Chem.Phys., 132, (2010), 154104 
   

XCFun DFT library Copyright 2009-2010 Ulf Ekstrom and contributors.
See http://admol.org/xcfun for more information. This is free soft-
ware; see the source code for copying conditions. There is ABSOLUTELY
NO WARRANTY; not even for MERCHANTABILITY or FITNESS FOR A PARTICULAR
PURPOSE. For details see the documentation. Scientific users of this 
library should cite U. Ekstrom, L. Visscher, R. Bast, A. J. Thorvald-
sen and K. Ruud; J.Chem.Theor.Comp. 2010, DOI: 10.1021/ct100117s
XCFun Version 0.99 
Your calculation utilizes the basis: 6-31G(d)
   H-He, Li-Ne : W. J. Hehre, R. Ditchfield and J.A. Pople, J. Chem. Phys. 56, 2257 (1972).
                 Note: He and Ne are unpublished basis sets taken from the Gaussian program.
                 Note: Li and B from J. D. Dill and J. A. Pople, J. Chem. Phys. 62, 2921 (1975).
   Na - Ar     : M. M. Francl, W. J. Pietro, W. J. Hehre, J. S. Binkley, M. S. Gordon, 
                 D. J. DeFrees and J. A. Pople, J. Chem. Phys. 77, 3654 (1982).
   K - Zn      : V. A. Rassolov, J. A. Pople, M. A. Ratner, and T. L. Windus, J. Chem. Phys. 109, 1223 (1998).

================================================================================
                                        WARNINGS
                       Please study these warnings very carefully!
================================================================================

Warning: TCutStore was < 0. Adjusted to Thresh (uncritical)

INFO   : the flag for use of LIBINT has been found!

================================================================================
                                       INPUT FILE
================================================================================
NAME = initial36.inp
|  1> ! WB97X-D3 6-31G(d) VerySlowConv
|  2> ! KDIIS NOSOSCF
|  3> %base "Scan_36"
|  4> 
|  5> %scf
|  6> maxiter 999
|  7> end
|  8> 
|  9> * xyz 0 1
| 10> N         -0.795339514523   -1.483287495444    0.692289411990
| 11> H          1.078742328443    1.808285136631   -0.832739958857
| 12> H          0.354399498598    2.294774705018   -0.298014817873
| 13> H         -0.435952312517    2.564447653795    0.293505364740
| 14> **                         ****END OF INPUT****
================================================================================

                       ****************************
                       * Single Point Calculation *
                       ****************************

---------------------------------
CARTESIAN COORDINATES (ANGSTROEM)
---------------------------------
  N     -0.795340   -1.483287    0.692289
  H      1.078742    1.808285   -0.832740
  H      0.354399    2.294775   -0.298015
  H     -0.435952    2.564448    0.293505

----------------------------
CARTESIAN COORDINATES (A.U.)
----------------------------
  NO LB      ZA    FRAG     MASS         X           Y           Z
   0 N     7.0000    0    14.007   -1.502974   -2.803007    1.308237
   1 H     1.0000    0     1.008    2.038528    3.417164   -1.573650
   2 H     1.0000    0     1.008    0.669718    4.336496   -0.563166
   3 H     1.0000    0     1.008   -0.823830    4.846104    0.554645

--------------------------------
INTERNAL COORDINATES (ANGSTROEM)
--------------------------------
 N      0   0   0     0.000000000000     0.00000000     0.00000000
 H      1   0   0     4.083178630467     0.00000000     0.00000000
 H      2   1   0     1.023364847793    82.13723216     0.00000000
 H      3   2   1     1.023364847488   166.88990934     0.00000000

---------------------------
INTERNAL COORDINATES (A.U.)
---------------------------
 N      0   0   0     0.000000000000     0.00000000     0.00000000
 H      1   0   0     7.716089367463     0.00000000     0.00000000
 H      2   1   0     1.933879297410    82.13723216     0.00000000
 H      3   2   1     1.933879296834   166.88990934     0.00000000

---------------------
BASIS SET INFORMATION
---------------------
There are 2 groups of distinct atoms

 Group   1 Type N   : 10s4p1d contracted to 3s2p1d pattern {631/31/1}
 Group   2 Type H   : 4s contracted to 2s pattern {31}

Atom   0N    basis set group =>   1
Atom   1H    basis set group =>   2
Atom   2H    basis set group =>   2
Atom   3H    basis set group =>   2
------------------------------------------------------------------------------
                           ORCA GTO INTEGRAL CALCULATION
------------------------------------------------------------------------------

                         BASIS SET STATISTICS AND STARTUP INFO

 # of primitive gaussian shells          ...   27
 # of primitive gaussian functions       ...   39
 # of contracted shells                  ...   12
 # of contracted basis functions         ...   20
 Highest angular momentum                ...    2
 Maximum contraction depth               ...    6
 Integral package used                   ... LIBINT
 Integral threshhold            Thresh   ...  1.000e-10
 Primitive cut-off              TCut     ...  1.000e-11


------------------------------ INTEGRAL EVALUATION ----------------------------


 * One electron integrals 
 Pre-screening matrix                    ... done
 Shell pair data                         ... done (   0.000 sec)

-------------------------------------------------------------------------------
                                 ORCA SCF
-------------------------------------------------------------------------------

------------
SCF SETTINGS
------------
Hamiltonian:
 Density Functional     Method          .... DFT(GTOs)
 Exchange Functional    Exchange        .... WB97X-D3
 Correlation Functional Correlation     .... WB97X-D3
 Gradients option       PostSCFGGA      .... off
 Hybrid DFT is turned on
   Fraction HF Exchange ScalHFX         ....  0.195728
   Scaling of DF-GGA-X  ScalDFX         ....  0.000000
   Scaling of DF-GGA-C  ScalDFC         ....  1.000000
   Scaling of DF-LDA-C  ScalLDAC        ....  1.000000
   Perturbative correction              ....  0.000000
 Long-range corrected/Screened/Range-Separated Hybrid DFT is turned on
   Amount of maximum screened exact exchange              ....  0.804272
   Range separation parameter mu (erf(mu*r12)/r12)        ....  0.250000


General Settings:
 Integral files         IntName         .... Scan_36
 Hartree-Fock type      HFTyp           .... RHF
 Total Charge           Charge          ....    0
 Multiplicity           Mult            ....    1
 Number of Electrons    NEL             ....   10
 Basis Dimension        Dim             ....   20
 Nuclear Repulsion      ENuc            ....      4.0186485556 Eh

Convergence Acceleration:
 DIIS                   CNVDIIS         .... on
   Start iteration      DIISMaxIt       ....     0
   Startup error        DIISStart       ....  0.200000
   # of expansion vecs  DIISMaxEq       ....     5
   Bias factor          DIISBfac        ....   1.050
   Max. coefficient     DIISMaxC        ....  10.000
 Newton-Raphson         CNVNR           .... off
 SOSCF                  CNVSOSCF        .... off
 Level Shifting         CNVShift        .... off
 Zerner damping         CNVZerner       .... off
 Static damping         CNVDamp         .... off
 Fernandez-Rico         CNVRico         .... off

SCF Procedure:
 Maximum # iterations   MaxIter         ....   999
 SCF integral mode      SCFMode         .... Direct
   Integral package                     .... LIBINT
 Reset frequeny         DirectResetFreq ....    20
 Integral Threshold     Thresh          ....  1.000e-10 Eh
 Primitive CutOff       TCut            ....  1.000e-11 Eh

Convergence Tolerance:
 Convergence Check Mode ConvCheckMode   .... All-Criteria
 Convergence forced     ConvForced      .... 0
 Energy Change          TolE            ....  1.000e-06 Eh
 Max Density Change     TolMaxP         ....  1.000e-05
 RMS Density Change     TolRMSP         ....  1.000e-06
 DIIS Error             TolErr          ....  1.000e-06


Diagonalization of the overlap matrix:
Smallest eigenvalue                        ... 6.304e-02
Time for diagonalization                   ...    0.000 sec
Threshold for overlap eigenvalues          ... 1.000e-08
Number of eigenvalues below threshold      ... 0
Time for construction of square roots      ...    0.004 sec
Total time needed                          ...    0.005 sec

-------------------
DFT GRID GENERATION
-------------------

General Integration Accuracy     IntAcc      ...  4.340
Radial Grid Type                 RadialGrid  ... Gauss-Chebyshev
Angular Grid (max. acc.)         AngularGrid ... Lebedev-110
Angular grid pruning method      GridPruning ... 3 (G Style)
Weight generation scheme         WeightScheme... Becke
Basis function cutoff            BFCut       ...    1.0000e-10
Integration weight cutoff        WCut        ...    1.0000e-14
Grids for H and He will be reduced by one unit

# of grid points (after initial pruning)     ...   4084 (   0.0 sec)
# of grid points (after weights+screening)   ...   4056 (   0.0 sec)
nearest neighbour list constructed           ...    0.0 sec
Grid point re-assignment to atoms done       ...    0.0 sec
Grid point division into batches done        ...    0.0 sec
Reduced shell lists constructed in    0.0 sec

Total number of grid points                  ...     4056
Total number of batches                      ...       65
Average number of points per batch           ...       62
Average number of grid points per atom       ...     1014
Average number of shells per batch           ...     8.83 (73.61%)
Average number of basis functions per batch  ...    14.26 (71.29%)
Average number of large shells per batch     ...     7.59 (85.93%)
Average number of large basis fcns per batch ...    12.11 (84.91%)
Maximum spatial batch extension              ...  25.65, 18.30, 25.65 au
Average spatial batch extension              ...   5.66,  5.67,  6.27 au

Time for grid setup =    0.022 sec

------------------------------
INITIAL GUESS: MODEL POTENTIAL
------------------------------
Loading Hartree-Fock densities                     ... done
Calculating cut-offs                               ... done
Setting up the integral package                    ... done
Initializing the effective Hamiltonian             ... done
Starting the Coulomb interaction                   ... done (   0.0 sec)
Reading the grid                                   ... done
Mapping shells                                     ... done
Starting the XC term evaluation                    ... done (   0.0 sec)
  promolecular density results
     # of electrons  =      9.996589497
     EX              =     -7.181450983
     EC              =     -0.262702372
     EX+EC           =     -7.444153355
Transforming the Hamiltonian                       ... done (   0.0 sec)
Diagonalizing the Hamiltonian                      ... done (   0.0 sec)
Back transforming the eigenvectors                 ... done (   0.0 sec)
Now organizing SCF variables                       ... done
                      ------------------
                      INITIAL GUESS DONE (   0.1 sec)
                      ------------------
--------------
SCF ITERATIONS
--------------
ITER       Energy         Delta-E        Max-DP      RMS-DP      [F,P]   Gradient Norm
               ***  Starting incremental Fock matrix formation  ***
                             ****Resetting KDIIS****
                             ****Turning on KDIIS(Cayley)****
  0    -55.7378166373   0.000000000000 0.03757718  0.00390459  0.1393426   0.115175380
  1    -55.7595693546  -0.021752717240 0.04283866  0.00505891  0.1167916   0.096987406
  2    -55.7835359513  -0.023966596758 0.05266753  0.00627303  0.0895993   0.076182755
  3    -55.7985040491  -0.014968097738 0.08631150  0.01022405  0.0563190   0.047677445
  4    -55.8087177673  -0.010213718207 0.01231481  0.00137431  0.0032143   0.002002573
  5    -55.8087227003  -0.000004933055 0.01763967  0.00178370  0.0015681   0.001008243
  6    -55.8086482338   0.000074466536 0.00939091  0.00098758  0.0012044   0.001093670
  7    -55.8086383836   0.000009850221 0.02514790  0.00255245  0.0015510   0.001213422
  8    -55.8085483178   0.000090065755 0.02392628  0.00238565  0.0007659   0.000806705
  9    -55.8085232664   0.000025051435 0.00316442  0.00034864  0.0007168   0.000517111
 10    -55.8085314686  -0.000008202240 0.00153549  0.00017001  0.0007161   0.000437941
 11    -55.8085412062  -0.000009737584 0.00445688  0.00049388  0.0007187   0.000437764
 12    -55.8085130958   0.000028110411 0.00076185  0.00008178  0.0007085   0.000439451
                          ***Energy convergence achieved***
 13    -55.8085121488   0.000000946998 0.02960776  0.00347861  0.0007065   0.000437337
 14    -55.8083350849   0.000177063925 0.00850910  0.00105882  0.0006564   0.000420772
 15    -55.8082893951   0.000045689756 0.02458936  0.00291179  0.0006384   0.000443952
 16    -55.8081627936   0.000126601540 0.01199019  0.00159385  0.0005828   0.000423429
 17    -55.8081106001   0.000052193482 0.00132268  0.00019465  0.0005509   0.000369076
 18    -55.8081035188   0.000007081242 0.01198765  0.00142315  0.0005448   0.000367205
 19    -55.8080535434   0.000049975402 0.01100704  0.00142666  0.0005035   0.000363651
               *** Restarting incremental Fock matrix formation ***
                             ****Resetting KDIIS****
 20    -55.8080975226  -0.000043979199 0.00019006  0.00002580  0.0005391   0.000358386
                          ***Energy convergence achieved***
 21    -55.8080983786  -0.000000856008 0.00012452  0.00001515  0.0005402   0.000362659
 22    -55.8080985245  -0.000000145866 0.00019579  0.00002102  0.0005399   0.000346973
 23    -55.8080984713   0.000000053250 0.00507698  0.00061415  0.0005392   0.000331025
 24    -55.8080834145   0.000015056733 0.00522407  0.00055074  0.0005200   0.000309439
                          ***Energy convergence achieved***
 25    -55.8080841199  -0.000000705331 0.00215224  0.00026176  0.0005124   0.000315403
 26    -55.8080897680  -0.000005648149 0.00124128  0.00017378  0.0005127   0.000300240
 27    -55.8080952137  -0.000005445676 0.00414347  0.00047987  0.0005169   0.000292949
 28    -55.8080779242   0.000017289437 0.00281993  0.00031504  0.0005002   0.000309050
 29    -55.8080671153   0.000010808933 0.00300813  0.00031649  0.0004885   0.000313802
 30    -55.8080636388   0.000003476465 0.00607038  0.00087989  0.0004918   0.000315982
 31    -55.8080406776   0.000022961249 0.00194537  0.00022558  0.0004732   0.000296762
 32    -55.8080332157   0.000007461922 0.00263227  0.00031140  0.0004633   0.000290720
 33    -55.8080292627   0.000003953021 0.00122975  0.00014088  0.0004641   0.000281635
 34    -55.8080245622   0.000004700446 0.01642233  0.00186186  0.0004580   0.000286552
 35    -55.8079690016   0.000055560631 0.00371819  0.00038545  0.0003805   0.000307541
                          ***Energy convergence achieved***
 36    -55.8079699387  -0.000000937118 0.01781778  0.00226917  0.0003966   0.000323295
 37    -55.8079208779   0.000049060772 0.00478459  0.00064023  0.0003071   0.000336946
 38    -55.8079118184   0.000009059546 0.00996128  0.00123471  0.0004469   0.000298340
 39    -55.8078915122   0.000020306165 0.01356178  0.00178421  0.0002258   0.000233721
               *** Restarting incremental Fock matrix formation ***
                             ****Resetting KDIIS****
 40    -55.8078738806   0.000017631593 0.00016202  0.00001887  0.0001819   0.000177819
                          ***Energy convergence achieved***
 41    -55.8078740724  -0.000000191784 0.00008208  0.00000888  0.0001852   0.000176777
 42    -55.8078741169  -0.000000044465 0.00034513  0.00004221  0.0001861   0.000163562
 43    -55.8078744371  -0.000000320255 0.00267498  0.00028868  0.0001932   0.000150670
 44    -55.8078725461   0.000001891062 0.00501189  0.00052561  0.0001561   0.000133277
                          ***Energy convergence achieved***
 45    -55.8078720851   0.000000460961 0.00179786  0.00020607  0.0001487   0.000132174
 46    -55.8078726251  -0.000000540001 0.00043819  0.00006197  0.0001526   0.000104582
 47    -55.8078729908  -0.000000365657 0.00012090  0.00001672  0.0001513   0.000074024
 48    -55.8078730917  -0.000000100955 0.00010553  0.00001682  0.0001515   0.000074620
 49    -55.8078731598  -0.000000068062 0.00016271  0.00001703  0.0001520   0.000073152
 50    -55.8078731602  -0.000000000395 0.00019848  0.00002142  0.0001521   0.000073322
 51    -55.8078732047  -0.000000044533 0.00075791  0.00009714  0.0001525   0.000073106
 52    -55.8078723903   0.000000814362 0.00048943  0.00005700  0.0001497   0.000073589
 53    -55.8078729179  -0.000000527574 0.00154106  0.00018042  0.0001515   0.000075277
 54    -55.8078712609   0.000001657050 0.00764762  0.00090738  0.0001426   0.000076980
 55    -55.8078644640   0.000006796848 0.00861348  0.00104328  0.0001031   0.000066047
 56    -55.8078596435   0.000004820490 0.00015400  0.00002395  0.0000804   0.000061991
                          ***Energy convergence achieved***
 57    -55.8078595838   0.000000059717 0.00433043  0.00053459  0.0000816   0.000059888
 58    -55.8078617225  -0.000002138656 0.00453132  0.00055318  0.0001282   0.000071736
 59    -55.8078594994   0.000002223067 0.00323847  0.00039501  0.0000682   0.000067158
               *** Restarting incremental Fock matrix formation ***
                             ****Resetting KDIIS****
                          ***Energy convergence achieved***
 60    -55.8078585220   0.000000977434 0.00003025  0.00000334  0.0000347   0.000034155

            ***Energy convergence in two consecutive cycles with***
                    ***'reasonable' density convergence***
                       *** signaling convergence ***

                    *** KDIIS BlockDiag ( 0.000 sec) ***

               *****************************************************
               *                     SUCCESS                       *
               *           SCF CONVERGED AFTER  61 CYCLES          *
               *****************************************************

Setting up the final grid:

General Integration Accuracy     IntAcc      ...  4.670
Radial Grid Type                 RadialGrid  ... Gauss-Chebyshev
Angular Grid (max. acc.)         AngularGrid ... Lebedev-302
Angular grid pruning method      GridPruning ... 3 (G Style)
Weight generation scheme         WeightScheme... Becke
Basis function cutoff            BFCut       ...    1.0000e-10
Integration weight cutoff        WCut        ...    1.0000e-14
Grids for H and He will be reduced by one unit

# of grid points (after initial pruning)     ...  16394 (   0.0 sec)
# of grid points (after weights+screening)   ...  16288 (   0.0 sec)
nearest neighbour list constructed           ...    0.0 sec
Grid point re-assignment to atoms done       ...    0.0 sec
Grid point division into batches done        ...    0.0 sec
Reduced shell lists constructed in    0.1 sec

Total number of grid points                  ...    16288
Total number of batches                      ...      257
Average number of points per batch           ...       63
Average number of grid points per atom       ...     4072
Average number of shells per batch           ...     7.88 (65.63%)
Average number of basis functions per batch  ...    12.19 (60.93%)
Average number of large shells per batch     ...     6.75 (85.68%)
Average number of large basis fcns per batch ...    10.34 (84.89%)
Maximum spatial batch extension              ...  21.92, 14.70, 16.92 au
Average spatial batch extension              ...   3.43,  3.45,  3.51 au

Final grid set up in    0.1 sec
Final integration                            ... done (   0.1 sec)
Change in XC energy                          ...    -0.000064685
Integrated number of electrons               ...    10.000037924
Previous integrated no of electrons          ...     9.997536215

----------------
TOTAL SCF ENERGY
----------------

Total Energy       :          -55.80792321 Eh           -1518.61080 eV

Components:
Nuclear Repulsion  :            4.01864856 Eh             109.35299 eV
Electronic Energy  :          -59.82657177 Eh           -1627.96378 eV
One Electron Energy:          -85.07988930 Eh           -2315.14149 eV
Two Electron Energy:           25.25331753 Eh             687.17771 eV

Virial components:
Potential Energy   :         -111.18044149 Eh           -3025.37362 eV
Kinetic Energy     :           55.37251828 Eh            1506.76282 eV
Virial Ratio       :            2.00786320


DFT components:
N(Alpha)           :        5.000018961754 electrons
N(Beta)            :        5.000018961754 electrons
N(Total)           :       10.000037923508 electrons
E(XC)              :       -5.174415320498 Eh       

---------------
SCF CONVERGENCE
---------------

  Last Energy change         ...   -5.8989e-09  Tolerance :   1.0000e-06
  Last MAX-Density change    ...    2.1293e-05  Tolerance :   1.0000e-05
  Last RMS-Density change    ...    2.6161e-06  Tolerance :   1.0000e-06
  Last DIIS Error            ...    3.5258e-05  Tolerance :   1.0000e-06

             **** THE GBW FILE WAS UPDATED (Scan_36.gbw) ****
             **** DENSITY FILE WAS UPDATED (Scan_36.scfp.tmp) ****
             **** ENERGY FILE WAS UPDATED (Scan_36.en.tmp) ****
----------------
ORBITAL ENERGIES
----------------

  NO   OCC          E(Eh)            E(eV) 
   0   2.0000     -14.169757      -385.5787 
   1   2.0000      -0.807241       -21.9661 
   2   2.0000      -0.495460       -13.4822 
   3   2.0000      -0.042911        -1.1677 
   4   2.0000      -0.042742        -1.1631 
   5   0.0000      -0.314534        -8.5589 
   6   0.0000       0.035411         0.9636 
   7   0.0000       0.214432         5.8350 
   8   0.0000       0.581379        15.8201 
   9   0.0000       0.683676        18.6038 
  10   0.0000       0.833004        22.6672 
  11   0.0000       1.049536        28.5593 
  12   0.0000       1.058952        28.8155 
  13   0.0000       1.059007        28.8170 
  14   0.0000       1.139222        30.9998 
  15   0.0000       2.118625        57.6507 
  16   0.0000       2.122249        57.7493 
  17   0.0000       2.122312        57.7510 
  18   0.0000       2.161940        58.8294 
  19   0.0000       2.161960        58.8299 

                    ********************************
                    * MULLIKEN POPULATION ANALYSIS *
                    ********************************

-----------------------
MULLIKEN ATOMIC CHARGES
-----------------------
   0 N :   -0.999841
   1 H :    0.608240
   2 H :   -0.216850
   3 H :    0.608451
Sum of atomic charges:   -0.0000000

--------------------------------
MULLIKEN REDUCED ORBITAL CHARGES
--------------------------------
  0 N s       :     3.999034  s :     3.999034
      pz      :     1.877417  p :     4.000540
      px      :     1.810080
      py      :     0.313043
      dz2     :     0.000043  d :     0.000267
      dxz     :     0.000005
      dyz     :     0.000045
      dx2y2   :     0.000109
      dxy     :     0.000065
  1 H s       :     0.391760  s :     0.391760
  2 H s       :     1.216850  s :     1.216850
  3 H s       :     0.391549  s :     0.391549


                     *******************************
                     * LOEWDIN POPULATION ANALYSIS *
                     *******************************

----------------------
LOEWDIN ATOMIC CHARGES
----------------------
   0 N :   -0.999858
   1 H :    0.523222
   2 H :   -0.046737
   3 H :    0.523373

-------------------------------
LOEWDIN REDUCED ORBITAL CHARGES
-------------------------------
  0 N s       :     3.999034  s :     3.999034
      pz      :     1.877421  p :     4.000557
      px      :     1.810087
      py      :     0.313050
      dz2     :     0.000043  d :     0.000267
      dxz     :     0.000005
      dyz     :     0.000045
      dx2y2   :     0.000109
      dxy     :     0.000065
  1 H s       :     0.476778  s :     0.476778
  2 H s       :     1.046737  s :     1.046737
  3 H s       :     0.476627  s :     0.476627


                      *****************************
                      * MAYER POPULATION ANALYSIS *
                      *****************************

  NA   - Mulliken gross atomic population
  ZA   - Total nuclear charge
  QA   - Mulliken gross atomic charge
  VA   - Mayer's total valence
  BVA  - Mayer's bonded valence
  FA   - Mayer's free valence

  ATOM       NA         ZA         QA         VA         BVA        FA
  0 N      7.9998     7.0000    -0.9998     0.0003     0.0003     0.0000
  1 H      0.3918     1.0000     0.6082     0.6301     0.6301    -0.0000
  2 H      1.2169     1.0000    -0.2169     0.9530     0.9530    -0.0000
  3 H      0.3915     1.0000     0.6085     0.6298     0.6298    -0.0000

  Mayer bond orders larger than 0.1
B(  1-H ,  2-H ) :   0.4766 B(  1-H ,  3-H ) :   0.1533 B(  2-H ,  3-H ) :   0.4763 


-------
TIMINGS
-------

Total SCF time: 0 days 0 hours 0 min 16 sec 

Total time                  ....      16.495 sec
Sum of individual times     ....      15.952 sec  ( 96.7%)

Fock matrix formation       ....      15.685 sec  ( 95.1%)
  XC integration            ....       2.645 sec  ( 16.9% of F)
    Basis function eval.    ....       0.562 sec  ( 21.3% of XC)
    Density eval.           ....       0.114 sec  (  4.3% of XC)
    XC-Functional eval.     ....       0.842 sec  ( 31.8% of XC)
    XC-Potential eval.      ....       0.039 sec  (  1.5% of XC)
Diagonalization             ....       0.017 sec  (  0.1%)
Density matrix formation    ....       0.000 sec  (  0.0%)
Population analysis         ....       0.009 sec  (  0.1%)
Initial guess               ....       0.111 sec  (  0.7%)
Orbital Transformation      ....       0.000 sec  (  0.0%)
Orbital Orthonormalization  ....       0.000 sec  (  0.0%)
DIIS solution               ....       0.000 sec  (  0.0%)
Grid generation             ....       0.130 sec  (  0.8%)


-------------------------------------------------------------------------------
                          DFT DISPERSION CORRECTION                            
                                                                               
                              DFTD3 V3.1  Rev 1                                
                              USING zero damping                               
-------------------------------------------------------------------------------
The omegaB97X-D3 functional is recognized. Fit by Chai et al.
Active option DFTDOPT                   ...         3   

molecular C6(AA) [au] = 169.357745 


            DFT-D V3
 parameters
 s6 scaling factor         :     1.0000 
 rs6 scaling factor        :     1.2810 
 s8 scaling factor         :     1.0000 
 rs8 scaling factor        :     1.0940 
 Damping factor alpha6     :    14.0000 
 Damping factor alpha8     :    16.0000 
 ad hoc parameters k1-k3   :    16.0000     1.3333    -4.0000 

 Edisp/kcal,au: -0.158052119847  -0.000251872059 
 E6   /kcal   :  -0.110891462 
 E8   /kcal   :  -0.047160658 
 % E8         :  29.838674628 

-------------------------   ----------------
Dispersion correction           -0.000251872
-------------------------   ----------------


-------------------------   --------------------
FINAL SINGLE POINT ENERGY       -55.808175085043
-------------------------   --------------------


                            ***************************************
                            *     ORCA property calculations      *
                            ***************************************

                                    ---------------------
                                    Active property flags
                                    ---------------------
   (+) Dipole Moment


------------------------------------------------------------------------------
                       ORCA ELECTRIC PROPERTIES CALCULATION
------------------------------------------------------------------------------

Dipole Moment Calculation                       ... on
Quadrupole Moment Calculation                   ... off
Polarizability Calculation                      ... off
GBWName                                         ... Scan_36.gbw
Electron density file                           ... Scan_36.scfp.tmp

-------------
DIPOLE MOMENT
-------------
                                X             Y             Z
Electronic contribution:     -0.53082      -1.74057       0.45667
Nuclear contribution   :      2.60936       8.57449      -2.24757
                        -----------------------------------------
Total Dipole Moment    :      2.07854       6.83392      -1.79090
                        -----------------------------------------
Magnitude (a.u.)       :      7.36411
Magnitude (Debye)      :     18.71807


Timings for individual modules:

Sum of individual times         ...       16.835 sec (=   0.281 min)
GTO integral calculation        ...        0.316 sec (=   0.005 min)   1.9 %
SCF iterations                  ...       16.519 sec (=   0.275 min)  98.1 %
                             ****ORCA TERMINATED NORMALLY****
TOTAL RUN TIME: 0 days 0 hours 0 minutes 17 seconds 158 msec
