
                                 *****************
                                 * O   R   C   A *
                                 *****************

           --- An Ab Initio, DFT and Semiempirical electronic structure package ---

                  #######################################################
                  #                        -***-                        #
                  #  Department of molecular theory and spectroscopy    #
                  #              Directorship: Frank Neese              #
                  # Max Planck Institute for Chemical Energy Conversion #
                  #                  D-45470 Muelheim/Ruhr              #
                  #                       Germany                       #
                  #                                                     #
                  #                  All rights reserved                #
                  #                        -***-                        #
                  #######################################################


                         Program Version 4.0.0.2 - RELEASE -


 With contributions from (in alphabetic order):
   Daniel Aravena         : Magnetic Properties
   Michael Atanasov       : Ab Initio Ligand Field Theory
   Ute Becker             : Parallelization
   Martin Brehm           : Molecular dynamics
   Dmytro Bykov           : SCF Hessian
   Vijay G. Chilkuri      : MRCI spin determinant printing
   Dipayan Datta          : RHF DLPNO-CCSD density
   Achintya Kumar Dutta   : EOM-CC, STEOM-CC
   Dmitry Ganyushin       : Spin-Orbit,Spin-Spin,Magnetic field MRCI
   Yang Guo               : DLPNO-NEVPT2, CIM, IAO-localization
   Andreas Hansen         : Spin unrestricted coupled pair/coupled cluster methods
   Lee Huntington         : MR-EOM, pCC
   Robert Izsak           : Overlap fitted RIJCOSX, COSX-SCS-MP3, EOM
   Christian Kollmar      : KDIIS, OOCD, Brueckner-CCSD(T), CCSD density
   Simone Kossmann        : Meta GGA functionals, TD-DFT gradient, OOMP2, MP2 Hessian
   Martin Krupicka        : AUTO-CI
   Dagmar Lenk            : GEPOL surface
   Dimitrios Liakos       : Extrapolation schemes; parallel MDCI
   Dimitrios Manganas     : ROCIS; embedding schemes
   Dimitrios Pantazis     : SARC Basis sets
   Taras Petrenko         : DFT Hessian,TD-DFT gradient, ASA, ECA, R-Raman, ABS, FL, XAS/XES, NRVS
   Peter Pinski           : DLPNO-MP2
   Christoph Reimann      : Effective Core Potentials
   Marius Retegan         : Local ZFS, SOC
   Christoph Riplinger    : Optimizer, TS searches, QM/MM, DLPNO-CCSD(T), (RO)-DLPNO pert. Triples
   Tobias Risthaus        : Range-separated hybrids, TD-DFT gradient, RPA, STAB
   Michael Roemelt        : Restricted open shell CIS
   Masaaki Saitow         : Open-shell DLPNO
   Barbara Sandhoefer     : DKH picture change effects
   Kantharuban Sivalingam : CASSCF convergence, NEVPT2, FIC-MRCI
   Georgi Stoychev        : AutoAux
   Boris Wezisla          : Elementary symmetry handling
   Frank Wennmohs         : Technical directorship


 We gratefully acknowledge several colleagues who have allowed us to
 interface, adapt or use parts of their codes:
   Stefan Grimme, W. Hujo, H. Kruse,             : VdW corrections, initial TS optimization,
                  C. Bannwarth                     DFT functionals, gCP, sTDA/sTD-DF
   Ed Valeev                                     : LibInt (2-el integral package), F12 methods
   Garnet Chan, S. Sharma, J. Yang, R. Olivares  : DMRG
   Ulf Ekstrom                                   : XCFun DFT Library
   Mihaly Kallay                                 : mrcc  (arbitrary order and MRCC methods)
   Jiri Pittner, Ondrej Demel                    : Mk-CCSD
   Frank Weinhold                                : gennbo (NPA and NBO analysis)
   Christopher J. Cramer and Donald G. Truhlar   : smd solvation model


 Your calculation uses the libint2 library for the computation of 2-el integrals
 For citations please refer to: http://libint.valeyev.net

 This ORCA versions uses:
   CBLAS   interface :  Fast vector & matrix operations
   LAPACKE interface :  Fast linear algebra routines
   SCALAPACK package :  Parallel linear algebra routines


Your calculation utilizes the atom-pairwise dispersion correction
with the zero-damping scheme (D30)
Cite in your paper:
S.Grimme, J.Antony, S.Ehrlich and H.Krieg, J.Chem.Phys., 132, (2010), 154104 
   

XCFun DFT library Copyright 2009-2010 Ulf Ekstrom and contributors.
See http://admol.org/xcfun for more information. This is free soft-
ware; see the source code for copying conditions. There is ABSOLUTELY
NO WARRANTY; not even for MERCHANTABILITY or FITNESS FOR A PARTICULAR
PURPOSE. For details see the documentation. Scientific users of this 
library should cite U. Ekstrom, L. Visscher, R. Bast, A. J. Thorvald-
sen and K. Ruud; J.Chem.Theor.Comp. 2010, DOI: 10.1021/ct100117s
XCFun Version 0.99 
Your calculation utilizes the basis: 6-31G(d)
   H-He, Li-Ne : W. J. Hehre, R. Ditchfield and J.A. Pople, J. Chem. Phys. 56, 2257 (1972).
                 Note: He and Ne are unpublished basis sets taken from the Gaussian program.
                 Note: Li and B from J. D. Dill and J. A. Pople, J. Chem. Phys. 62, 2921 (1975).
   Na - Ar     : M. M. Francl, W. J. Pietro, W. J. Hehre, J. S. Binkley, M. S. Gordon, 
                 D. J. DeFrees and J. A. Pople, J. Chem. Phys. 77, 3654 (1982).
   K - Zn      : V. A. Rassolov, J. A. Pople, M. A. Ratner, and T. L. Windus, J. Chem. Phys. 109, 1223 (1998).

================================================================================
                                        WARNINGS
                       Please study these warnings very carefully!
================================================================================

Warning: TCutStore was < 0. Adjusted to Thresh (uncritical)

INFO   : the flag for use of LIBINT has been found!

================================================================================
                                       INPUT FILE
================================================================================
NAME = initial39.inp
|  1> ! WB97X-D3 6-31G(d) VerySlowConv
|  2> ! KDIIS NOSOSCF
|  3> %base "Scan_39"
|  4> 
|  5> %scf
|  6> maxiter 999
|  7> end
|  8> 
|  9> * xyz 0 1
| 10> N         -0.861589252842   -1.700933252201    0.749317342243
| 11> H          1.103249621611    1.882648363716   -0.852985528489
| 12> H          0.374339705542    2.362343595636   -0.316562941971
| 13> H         -0.414150074311    2.640161292849    0.275271128217
| 14> **                         ****END OF INPUT****
================================================================================

                       ****************************
                       * Single Point Calculation *
                       ****************************

---------------------------------
CARTESIAN COORDINATES (ANGSTROEM)
---------------------------------
  N     -0.861589   -1.700933    0.749317
  H      1.103250    1.882648   -0.852986
  H      0.374340    2.362344   -0.316563
  H     -0.414150    2.640161    0.275271

----------------------------
CARTESIAN COORDINATES (A.U.)
----------------------------
  NO LB      ZA    FRAG     MASS         X           Y           Z
   0 N     7.0000    0    14.007   -1.628168   -3.214298    1.416005
   1 H     1.0000    0     1.008    2.084840    3.557690   -1.611909
   2 H     1.0000    0     1.008    0.707400    4.464182   -0.598217
   3 H     1.0000    0     1.008   -0.782630    4.989182    0.520187

--------------------------------
INTERNAL COORDINATES (ANGSTROEM)
--------------------------------
 N      0   0   0     0.000000000000     0.00000000     0.00000000
 H      1   0   0     4.389763489080     0.00000000     0.00000000
 H      2   1   0     1.024288227306    82.68273591     0.00000000
 H      3   2   1     1.024288227235   167.80183968     0.80959918

---------------------------
INTERNAL COORDINATES (A.U.)
---------------------------
 N      0   0   0     0.000000000000     0.00000000     0.00000000
 H      1   0   0     8.295450787047     0.00000000     0.00000000
 H      2   1   0     1.935624231808    82.68273591     0.00000000
 H      3   2   1     1.935624231674   167.80183968     0.80959918

---------------------
BASIS SET INFORMATION
---------------------
There are 2 groups of distinct atoms

 Group   1 Type N   : 10s4p1d contracted to 3s2p1d pattern {631/31/1}
 Group   2 Type H   : 4s contracted to 2s pattern {31}

Atom   0N    basis set group =>   1
Atom   1H    basis set group =>   2
Atom   2H    basis set group =>   2
Atom   3H    basis set group =>   2
------------------------------------------------------------------------------
                           ORCA GTO INTEGRAL CALCULATION
------------------------------------------------------------------------------

                         BASIS SET STATISTICS AND STARTUP INFO

 # of primitive gaussian shells          ...   27
 # of primitive gaussian functions       ...   39
 # of contracted shells                  ...   12
 # of contracted basis functions         ...   20
 Highest angular momentum                ...    2
 Maximum contraction depth               ...    6
 Integral package used                   ... LIBINT
 Integral threshhold            Thresh   ...  1.000e-10
 Primitive cut-off              TCut     ...  1.000e-11


------------------------------ INTEGRAL EVALUATION ----------------------------


 * One electron integrals 
 Pre-screening matrix                    ... done
 Shell pair data                         ... done (   0.000 sec)

-------------------------------------------------------------------------------
                                 ORCA SCF
-------------------------------------------------------------------------------

------------
SCF SETTINGS
------------
Hamiltonian:
 Density Functional     Method          .... DFT(GTOs)
 Exchange Functional    Exchange        .... WB97X-D3
 Correlation Functional Correlation     .... WB97X-D3
 Gradients option       PostSCFGGA      .... off
 Hybrid DFT is turned on
   Fraction HF Exchange ScalHFX         ....  0.195728
   Scaling of DF-GGA-X  ScalDFX         ....  0.000000
   Scaling of DF-GGA-C  ScalDFC         ....  1.000000
   Scaling of DF-LDA-C  ScalLDAC        ....  1.000000
   Perturbative correction              ....  0.000000
 Long-range corrected/Screened/Range-Separated Hybrid DFT is turned on
   Amount of maximum screened exact exchange              ....  0.804272
   Range separation parameter mu (erf(mu*r12)/r12)        ....  0.250000


General Settings:
 Integral files         IntName         .... Scan_39
 Hartree-Fock type      HFTyp           .... RHF
 Total Charge           Charge          ....    0
 Multiplicity           Mult            ....    1
 Number of Electrons    NEL             ....   10
 Basis Dimension        Dim             ....   20
 Nuclear Repulsion      ENuc            ....      3.8266653332 Eh

Convergence Acceleration:
 DIIS                   CNVDIIS         .... on
   Start iteration      DIISMaxIt       ....     0
   Startup error        DIISStart       ....  0.200000
   # of expansion vecs  DIISMaxEq       ....     5
   Bias factor          DIISBfac        ....   1.050
   Max. coefficient     DIISMaxC        ....  10.000
 Newton-Raphson         CNVNR           .... off
 SOSCF                  CNVSOSCF        .... off
 Level Shifting         CNVShift        .... off
 Zerner damping         CNVZerner       .... off
 Static damping         CNVDamp         .... off
 Fernandez-Rico         CNVRico         .... off

SCF Procedure:
 Maximum # iterations   MaxIter         ....   999
 SCF integral mode      SCFMode         .... Direct
   Integral package                     .... LIBINT
 Reset frequeny         DirectResetFreq ....    20
 Integral Threshold     Thresh          ....  1.000e-10 Eh
 Primitive CutOff       TCut            ....  1.000e-11 Eh

Convergence Tolerance:
 Convergence Check Mode ConvCheckMode   .... All-Criteria
 Convergence forced     ConvForced      .... 0
 Energy Change          TolE            ....  1.000e-06 Eh
 Max Density Change     TolMaxP         ....  1.000e-05
 RMS Density Change     TolRMSP         ....  1.000e-06
 DIIS Error             TolErr          ....  1.000e-06


Diagonalization of the overlap matrix:
Smallest eigenvalue                        ... 6.300e-02
Time for diagonalization                   ...    0.000 sec
Threshold for overlap eigenvalues          ... 1.000e-08
Number of eigenvalues below threshold      ... 0
Time for construction of square roots      ...    0.005 sec
Total time needed                          ...    0.006 sec

-------------------
DFT GRID GENERATION
-------------------

General Integration Accuracy     IntAcc      ...  4.340
Radial Grid Type                 RadialGrid  ... Gauss-Chebyshev
Angular Grid (max. acc.)         AngularGrid ... Lebedev-110
Angular grid pruning method      GridPruning ... 3 (G Style)
Weight generation scheme         WeightScheme... Becke
Basis function cutoff            BFCut       ...    1.0000e-10
Integration weight cutoff        WCut        ...    1.0000e-14
Grids for H and He will be reduced by one unit

# of grid points (after initial pruning)     ...   4084 (   0.0 sec)
# of grid points (after weights+screening)   ...   4058 (   0.0 sec)
nearest neighbour list constructed           ...    0.0 sec
Grid point re-assignment to atoms done       ...    0.0 sec
Grid point division into batches done        ...    0.0 sec
Reduced shell lists constructed in    0.0 sec

Total number of grid points                  ...     4058
Total number of batches                      ...       66
Average number of points per batch           ...       61
Average number of grid points per atom       ...     1014
Average number of shells per batch           ...     8.76 (73.01%)
Average number of basis functions per batch  ...    14.01 (70.07%)
Average number of large shells per batch     ...     7.01 (80.07%)
Average number of large basis fcns per batch ...    10.99 (78.38%)
Maximum spatial batch extension              ...  25.65, 15.12, 25.65 au
Average spatial batch extension              ...   5.60,  5.71,  6.39 au

Time for grid setup =    0.019 sec

------------------------------
INITIAL GUESS: MODEL POTENTIAL
------------------------------
Loading Hartree-Fock densities                     ... done
Calculating cut-offs                               ... done
Setting up the integral package                    ... done
Initializing the effective Hamiltonian             ... done
Starting the Coulomb interaction                   ... done (   0.0 sec)
Reading the grid                                   ... done
Mapping shells                                     ... done
Starting the XC term evaluation                    ... done (   0.0 sec)
  promolecular density results
     # of electrons  =      9.996859294
     EX              =     -7.181328973
     EC              =     -0.262668024
     EX+EC           =     -7.443996997
Transforming the Hamiltonian                       ... done (   0.0 sec)
Diagonalizing the Hamiltonian                      ... done (   0.0 sec)
Back transforming the eigenvectors                 ... done (   0.0 sec)
Now organizing SCF variables                       ... done
                      ------------------
                      INITIAL GUESS DONE (   0.1 sec)
                      ------------------
--------------
SCF ITERATIONS
--------------
ITER       Energy         Delta-E        Max-DP      RMS-DP      [F,P]   Gradient Norm
               ***  Starting incremental Fock matrix formation  ***
                             ****Resetting KDIIS****
                             ****Turning on KDIIS(Cayley)****
  0    -55.7282370817   0.000000000000 0.03713445  0.00384164  0.1472871   0.115069374
  1    -55.7493386132  -0.021101531482 0.03799150  0.00428291  0.1238539   0.097018226
  2    -55.7690283014  -0.019689688193 0.05455834  0.00610586  0.0988967   0.077912804
  3    -55.7877462767  -0.018717975346 0.08861219  0.01012215  0.0621633   0.048877300
  4    -55.7999336059  -0.012187329137 0.00578732  0.00072361  0.0022513   0.001456596
                          ***Energy convergence achieved***
  5    -55.7999337403  -0.000000134385 0.00080652  0.00008810  0.0006934   0.000585118
  6    -55.7999314588   0.000002281505 0.01287530  0.00138791  0.0006924   0.000594167
  7    -55.7999052266   0.000026232128 0.00784484  0.00084798  0.0009063   0.000742804
  8    -55.7999228218  -0.000017595176 0.02300365  0.00248341  0.0006875   0.000612361
  9    -55.7998762609   0.000046560891 0.00149479  0.00021881  0.0006564   0.000365842
 10    -55.7998828629  -0.000006601999 0.00075427  0.00009781  0.0006572   0.000352834
 11    -55.7998873054  -0.000004442518 0.00861488  0.00111816  0.0006593   0.000353488
 12    -55.7998369227   0.000050382767 0.03122281  0.00420185  0.0006285   0.000352801
 13    -55.7996751653   0.000161757392 0.00468744  0.00068082  0.0004764   0.000398729
 14    -55.7996974337  -0.000022268411 0.01390672  0.00209201  0.0005020   0.000397455
 15    -55.7996354190   0.000062014633 0.00091848  0.00012357  0.0004234   0.000322710
 16    -55.7996339409   0.000001478169 0.00846773  0.00116618  0.0004219   0.000314632
 17    -55.7995999919   0.000033948930 0.00210377  0.00033359  0.0003677   0.000319492
 18    -55.7996049104  -0.000004918489 0.00557762  0.00099503  0.0003759   0.000318435
 19    -55.7996258588  -0.000020948368 0.00044441  0.00006066  0.0004104   0.000278215
               *** Restarting incremental Fock matrix formation ***
                             ****Resetting KDIIS****
 20    -55.7996277580  -0.000001899154 0.00009954  0.00001540  0.0004124   0.000268329
                          ***Energy convergence achieved***
 21    -55.7996282210  -0.000000463044 0.00006673  0.00001180  0.0004129   0.000269502
 22    -55.7996283871  -0.000000166100 0.00023552  0.00003545  0.0004131   0.000258424
 23    -55.7996292453  -0.000000858244 0.00576200  0.00090584  0.0004144   0.000249691
 24    -55.7996069543   0.000022291081 0.00029252  0.00004672  0.0003801   0.000232662
 25    -55.7996080147  -0.000001060471 0.00228528  0.00030097  0.0003815   0.000231717
 26    -55.7995994108   0.000008603974 0.00244380  0.00031492  0.0003697   0.000228752
 27    -55.7995906640   0.000008746767 0.00005810  0.00001000  0.0003576   0.000226982
                          ***Energy convergence achieved***
 28    -55.7995908821  -0.000000218109 0.01004504  0.00129933  0.0003579   0.000229593
 29    -55.7995575679   0.000033314214 0.00953315  0.00127679  0.0003019   0.000208123
 30    -55.7995310170   0.000026550866 0.00012579  0.00001875  0.0002439   0.000199747
                          ***Energy convergence achieved***
 31    -55.7995310150   0.000000001992 0.00163065  0.00021946  0.0002436   0.000205589
 32    -55.7995343060  -0.000003290921 0.00270989  0.00037533  0.0002482   0.000201179
 33    -55.7995266454   0.000007660582 0.00017078  0.00002220  0.0002339   0.000200528
                          ***Energy convergence achieved***
 34    -55.7995270365  -0.000000391168 0.00427376  0.00059686  0.0002343   0.000210073
 35    -55.7995155459   0.000011490691 0.00746515  0.00103341  0.0002088   0.000182872
 36    -55.7994992651   0.000016280753 0.01027331  0.00146841  0.0001968   0.000186268
 37    -55.7994829334   0.000016331748 0.00353151  0.00054658  0.0002730   0.000200000
 38    -55.7994767223   0.000006211006 0.00949087  0.00142931  0.0002071   0.000173092
 39    -55.7994672768   0.000009445529 0.00130827  0.00021334  0.0002043   0.000138671
               *** Restarting incremental Fock matrix formation ***
                             ****Resetting KDIIS****
                          ***Energy convergence achieved***
 40    -55.7994671486   0.000000128220 0.00006790  0.00001086  0.0002924   0.000170595
 41    -55.7994673729  -0.000000224271 0.00006859  0.00001191  0.0003398   0.000185864
 42    -55.7994672391   0.000000133779 0.00033679  0.00005666  0.0002790   0.000160211
 43    -55.7994674814  -0.000000242328 0.00222343  0.00030539  0.0001707   0.000126016
 44    -55.7994693610  -0.000001879619 0.00373690  0.00039864  0.0000973   0.000078018
                          ***Energy convergence achieved***
 45    -55.7994684251   0.000000935905 0.00095295  0.00010302  0.0000890   0.000059878

            ***Energy convergence in two consecutive cycles with***
                    ***'reasonable' density convergence***
                       *** signaling convergence ***

                    *** KDIIS BlockDiag ( 0.000 sec) ***

               *****************************************************
               *                     SUCCESS                       *
               *           SCF CONVERGED AFTER  46 CYCLES          *
               *****************************************************

Setting up the final grid:

General Integration Accuracy     IntAcc      ...  4.670
Radial Grid Type                 RadialGrid  ... Gauss-Chebyshev
Angular Grid (max. acc.)         AngularGrid ... Lebedev-302
Angular grid pruning method      GridPruning ... 3 (G Style)
Weight generation scheme         WeightScheme... Becke
Basis function cutoff            BFCut       ...    1.0000e-10
Integration weight cutoff        WCut        ...    1.0000e-14
Grids for H and He will be reduced by one unit

# of grid points (after initial pruning)     ...  16394 (   0.0 sec)
# of grid points (after weights+screening)   ...  16293 (   0.0 sec)
nearest neighbour list constructed           ...    0.0 sec
Grid point re-assignment to atoms done       ...    0.0 sec
Grid point division into batches done        ...    0.0 sec
Reduced shell lists constructed in    0.1 sec

Total number of grid points                  ...    16293
Total number of batches                      ...      257
Average number of points per batch           ...       63
Average number of grid points per atom       ...     4073
Average number of shells per batch           ...     7.78 (64.83%)
Average number of basis functions per batch  ...    11.99 (59.94%)
Average number of large shells per batch     ...     6.19 (79.57%)
Average number of large basis fcns per batch ...     9.38 (78.21%)
Maximum spatial batch extension              ...  21.92, 14.55, 16.92 au
Average spatial batch extension              ...   3.53,  3.43,  3.54 au

Final grid set up in    0.1 sec
Final integration                            ... done (   0.1 sec)
Change in XC energy                          ...    -0.000002684
Integrated number of electrons               ...    10.000030910
Previous integrated no of electrons          ...     9.998166229

----------------
TOTAL SCF ENERGY
----------------

Total Energy       :          -55.79947115 Eh           -1518.38080 eV

Components:
Nuclear Repulsion  :            3.82666533 Eh             104.12886 eV
Electronic Energy  :          -59.62613649 Eh           -1622.50966 eV
One Electron Energy:          -84.73280809 Eh           -2305.69693 eV
Two Electron Energy:           25.10667160 Eh             683.18727 eV

Virial components:
Potential Energy   :         -111.17014935 Eh           -3025.09356 eV
Kinetic Energy     :           55.37067820 Eh            1506.71275 eV
Virial Ratio       :            2.00774404


DFT components:
N(Alpha)           :        5.000015454899 electrons
N(Beta)            :        5.000015454899 electrons
N(Total)           :       10.000030909799 electrons
E(XC)              :       -5.174049753433 Eh       

---------------
SCF CONVERGENCE
---------------

  Last Energy change         ...   -4.2507e-08  Tolerance :   1.0000e-06
  Last MAX-Density change    ...    4.7906e-05  Tolerance :   1.0000e-05
  Last RMS-Density change    ...    6.0609e-06  Tolerance :   1.0000e-06
  Last DIIS Error            ...    9.0309e-05  Tolerance :   1.0000e-06

             **** THE GBW FILE WAS UPDATED (Scan_39.gbw) ****
             **** DENSITY FILE WAS UPDATED (Scan_39.scfp.tmp) ****
             **** ENERGY FILE WAS UPDATED (Scan_39.en.tmp) ****
----------------
ORBITAL ENERGIES
----------------

  NO   OCC          E(Eh)            E(eV) 
   0   2.0000     -14.161156      -385.3446 
   1   2.0000      -0.815192       -22.1825 
   2   2.0000      -0.486616       -13.2415 
   3   2.0000      -0.034253        -0.9321 
   4   2.0000      -0.034165        -0.9297 
   5   0.0000      -0.323051        -8.7907 
   6   0.0000       0.027561         0.7500 
   7   0.0000       0.223780         6.0894 
   8   0.0000       0.573265        15.5993 
   9   0.0000       0.676021        18.3955 
  10   0.0000       0.825530        22.4638 
  11   0.0000       1.057625        28.7794 
  12   0.0000       1.067319        29.0432 
  13   0.0000       1.067395        29.0453 
  14   0.0000       1.147445        31.2236 
  15   0.0000       2.127709        57.8979 
  16   0.0000       2.131188        57.9926 
  17   0.0000       2.131210        57.9932 
  18   0.0000       2.170575        59.0644 
  19   0.0000       2.170589        59.0647 

                    ********************************
                    * MULLIKEN POPULATION ANALYSIS *
                    ********************************

-----------------------
MULLIKEN ATOMIC CHARGES
-----------------------
   0 N :   -0.999963
   1 H :    0.608423
   2 H :   -0.216915
   3 H :    0.608455
Sum of atomic charges:   -0.0000000

--------------------------------
MULLIKEN REDUCED ORBITAL CHARGES
--------------------------------
  0 N s       :     3.999242  s :     3.999242
      pz      :     1.899811  p :     4.000465
      px      :     1.797627
      py      :     0.303027
      dz2     :     0.000045  d :     0.000256
      dxz     :     0.000005
      dyz     :     0.000036
      dx2y2   :     0.000104
      dxy     :     0.000066
  1 H s       :     0.391577  s :     0.391577
  2 H s       :     1.216915  s :     1.216915
  3 H s       :     0.391545  s :     0.391545


                     *******************************
                     * LOEWDIN POPULATION ANALYSIS *
                     *******************************

----------------------
LOEWDIN ATOMIC CHARGES
----------------------
   0 N :   -0.999966
   1 H :    0.523440
   2 H :   -0.046914
   3 H :    0.523440

-------------------------------
LOEWDIN REDUCED ORBITAL CHARGES
-------------------------------
  0 N s       :     3.999242  s :     3.999242
      pz      :     1.899811  p :     4.000467
      px      :     1.797629
      py      :     0.303027
      dz2     :     0.000045  d :     0.000256
      dxz     :     0.000005
      dyz     :     0.000036
      dx2y2   :     0.000104
      dxy     :     0.000066
  1 H s       :     0.476560  s :     0.476560
  2 H s       :     1.046914  s :     1.046914
  3 H s       :     0.476560  s :     0.476560


                      *****************************
                      * MAYER POPULATION ANALYSIS *
                      *****************************

  NA   - Mulliken gross atomic population
  ZA   - Total nuclear charge
  QA   - Mulliken gross atomic charge
  VA   - Mayer's total valence
  BVA  - Mayer's bonded valence
  FA   - Mayer's free valence

  ATOM       NA         ZA         QA         VA         BVA        FA
  0 N      8.0000     7.0000    -1.0000     0.0001     0.0001    -0.0000
  1 H      0.3916     1.0000     0.6084     0.6298     0.6298    -0.0000
  2 H      1.2169     1.0000    -0.2169     0.9529     0.9529    -0.0000
  3 H      0.3915     1.0000     0.6085     0.6298     0.6298    -0.0000

  Mayer bond orders larger than 0.1
B(  1-H ,  2-H ) :   0.4765 B(  1-H ,  3-H ) :   0.1533 B(  2-H ,  3-H ) :   0.4764 


-------
TIMINGS
-------

Total SCF time: 0 days 0 hours 0 min 10 sec 

Total time                  ....      10.270 sec
Sum of individual times     ....       9.866 sec  ( 96.1%)

Fock matrix formation       ....       9.640 sec  ( 93.9%)
  XC integration            ....       1.889 sec  ( 19.6% of F)
    Basis function eval.    ....       0.352 sec  ( 18.6% of XC)
    Density eval.           ....       0.081 sec  (  4.3% of XC)
    XC-Functional eval.     ....       0.575 sec  ( 30.5% of XC)
    XC-Potential eval.      ....       0.025 sec  (  1.3% of XC)
Diagonalization             ....       0.010 sec  (  0.1%)
Density matrix formation    ....       0.000 sec  (  0.0%)
Population analysis         ....       0.011 sec  (  0.1%)
Initial guess               ....       0.091 sec  (  0.9%)
Orbital Transformation      ....       0.000 sec  (  0.0%)
Orbital Orthonormalization  ....       0.000 sec  (  0.0%)
DIIS solution               ....       0.000 sec  (  0.0%)
Grid generation             ....       0.113 sec  (  1.1%)


-------------------------------------------------------------------------------
                          DFT DISPERSION CORRECTION                            
                                                                               
                              DFTD3 V3.1  Rev 1                                
                              USING zero damping                               
-------------------------------------------------------------------------------
The omegaB97X-D3 functional is recognized. Fit by Chai et al.
Active option DFTDOPT                   ...         3   

molecular C6(AA) [au] = 169.394396 


            DFT-D V3
 parameters
 s6 scaling factor         :     1.0000 
 rs6 scaling factor        :     1.2810 
 s8 scaling factor         :     1.0000 
 rs8 scaling factor        :     1.0940 
 Damping factor alpha6     :    14.0000 
 Damping factor alpha8     :    16.0000 
 ad hoc parameters k1-k3   :    16.0000     1.3333    -4.0000 

 Edisp/kcal,au: -0.110025081747  -0.000175336110 
 E6   /kcal   :  -0.076854076 
 E8   /kcal   :  -0.033171006 
 % E8         :  30.148585386 

-------------------------   ----------------
Dispersion correction           -0.000175336
-------------------------   ----------------


-------------------------   --------------------
FINAL SINGLE POINT ENERGY       -55.799646488094
-------------------------   --------------------


                            ***************************************
                            *     ORCA property calculations      *
                            ***************************************

                                    ---------------------
                                    Active property flags
                                    ---------------------
   (+) Dipole Moment


------------------------------------------------------------------------------
                       ORCA ELECTRIC PROPERTIES CALCULATION
------------------------------------------------------------------------------

Dipole Moment Calculation                       ... on
Quadrupole Moment Calculation                   ... off
Polarizability Calculation                      ... off
GBWName                                         ... Scan_39.gbw
Electron density file                           ... Scan_39.scfp.tmp

-------------
DIPOLE MOMENT
-------------
                                X             Y             Z
Electronic contribution:     -0.56232      -1.84746       0.48495
Nuclear contribution   :      2.81375       9.24594      -2.42350
                        -----------------------------------------
Total Dipole Moment    :      2.25143       7.39848      -1.93856
                        -----------------------------------------
Magnitude (a.u.)       :      7.97273
Magnitude (Debye)      :     20.26508


Timings for individual modules:

Sum of individual times         ...       10.566 sec (=   0.176 min)
GTO integral calculation        ...        0.277 sec (=   0.005 min)   2.6 %
SCF iterations                  ...       10.289 sec (=   0.171 min)  97.4 %
                             ****ORCA TERMINATED NORMALLY****
TOTAL RUN TIME: 0 days 0 hours 0 minutes 10 seconds 870 msec
