
                                 *****************
                                 * O   R   C   A *
                                 *****************

           --- An Ab Initio, DFT and Semiempirical electronic structure package ---

                  #######################################################
                  #                        -***-                        #
                  #  Department of molecular theory and spectroscopy    #
                  #              Directorship: Frank Neese              #
                  # Max Planck Institute for Chemical Energy Conversion #
                  #                  D-45470 Muelheim/Ruhr              #
                  #                       Germany                       #
                  #                                                     #
                  #                  All rights reserved                #
                  #                        -***-                        #
                  #######################################################


                         Program Version 4.0.0.2 - RELEASE -


 With contributions from (in alphabetic order):
   Daniel Aravena         : Magnetic Properties
   Michael Atanasov       : Ab Initio Ligand Field Theory
   Ute Becker             : Parallelization
   Martin Brehm           : Molecular dynamics
   Dmytro Bykov           : SCF Hessian
   Vijay G. Chilkuri      : MRCI spin determinant printing
   Dipayan Datta          : RHF DLPNO-CCSD density
   Achintya Kumar Dutta   : EOM-CC, STEOM-CC
   Dmitry Ganyushin       : Spin-Orbit,Spin-Spin,Magnetic field MRCI
   Yang Guo               : DLPNO-NEVPT2, CIM, IAO-localization
   Andreas Hansen         : Spin unrestricted coupled pair/coupled cluster methods
   Lee Huntington         : MR-EOM, pCC
   Robert Izsak           : Overlap fitted RIJCOSX, COSX-SCS-MP3, EOM
   Christian Kollmar      : KDIIS, OOCD, Brueckner-CCSD(T), CCSD density
   Simone Kossmann        : Meta GGA functionals, TD-DFT gradient, OOMP2, MP2 Hessian
   Martin Krupicka        : AUTO-CI
   Dagmar Lenk            : GEPOL surface
   Dimitrios Liakos       : Extrapolation schemes; parallel MDCI
   Dimitrios Manganas     : ROCIS; embedding schemes
   Dimitrios Pantazis     : SARC Basis sets
   Taras Petrenko         : DFT Hessian,TD-DFT gradient, ASA, ECA, R-Raman, ABS, FL, XAS/XES, NRVS
   Peter Pinski           : DLPNO-MP2
   Christoph Reimann      : Effective Core Potentials
   Marius Retegan         : Local ZFS, SOC
   Christoph Riplinger    : Optimizer, TS searches, QM/MM, DLPNO-CCSD(T), (RO)-DLPNO pert. Triples
   Tobias Risthaus        : Range-separated hybrids, TD-DFT gradient, RPA, STAB
   Michael Roemelt        : Restricted open shell CIS
   Masaaki Saitow         : Open-shell DLPNO
   Barbara Sandhoefer     : DKH picture change effects
   Kantharuban Sivalingam : CASSCF convergence, NEVPT2, FIC-MRCI
   Georgi Stoychev        : AutoAux
   Boris Wezisla          : Elementary symmetry handling
   Frank Wennmohs         : Technical directorship


 We gratefully acknowledge several colleagues who have allowed us to
 interface, adapt or use parts of their codes:
   Stefan Grimme, W. Hujo, H. Kruse,             : VdW corrections, initial TS optimization,
                  C. Bannwarth                     DFT functionals, gCP, sTDA/sTD-DF
   Ed Valeev                                     : LibInt (2-el integral package), F12 methods
   Garnet Chan, S. Sharma, J. Yang, R. Olivares  : DMRG
   Ulf Ekstrom                                   : XCFun DFT Library
   Mihaly Kallay                                 : mrcc  (arbitrary order and MRCC methods)
   Jiri Pittner, Ondrej Demel                    : Mk-CCSD
   Frank Weinhold                                : gennbo (NPA and NBO analysis)
   Christopher J. Cramer and Donald G. Truhlar   : smd solvation model


 Your calculation uses the libint2 library for the computation of 2-el integrals
 For citations please refer to: http://libint.valeyev.net

 This ORCA versions uses:
   CBLAS   interface :  Fast vector & matrix operations
   LAPACKE interface :  Fast linear algebra routines
   SCALAPACK package :  Parallel linear algebra routines


Your calculation utilizes the atom-pairwise dispersion correction
with the zero-damping scheme (D30)
Cite in your paper:
S.Grimme, J.Antony, S.Ehrlich and H.Krieg, J.Chem.Phys., 132, (2010), 154104 
   

XCFun DFT library Copyright 2009-2010 Ulf Ekstrom and contributors.
See http://admol.org/xcfun for more information. This is free soft-
ware; see the source code for copying conditions. There is ABSOLUTELY
NO WARRANTY; not even for MERCHANTABILITY or FITNESS FOR A PARTICULAR
PURPOSE. For details see the documentation. Scientific users of this 
library should cite U. Ekstrom, L. Visscher, R. Bast, A. J. Thorvald-
sen and K. Ruud; J.Chem.Theor.Comp. 2010, DOI: 10.1021/ct100117s
XCFun Version 0.99 
Your calculation utilizes the basis: 6-31G(d)
   H-He, Li-Ne : W. J. Hehre, R. Ditchfield and J.A. Pople, J. Chem. Phys. 56, 2257 (1972).
                 Note: He and Ne are unpublished basis sets taken from the Gaussian program.
                 Note: Li and B from J. D. Dill and J. A. Pople, J. Chem. Phys. 62, 2921 (1975).
   Na - Ar     : M. M. Francl, W. J. Pietro, W. J. Hehre, J. S. Binkley, M. S. Gordon, 
                 D. J. DeFrees and J. A. Pople, J. Chem. Phys. 77, 3654 (1982).
   K - Zn      : V. A. Rassolov, J. A. Pople, M. A. Ratner, and T. L. Windus, J. Chem. Phys. 109, 1223 (1998).

================================================================================
                                        WARNINGS
                       Please study these warnings very carefully!
================================================================================

Warning: TCutStore was < 0. Adjusted to Thresh (uncritical)

INFO   : the flag for use of LIBINT has been found!

================================================================================
                                       INPUT FILE
================================================================================
NAME = initial40.inp
|  1> ! WB97X-D3 6-31G(d) VerySlowConv
|  2> ! KDIIS NOSOSCF
|  3> %base "Scan_40"
|  4> 
|  5> %scf
|  6> maxiter 999
|  7> end
|  8> 
|  9> * xyz 0 1
| 10> N         -0.883550019592   -1.773307978838    0.768374646288
| 11> H          1.110331897487    1.907007856128   -0.861863932641
| 12> H          0.383826286678    2.385155475918   -0.319120302875
| 13> H         -0.408758164573    2.665364646791    0.267649589228
| 14> **                         ****END OF INPUT****
================================================================================

                       ****************************
                       * Single Point Calculation *
                       ****************************

---------------------------------
CARTESIAN COORDINATES (ANGSTROEM)
---------------------------------
  N     -0.883550   -1.773308    0.768375
  H      1.110332    1.907008   -0.861864
  H      0.383826    2.385155   -0.319120
  H     -0.408758    2.665365    0.267650

----------------------------
CARTESIAN COORDINATES (A.U.)
----------------------------
  NO LB      ZA    FRAG     MASS         X           Y           Z
   0 N     7.0000    0    14.007   -1.669668   -3.351066    1.452018
   1 H     1.0000    0     1.008    2.098223    3.603723   -1.628687
   2 H     1.0000    0     1.008    0.725327    4.507291   -0.603050
   3 H     1.0000    0     1.008   -0.772441    5.036809    0.505784

--------------------------------
INTERNAL COORDINATES (ANGSTROEM)
--------------------------------
 N      0   0   0     0.000000000000     0.00000000     0.00000000
 H      1   0   0     4.491989266303     0.00000000     0.00000000
 H      2   1   0     1.025185932648    82.84440873     0.00000000
 H      3   2   1     1.025185933421   168.05909454   357.39558652

---------------------------
INTERNAL COORDINATES (A.U.)
---------------------------
 N      0   0   0     0.000000000000     0.00000000     0.00000000
 H      1   0   0     8.488629509827     0.00000000     0.00000000
 H      2   1   0     1.937320649053    82.84440873     0.00000000
 H      3   2   1     1.937320650515   168.05909454   357.39558652

---------------------
BASIS SET INFORMATION
---------------------
There are 2 groups of distinct atoms

 Group   1 Type N   : 10s4p1d contracted to 3s2p1d pattern {631/31/1}
 Group   2 Type H   : 4s contracted to 2s pattern {31}

Atom   0N    basis set group =>   1
Atom   1H    basis set group =>   2
Atom   2H    basis set group =>   2
Atom   3H    basis set group =>   2
------------------------------------------------------------------------------
                           ORCA GTO INTEGRAL CALCULATION
------------------------------------------------------------------------------

                         BASIS SET STATISTICS AND STARTUP INFO

 # of primitive gaussian shells          ...   27
 # of primitive gaussian functions       ...   39
 # of contracted shells                  ...   12
 # of contracted basis functions         ...   20
 Highest angular momentum                ...    2
 Maximum contraction depth               ...    6
 Integral package used                   ... LIBINT
 Integral threshhold            Thresh   ...  1.000e-10
 Primitive cut-off              TCut     ...  1.000e-11


------------------------------ INTEGRAL EVALUATION ----------------------------


 * One electron integrals 
 Pre-screening matrix                    ... done
 Shell pair data                         ... done (   0.000 sec)

-------------------------------------------------------------------------------
                                 ORCA SCF
-------------------------------------------------------------------------------

------------
SCF SETTINGS
------------
Hamiltonian:
 Density Functional     Method          .... DFT(GTOs)
 Exchange Functional    Exchange        .... WB97X-D3
 Correlation Functional Correlation     .... WB97X-D3
 Gradients option       PostSCFGGA      .... off
 Hybrid DFT is turned on
   Fraction HF Exchange ScalHFX         ....  0.195728
   Scaling of DF-GGA-X  ScalDFX         ....  0.000000
   Scaling of DF-GGA-C  ScalDFC         ....  1.000000
   Scaling of DF-LDA-C  ScalLDAC        ....  1.000000
   Perturbative correction              ....  0.000000
 Long-range corrected/Screened/Range-Separated Hybrid DFT is turned on
   Amount of maximum screened exact exchange              ....  0.804272
   Range separation parameter mu (erf(mu*r12)/r12)        ....  0.250000


General Settings:
 Integral files         IntName         .... Scan_40
 Hartree-Fock type      HFTyp           .... RHF
 Total Charge           Charge          ....    0
 Multiplicity           Mult            ....    1
 Number of Electrons    NEL             ....   10
 Basis Dimension        Dim             ....   20
 Nuclear Repulsion      ENuc            ....      3.7677212741 Eh

Convergence Acceleration:
 DIIS                   CNVDIIS         .... on
   Start iteration      DIISMaxIt       ....     0
   Startup error        DIISStart       ....  0.200000
   # of expansion vecs  DIISMaxEq       ....     5
   Bias factor          DIISBfac        ....   1.050
   Max. coefficient     DIISMaxC        ....  10.000
 Newton-Raphson         CNVNR           .... off
 SOSCF                  CNVSOSCF        .... off
 Level Shifting         CNVShift        .... off
 Zerner damping         CNVZerner       .... off
 Static damping         CNVDamp         .... off
 Fernandez-Rico         CNVRico         .... off

SCF Procedure:
 Maximum # iterations   MaxIter         ....   999
 SCF integral mode      SCFMode         .... Direct
   Integral package                     .... LIBINT
 Reset frequeny         DirectResetFreq ....    20
 Integral Threshold     Thresh          ....  1.000e-10 Eh
 Primitive CutOff       TCut            ....  1.000e-11 Eh

Convergence Tolerance:
 Convergence Check Mode ConvCheckMode   .... All-Criteria
 Convergence forced     ConvForced      .... 0
 Energy Change          TolE            ....  1.000e-06 Eh
 Max Density Change     TolMaxP         ....  1.000e-05
 RMS Density Change     TolRMSP         ....  1.000e-06
 DIIS Error             TolErr          ....  1.000e-06


Diagonalization of the overlap matrix:
Smallest eigenvalue                        ... 6.310e-02
Time for diagonalization                   ...    0.000 sec
Threshold for overlap eigenvalues          ... 1.000e-08
Number of eigenvalues below threshold      ... 0
Time for construction of square roots      ...    0.007 sec
Total time needed                          ...    0.008 sec

-------------------
DFT GRID GENERATION
-------------------

General Integration Accuracy     IntAcc      ...  4.340
Radial Grid Type                 RadialGrid  ... Gauss-Chebyshev
Angular Grid (max. acc.)         AngularGrid ... Lebedev-110
Angular grid pruning method      GridPruning ... 3 (G Style)
Weight generation scheme         WeightScheme... Becke
Basis function cutoff            BFCut       ...    1.0000e-10
Integration weight cutoff        WCut        ...    1.0000e-14
Grids for H and He will be reduced by one unit

# of grid points (after initial pruning)     ...   4084 (   0.0 sec)
# of grid points (after weights+screening)   ...   4059 (   0.0 sec)
nearest neighbour list constructed           ...    0.0 sec
Grid point re-assignment to atoms done       ...    0.0 sec
Grid point division into batches done        ...    0.0 sec
Reduced shell lists constructed in    0.0 sec

Total number of grid points                  ...     4059
Total number of batches                      ...       66
Average number of points per batch           ...       61
Average number of grid points per atom       ...     1015
Average number of shells per batch           ...     8.70 (72.51%)
Average number of basis functions per batch  ...    13.96 (69.78%)
Average number of large shells per batch     ...     6.88 (79.07%)
Average number of large basis fcns per batch ...    10.70 (76.68%)
Maximum spatial batch extension              ...  25.65, 15.12, 25.65 au
Average spatial batch extension              ...   5.60,  5.63,  6.23 au

Time for grid setup =    0.023 sec

------------------------------
INITIAL GUESS: MODEL POTENTIAL
------------------------------
Loading Hartree-Fock densities                     ... done
Calculating cut-offs                               ... done
Setting up the integral package                    ... done
Initializing the effective Hamiltonian             ... done
Starting the Coulomb interaction                   ... done (   0.0 sec)
Reading the grid                                   ... done
Mapping shells                                     ... done
Starting the XC term evaluation                    ... done (   0.0 sec)
  promolecular density results
     # of electrons  =      9.996971457
     EX              =     -7.181224420
     EC              =     -0.262647400
     EX+EC           =     -7.443871820
Transforming the Hamiltonian                       ... done (   0.0 sec)
Diagonalizing the Hamiltonian                      ... done (   0.0 sec)
Back transforming the eigenvectors                 ... done (   0.0 sec)
Now organizing SCF variables                       ... done
                      ------------------
                      INITIAL GUESS DONE (   0.1 sec)
                      ------------------
--------------
SCF ITERATIONS
--------------
ITER       Energy         Delta-E        Max-DP      RMS-DP      [F,P]   Gradient Norm
               ***  Starting incremental Fock matrix formation  ***
                             ****Resetting KDIIS****
                             ****Turning on KDIIS(Cayley)****
  0    -55.7253669376   0.000000000000 0.03690308  0.00382565  0.1326528   0.115052111
  1    -55.7463693577  -0.021002420170 0.03712103  0.00413350  0.1116019   0.097030019
  2    -55.7653396765  -0.018970318788 0.05478405  0.00608255  0.0896669   0.078201650
  3    -55.7846410431  -0.019301366562 0.08890833  0.01011682  0.0564248   0.049080210
  4    -55.7971621265  -0.012521083439 0.00445260  0.00058446  0.0019289   0.001289297
                          ***Energy convergence achieved***
  5    -55.7971627276  -0.000000601097 0.00089340  0.00009969  0.0006418   0.000489752
  6    -55.7971654102  -0.000002682557 0.01024186  0.00112928  0.0006426   0.000490003
  7    -55.7971433313   0.000022078898 0.00031789  0.00004216  0.0006283   0.000508716
  8    -55.7971453251  -0.000001993811 0.01160596  0.00127935  0.0006292   0.000512309
  9    -55.7971254795   0.000019845610 0.00105428  0.00017341  0.0006128   0.000327500
 10    -55.7971312062  -0.000005726671 0.00028131  0.00003725  0.0006144   0.000322302
 11    -55.7971296425   0.000001563697 0.01355192  0.00185181  0.0006133   0.000322403
 12    -55.7970567268   0.000072915628 0.00683402  0.00096240  0.0005558   0.000322616
 13    -55.7970232795   0.000033447303 0.02002460  0.00282250  0.0005208   0.000359476
 14    -55.7969328239   0.000090455678 0.00216336  0.00032369  0.0004157   0.000343053
 15    -55.7969418080  -0.000008984191 0.01066145  0.00157019  0.0004196   0.000328280
 16    -55.7969886726  -0.000046864558 0.02253004  0.00324024  0.0004809   0.000370334
 17    -55.7968946116   0.000094060990 0.05606414  0.00919014  0.0004141   0.000418957
 18    -55.7967943780   0.000100233592 0.00066202  0.00011520  0.0008502   0.000563878
 19    -55.7967957349  -0.000001356926 0.00313295  0.00046477  0.0004639   0.000349628
               *** Restarting incremental Fock matrix formation ***
                             ****Resetting KDIIS****
                          ***Energy convergence achieved***
 20    -55.7967958020  -0.000000067045 0.00013241  0.00001682  0.0002778   0.000265891
 21    -55.7967960712  -0.000000269162 0.00010686  0.00001612  0.0003231   0.000259097
 22    -55.7967960002   0.000000070925 0.00034439  0.00004344  0.0002683   0.000207875
 23    -55.7967959724   0.000000027870 0.00280939  0.00039267  0.0001849   0.000147709
 24    -55.7967944118   0.000001560569 0.00151350  0.00021202  0.0000847   0.000079207
                          ***Energy convergence achieved***
 25    -55.7967942341   0.000000177691 0.00057043  0.00010378  0.0000842   0.000055798
 26    -55.7967948405  -0.000000606354 0.00032669  0.00005630  0.0000866   0.000052877

            ***Energy convergence in two consecutive cycles with***
                    ***'reasonable' density convergence***
                       *** signaling convergence ***

                    *** KDIIS BlockDiag ( 0.000 sec) ***

               *****************************************************
               *                     SUCCESS                       *
               *           SCF CONVERGED AFTER  27 CYCLES          *
               *****************************************************

Setting up the final grid:

General Integration Accuracy     IntAcc      ...  4.670
Radial Grid Type                 RadialGrid  ... Gauss-Chebyshev
Angular Grid (max. acc.)         AngularGrid ... Lebedev-302
Angular grid pruning method      GridPruning ... 3 (G Style)
Weight generation scheme         WeightScheme... Becke
Basis function cutoff            BFCut       ...    1.0000e-10
Integration weight cutoff        WCut        ...    1.0000e-14
Grids for H and He will be reduced by one unit

# of grid points (after initial pruning)     ...  16394 (   0.0 sec)
# of grid points (after weights+screening)   ...  16297 (   0.0 sec)
nearest neighbour list constructed           ...    0.0 sec
Grid point re-assignment to atoms done       ...    0.0 sec
Grid point division into batches done        ...    0.0 sec
Reduced shell lists constructed in    0.1 sec

Total number of grid points                  ...    16297
Total number of batches                      ...      257
Average number of points per batch           ...       63
Average number of grid points per atom       ...     4074
Average number of shells per batch           ...     7.72 (64.34%)
Average number of basis functions per batch  ...    11.82 (59.11%)
Average number of large shells per batch     ...     6.05 (78.31%)
Average number of large basis fcns per batch ...     9.09 (76.85%)
Maximum spatial batch extension              ...  21.92, 15.46, 16.92 au
Average spatial batch extension              ...   3.58,  3.52,  3.54 au

Final grid set up in    0.1 sec
Final integration                            ... done (   0.1 sec)
Change in XC energy                          ...    -0.000001109
Integrated number of electrons               ...    10.000027126
Previous integrated no of electrons          ...     9.998350170

----------------
TOTAL SCF ENERGY
----------------

Total Energy       :          -55.79679628 Eh           -1518.30802 eV

Components:
Nuclear Repulsion  :            3.76772127 Eh             102.52491 eV
Electronic Energy  :          -59.56451756 Eh           -1620.83292 eV
One Electron Energy:          -84.62641960 Eh           -2302.80195 eV
Two Electron Energy:           25.06190204 Eh             681.96903 eV

Virial components:
Potential Energy   :         -111.16636353 Eh           -3024.99054 eV
Kinetic Energy     :           55.36956724 Eh            1506.68252 eV
Virial Ratio       :            2.00771595


DFT components:
N(Alpha)           :        5.000013562894 electrons
N(Beta)            :        5.000013562894 electrons
N(Total)           :       10.000027125789 electrons
E(XC)              :       -5.173782619224 Eh       

---------------
SCF CONVERGENCE
---------------

  Last Energy change         ...   -3.3332e-07  Tolerance :   1.0000e-06
  Last MAX-Density change    ...    2.9525e-05  Tolerance :   1.0000e-05
  Last RMS-Density change    ...    4.2439e-06  Tolerance :   1.0000e-06
  Last DIIS Error            ...    8.8152e-05  Tolerance :   1.0000e-06

             **** THE GBW FILE WAS UPDATED (Scan_40.gbw) ****
             **** DENSITY FILE WAS UPDATED (Scan_40.scfp.tmp) ****
             **** ENERGY FILE WAS UPDATED (Scan_40.en.tmp) ****
----------------
ORBITAL ENERGIES
----------------

  NO   OCC          E(Eh)            E(eV) 
   0   2.0000     -14.158584      -385.2747 
   1   2.0000      -0.817314       -22.2403 
   2   2.0000      -0.483952       -13.1690 
   3   2.0000      -0.031641        -0.8610 
   4   2.0000      -0.031558        -0.8587 
   5   0.0000      -0.325670        -8.8619 
   6   0.0000       0.024921         0.6781 
   7   0.0000       0.226559         6.1650 
   8   0.0000       0.570909        15.5352 
   9   0.0000       0.673831        18.3359 
  10   0.0000       0.823001        22.3950 
  11   0.0000       1.060267        28.8513 
  12   0.0000       1.069876        29.1128 
  13   0.0000       1.069966        29.1153 
  14   0.0000       1.149978        31.2925 
  15   0.0000       2.130417        57.9716 
  16   0.0000       2.133874        58.0657 
  17   0.0000       2.133914        58.0668 
  18   0.0000       2.173177        59.1351 
  19   0.0000       2.173198        59.1357 

                    ********************************
                    * MULLIKEN POPULATION ANALYSIS *
                    ********************************

-----------------------
MULLIKEN ATOMIC CHARGES
-----------------------
   0 N :   -0.999975
   1 H :    0.608197
   2 H :   -0.216688
   3 H :    0.608465
Sum of atomic charges:   -0.0000000

--------------------------------
MULLIKEN REDUCED ORBITAL CHARGES
--------------------------------
  0 N s       :     3.999290  s :     3.999290
      pz      :     1.890737  p :     4.000430
      px      :     1.770193
      py      :     0.339500
      dz2     :     0.000043  d :     0.000254
      dxz     :     0.000005
      dyz     :     0.000038
      dx2y2   :     0.000096
      dxy     :     0.000072
  1 H s       :     0.391803  s :     0.391803
  2 H s       :     1.216688  s :     1.216688
  3 H s       :     0.391535  s :     0.391535


                     *******************************
                     * LOEWDIN POPULATION ANALYSIS *
                     *******************************

----------------------
LOEWDIN ATOMIC CHARGES
----------------------
   0 N :   -0.999976
   1 H :    0.523376
   2 H :   -0.046988
   3 H :    0.523589

-------------------------------
LOEWDIN REDUCED ORBITAL CHARGES
-------------------------------
  0 N s       :     3.999291  s :     3.999291
      pz      :     1.890738  p :     4.000432
      px      :     1.770194
      py      :     0.339500
      dz2     :     0.000043  d :     0.000254
      dxz     :     0.000005
      dyz     :     0.000038
      dx2y2   :     0.000096
      dxy     :     0.000072
  1 H s       :     0.476624  s :     0.476624
  2 H s       :     1.046988  s :     1.046988
  3 H s       :     0.476411  s :     0.476411


                      *****************************
                      * MAYER POPULATION ANALYSIS *
                      *****************************

  NA   - Mulliken gross atomic population
  ZA   - Total nuclear charge
  QA   - Mulliken gross atomic charge
  VA   - Mayer's total valence
  BVA  - Mayer's bonded valence
  FA   - Mayer's free valence

  ATOM       NA         ZA         QA         VA         BVA        FA
  0 N      8.0000     7.0000    -1.0000     0.0001     0.0001     0.0000
  1 H      0.3918     1.0000     0.6082     0.6301     0.6301    -0.0000
  2 H      1.2167     1.0000    -0.2167     0.9530     0.9530    -0.0000
  3 H      0.3915     1.0000     0.6085     0.6298     0.6298    -0.0000

  Mayer bond orders larger than 0.1
B(  1-H ,  2-H ) :   0.4767 B(  1-H ,  3-H ) :   0.1534 B(  2-H ,  3-H ) :   0.4764 


-------
TIMINGS
-------

Total SCF time: 0 days 0 hours 0 min 7 sec 

Total time                  ....       7.542 sec
Sum of individual times     ....       7.283 sec  ( 96.6%)

Fock matrix formation       ....       6.996 sec  ( 92.8%)
  XC integration            ....       1.259 sec  ( 18.0% of F)
    Basis function eval.    ....       0.260 sec  ( 20.7% of XC)
    Density eval.           ....       0.052 sec  (  4.1% of XC)
    XC-Functional eval.     ....       0.398 sec  ( 31.7% of XC)
    XC-Potential eval.      ....       0.018 sec  (  1.4% of XC)
Diagonalization             ....       0.037 sec  (  0.5%)
Density matrix formation    ....       0.000 sec  (  0.0%)
Population analysis         ....       0.009 sec  (  0.1%)
Initial guess               ....       0.110 sec  (  1.5%)
Orbital Transformation      ....       0.000 sec  (  0.0%)
Orbital Orthonormalization  ....       0.000 sec  (  0.0%)
DIIS solution               ....       0.000 sec  (  0.0%)
Grid generation             ....       0.130 sec  (  1.7%)


-------------------------------------------------------------------------------
                          DFT DISPERSION CORRECTION                            
                                                                               
                              DFTD3 V3.1  Rev 1                                
                              USING zero damping                               
-------------------------------------------------------------------------------
The omegaB97X-D3 functional is recognized. Fit by Chai et al.
Active option DFTDOPT                   ...         3   

molecular C6(AA) [au] = 169.429133 


            DFT-D V3
 parameters
 s6 scaling factor         :     1.0000 
 rs6 scaling factor        :     1.2810 
 s8 scaling factor         :     1.0000 
 rs8 scaling factor        :     1.0940 
 Damping factor alpha6     :    14.0000 
 Damping factor alpha8     :    16.0000 
 ad hoc parameters k1-k3   :    16.0000     1.3333    -4.0000 

 Edisp/kcal,au: -0.098165348491  -0.000156436424 
 E6   /kcal   :  -0.067914575 
 E8   /kcal   :  -0.030250774 
 % E8         :  30.816142479 

-------------------------   ----------------
Dispersion correction           -0.000156436
-------------------------   ----------------


-------------------------   --------------------
FINAL SINGLE POINT ENERGY       -55.796952719291
-------------------------   --------------------


                            ***************************************
                            *     ORCA property calculations      *
                            ***************************************

                                    ---------------------
                                    Active property flags
                                    ---------------------
   (+) Dipole Moment


------------------------------------------------------------------------------
                       ORCA ELECTRIC PROPERTIES CALCULATION
------------------------------------------------------------------------------

Dipole Moment Calculation                       ... on
Quadrupole Moment Calculation                   ... off
Polarizability Calculation                      ... off
GBWName                                         ... Scan_40.gbw
Electron density file                           ... Scan_40.scfp.tmp

-------------
DIPOLE MOMENT
-------------
                                X             Y             Z
Electronic contribution:     -0.57774      -1.88359       0.49032
Nuclear contribution   :      2.88150       9.46922      -2.48230
                        -----------------------------------------
Total Dipole Moment    :      2.30376       7.58563      -1.99198
                        -----------------------------------------
Magnitude (a.u.)       :      8.17417
Magnitude (Debye)      :     20.77710


Timings for individual modules:

Sum of individual times         ...        7.875 sec (=   0.131 min)
GTO integral calculation        ...        0.310 sec (=   0.005 min)   3.9 %
SCF iterations                  ...        7.565 sec (=   0.126 min)  96.1 %
                             ****ORCA TERMINATED NORMALLY****
TOTAL RUN TIME: 0 days 0 hours 0 minutes 8 seconds 214 msec
