
                                 *****************
                                 * O   R   C   A *
                                 *****************

           --- An Ab Initio, DFT and Semiempirical electronic structure package ---

                  #######################################################
                  #                        -***-                        #
                  #  Department of molecular theory and spectroscopy    #
                  #              Directorship: Frank Neese              #
                  # Max Planck Institute for Chemical Energy Conversion #
                  #                  D-45470 Muelheim/Ruhr              #
                  #                       Germany                       #
                  #                                                     #
                  #                  All rights reserved                #
                  #                        -***-                        #
                  #######################################################


                         Program Version 4.0.0.2 - RELEASE -


 With contributions from (in alphabetic order):
   Daniel Aravena         : Magnetic Properties
   Michael Atanasov       : Ab Initio Ligand Field Theory
   Ute Becker             : Parallelization
   Martin Brehm           : Molecular dynamics
   Dmytro Bykov           : SCF Hessian
   Vijay G. Chilkuri      : MRCI spin determinant printing
   Dipayan Datta          : RHF DLPNO-CCSD density
   Achintya Kumar Dutta   : EOM-CC, STEOM-CC
   Dmitry Ganyushin       : Spin-Orbit,Spin-Spin,Magnetic field MRCI
   Yang Guo               : DLPNO-NEVPT2, CIM, IAO-localization
   Andreas Hansen         : Spin unrestricted coupled pair/coupled cluster methods
   Lee Huntington         : MR-EOM, pCC
   Robert Izsak           : Overlap fitted RIJCOSX, COSX-SCS-MP3, EOM
   Christian Kollmar      : KDIIS, OOCD, Brueckner-CCSD(T), CCSD density
   Simone Kossmann        : Meta GGA functionals, TD-DFT gradient, OOMP2, MP2 Hessian
   Martin Krupicka        : AUTO-CI
   Dagmar Lenk            : GEPOL surface
   Dimitrios Liakos       : Extrapolation schemes; parallel MDCI
   Dimitrios Manganas     : ROCIS; embedding schemes
   Dimitrios Pantazis     : SARC Basis sets
   Taras Petrenko         : DFT Hessian,TD-DFT gradient, ASA, ECA, R-Raman, ABS, FL, XAS/XES, NRVS
   Peter Pinski           : DLPNO-MP2
   Christoph Reimann      : Effective Core Potentials
   Marius Retegan         : Local ZFS, SOC
   Christoph Riplinger    : Optimizer, TS searches, QM/MM, DLPNO-CCSD(T), (RO)-DLPNO pert. Triples
   Tobias Risthaus        : Range-separated hybrids, TD-DFT gradient, RPA, STAB
   Michael Roemelt        : Restricted open shell CIS
   Masaaki Saitow         : Open-shell DLPNO
   Barbara Sandhoefer     : DKH picture change effects
   Kantharuban Sivalingam : CASSCF convergence, NEVPT2, FIC-MRCI
   Georgi Stoychev        : AutoAux
   Boris Wezisla          : Elementary symmetry handling
   Frank Wennmohs         : Technical directorship


 We gratefully acknowledge several colleagues who have allowed us to
 interface, adapt or use parts of their codes:
   Stefan Grimme, W. Hujo, H. Kruse,             : VdW corrections, initial TS optimization,
                  C. Bannwarth                     DFT functionals, gCP, sTDA/sTD-DF
   Ed Valeev                                     : LibInt (2-el integral package), F12 methods
   Garnet Chan, S. Sharma, J. Yang, R. Olivares  : DMRG
   Ulf Ekstrom                                   : XCFun DFT Library
   Mihaly Kallay                                 : mrcc  (arbitrary order and MRCC methods)
   Jiri Pittner, Ondrej Demel                    : Mk-CCSD
   Frank Weinhold                                : gennbo (NPA and NBO analysis)
   Christopher J. Cramer and Donald G. Truhlar   : smd solvation model


 Your calculation uses the libint2 library for the computation of 2-el integrals
 For citations please refer to: http://libint.valeyev.net

 This ORCA versions uses:
   CBLAS   interface :  Fast vector & matrix operations
   LAPACKE interface :  Fast linear algebra routines
   SCALAPACK package :  Parallel linear algebra routines


Your calculation utilizes the atom-pairwise dispersion correction
with the zero-damping scheme (D30)
Cite in your paper:
S.Grimme, J.Antony, S.Ehrlich and H.Krieg, J.Chem.Phys., 132, (2010), 154104 
   

XCFun DFT library Copyright 2009-2010 Ulf Ekstrom and contributors.
See http://admol.org/xcfun for more information. This is free soft-
ware; see the source code for copying conditions. There is ABSOLUTELY
NO WARRANTY; not even for MERCHANTABILITY or FITNESS FOR A PARTICULAR
PURPOSE. For details see the documentation. Scientific users of this 
library should cite U. Ekstrom, L. Visscher, R. Bast, A. J. Thorvald-
sen and K. Ruud; J.Chem.Theor.Comp. 2010, DOI: 10.1021/ct100117s
XCFun Version 0.99 
Your calculation utilizes the basis: 6-31G(d)
   H-He, Li-Ne : W. J. Hehre, R. Ditchfield and J.A. Pople, J. Chem. Phys. 56, 2257 (1972).
                 Note: He and Ne are unpublished basis sets taken from the Gaussian program.
                 Note: Li and B from J. D. Dill and J. A. Pople, J. Chem. Phys. 62, 2921 (1975).
   Na - Ar     : M. M. Francl, W. J. Pietro, W. J. Hehre, J. S. Binkley, M. S. Gordon, 
                 D. J. DeFrees and J. A. Pople, J. Chem. Phys. 77, 3654 (1982).
   K - Zn      : V. A. Rassolov, J. A. Pople, M. A. Ratner, and T. L. Windus, J. Chem. Phys. 109, 1223 (1998).

================================================================================
                                        WARNINGS
                       Please study these warnings very carefully!
================================================================================

Warning: TCutStore was < 0. Adjusted to Thresh (uncritical)

INFO   : the flag for use of LIBINT has been found!

================================================================================
                                       INPUT FILE
================================================================================
NAME = initial42.inp
|  1> ! WB97X-D3 6-31G(d) VerySlowConv
|  2> ! KDIIS NOSOSCF
|  3> %base "Scan_42"
|  4> 
|  5> %scf
|  6> maxiter 999
|  7> end
|  8> 
|  9> * xyz 0 1
| 10> N         -0.927658566388   -1.918072871526    0.806248105178
| 11> H          1.126869406342    1.956669808313   -0.873443982290
| 12> H          0.395254559039    2.430399400286   -0.334127172268
| 13> H         -0.392615398994    2.715223662927    0.256363049380
| 14> **                         ****END OF INPUT****
================================================================================

                       ****************************
                       * Single Point Calculation *
                       ****************************

---------------------------------
CARTESIAN COORDINATES (ANGSTROEM)
---------------------------------
  N     -0.927659   -1.918073    0.806248
  H      1.126869    1.956670   -0.873444
  H      0.395255    2.430399   -0.334127
  H     -0.392615    2.715224    0.256363

----------------------------
CARTESIAN COORDINATES (A.U.)
----------------------------
  NO LB      ZA    FRAG     MASS         X           Y           Z
   0 N     7.0000    0    14.007   -1.753021   -3.624632    1.523588
   1 H     1.0000    0     1.008    2.129475    3.697570   -1.650570
   2 H     1.0000    0     1.008    0.746923    4.592789   -0.631409
   3 H     1.0000    0     1.008   -0.741936    5.131029    0.484456

--------------------------------
INTERNAL COORDINATES (ANGSTROEM)
--------------------------------
 N      0   0   0     0.000000000000     0.00000000     0.00000000
 H      1   0   0     4.696390266407     0.00000000     0.00000000
 H      2   1   0     1.024959820031    83.15830198     0.00000000
 H      3   2   1     1.024959820296   168.59770524     0.57537420

---------------------------
INTERNAL COORDINATES (A.U.)
---------------------------
 N      0   0   0     0.000000000000     0.00000000     0.00000000
 H      1   0   0     8.874891421522     0.00000000     0.00000000
 H      2   1   0     1.936893358131    83.15830198     0.00000000
 H      3   2   1     1.936893358633   168.59770524     0.57537420

---------------------
BASIS SET INFORMATION
---------------------
There are 2 groups of distinct atoms

 Group   1 Type N   : 10s4p1d contracted to 3s2p1d pattern {631/31/1}
 Group   2 Type H   : 4s contracted to 2s pattern {31}

Atom   0N    basis set group =>   1
Atom   1H    basis set group =>   2
Atom   2H    basis set group =>   2
Atom   3H    basis set group =>   2
------------------------------------------------------------------------------
                           ORCA GTO INTEGRAL CALCULATION
------------------------------------------------------------------------------

                         BASIS SET STATISTICS AND STARTUP INFO

 # of primitive gaussian shells          ...   27
 # of primitive gaussian functions       ...   39
 # of contracted shells                  ...   12
 # of contracted basis functions         ...   20
 Highest angular momentum                ...    2
 Maximum contraction depth               ...    6
 Integral package used                   ... LIBINT
 Integral threshhold            Thresh   ...  1.000e-10
 Primitive cut-off              TCut     ...  1.000e-11


------------------------------ INTEGRAL EVALUATION ----------------------------


 * One electron integrals 
 Pre-screening matrix                    ... done
 Shell pair data                         ... done (   0.000 sec)

-------------------------------------------------------------------------------
                                 ORCA SCF
-------------------------------------------------------------------------------

------------
SCF SETTINGS
------------
Hamiltonian:
 Density Functional     Method          .... DFT(GTOs)
 Exchange Functional    Exchange        .... WB97X-D3
 Correlation Functional Correlation     .... WB97X-D3
 Gradients option       PostSCFGGA      .... off
 Hybrid DFT is turned on
   Fraction HF Exchange ScalHFX         ....  0.195728
   Scaling of DF-GGA-X  ScalDFX         ....  0.000000
   Scaling of DF-GGA-C  ScalDFC         ....  1.000000
   Scaling of DF-LDA-C  ScalLDAC        ....  1.000000
   Perturbative correction              ....  0.000000
 Long-range corrected/Screened/Range-Separated Hybrid DFT is turned on
   Amount of maximum screened exact exchange              ....  0.804272
   Range separation parameter mu (erf(mu*r12)/r12)        ....  0.250000


General Settings:
 Integral files         IntName         .... Scan_42
 Hartree-Fock type      HFTyp           .... RHF
 Total Charge           Charge          ....    0
 Multiplicity           Mult            ....    1
 Number of Electrons    NEL             ....   10
 Basis Dimension        Dim             ....   20
 Nuclear Repulsion      ENuc            ....      3.6599639071 Eh

Convergence Acceleration:
 DIIS                   CNVDIIS         .... on
   Start iteration      DIISMaxIt       ....     0
   Startup error        DIISStart       ....  0.200000
   # of expansion vecs  DIISMaxEq       ....     5
   Bias factor          DIISBfac        ....   1.050
   Max. coefficient     DIISMaxC        ....  10.000
 Newton-Raphson         CNVNR           .... off
 SOSCF                  CNVSOSCF        .... off
 Level Shifting         CNVShift        .... off
 Zerner damping         CNVZerner       .... off
 Static damping         CNVDamp         .... off
 Fernandez-Rico         CNVRico         .... off

SCF Procedure:
 Maximum # iterations   MaxIter         ....   999
 SCF integral mode      SCFMode         .... Direct
   Integral package                     .... LIBINT
 Reset frequeny         DirectResetFreq ....    20
 Integral Threshold     Thresh          ....  1.000e-10 Eh
 Primitive CutOff       TCut            ....  1.000e-11 Eh

Convergence Tolerance:
 Convergence Check Mode ConvCheckMode   .... All-Criteria
 Convergence forced     ConvForced      .... 0
 Energy Change          TolE            ....  1.000e-06 Eh
 Max Density Change     TolMaxP         ....  1.000e-05
 RMS Density Change     TolRMSP         ....  1.000e-06
 DIIS Error             TolErr          ....  1.000e-06


Diagonalization of the overlap matrix:
Smallest eigenvalue                        ... 6.296e-02
Time for diagonalization                   ...    0.000 sec
Threshold for overlap eigenvalues          ... 1.000e-08
Number of eigenvalues below threshold      ... 0
Time for construction of square roots      ...    0.005 sec
Total time needed                          ...    0.005 sec

-------------------
DFT GRID GENERATION
-------------------

General Integration Accuracy     IntAcc      ...  4.340
Radial Grid Type                 RadialGrid  ... Gauss-Chebyshev
Angular Grid (max. acc.)         AngularGrid ... Lebedev-110
Angular grid pruning method      GridPruning ... 3 (G Style)
Weight generation scheme         WeightScheme... Becke
Basis function cutoff            BFCut       ...    1.0000e-10
Integration weight cutoff        WCut        ...    1.0000e-14
Grids for H and He will be reduced by one unit

# of grid points (after initial pruning)     ...   4084 (   0.0 sec)
# of grid points (after weights+screening)   ...   4060 (   0.0 sec)
nearest neighbour list constructed           ...    0.0 sec
Grid point re-assignment to atoms done       ...    0.0 sec
Grid point division into batches done        ...    0.0 sec
Reduced shell lists constructed in    0.0 sec

Total number of grid points                  ...     4060
Total number of batches                      ...       66
Average number of points per batch           ...       61
Average number of grid points per atom       ...     1015
Average number of shells per batch           ...     8.70 (72.51%)
Average number of basis functions per batch  ...    13.90 (69.48%)
Average number of large shells per batch     ...     6.55 (75.30%)
Average number of large basis fcns per batch ...    10.22 (73.58%)
Maximum spatial batch extension              ...  25.65, 18.30, 25.65 au
Average spatial batch extension              ...   5.47,  5.75,  6.42 au

Time for grid setup =    0.021 sec

------------------------------
INITIAL GUESS: MODEL POTENTIAL
------------------------------
Loading Hartree-Fock densities                     ... done
Calculating cut-offs                               ... done
Setting up the integral package                    ... done
Initializing the effective Hamiltonian             ... done
Starting the Coulomb interaction                   ... done (   0.0 sec)
Reading the grid                                   ... done
Mapping shells                                     ... done
Starting the XC term evaluation                    ... done (   0.0 sec)
  promolecular density results
     # of electrons  =      9.997127408
     EX              =     -7.181277893
     EC              =     -0.262635310
     EX+EC           =     -7.443913203
Transforming the Hamiltonian                       ... done (   0.0 sec)
Diagonalizing the Hamiltonian                      ... done (   0.0 sec)
Back transforming the eigenvectors                 ... done (   0.0 sec)
Now organizing SCF variables                       ... done
                      ------------------
                      INITIAL GUESS DONE (   0.1 sec)
                      ------------------
--------------
SCF ITERATIONS
--------------
ITER       Energy         Delta-E        Max-DP      RMS-DP      [F,P]   Gradient Norm
               ***  Starting incremental Fock matrix formation  ***
                             ****Resetting KDIIS****
                             ****Turning on KDIIS(Cayley)****
  0    -55.7206081273   0.000000000000 0.03671077  0.00381911  0.1503619   0.115016614
  1    -55.7415173700  -0.020909242699 0.03622630  0.00396271  0.1265494   0.097009608
  2    -55.7596415752  -0.018124205194 0.05526593  0.00608442  0.1023741   0.078497554
  3    -55.7796248444  -0.019983269183 0.08954851  0.01013056  0.0644112   0.049235205
  4    -55.7924819129  -0.012857068579 0.00293201  0.00043908  0.0014354   0.001066057
  5    -55.7924862426  -0.000004329646 0.00158987  0.00019967  0.0006418   0.000419625
  6    -55.7924914081  -0.000005165464 0.00515080  0.00064079  0.0006431   0.000405004
  7    -55.7924783152   0.000013092875 0.00306259  0.00036230  0.0006361   0.000424387
  8    -55.7924762562   0.000002058942 0.00223418  0.00029413  0.0006308   0.000424284
  9    -55.7924690616   0.000007194650 0.00330264  0.00039239  0.0006262   0.000412239
                          ***Energy convergence achieved***
 10    -55.7924689824   0.000000079236 0.00083536  0.00010862  0.0006232   0.000346578
 11    -55.7924710577  -0.000002075371 0.00162803  0.00020473  0.0006239   0.000340463
 12    -55.7924679662   0.000003091491 0.00075232  0.00013732  0.0006234   0.000335298
 13    -55.7924725271  -0.000004560851 0.00032719  0.00003866  0.0006267   0.000326454
                          ***Energy convergence achieved***
 14    -55.7924723750   0.000000152032 0.00075432  0.00009608  0.0006265   0.000328447
 15    -55.7924740475  -0.000001672444 0.00193030  0.00023819  0.0006280   0.000324197
 16    -55.7924705389   0.000003508601 0.00084650  0.00015614  0.0006252   0.000329972
 17    -55.7924757362  -0.000005197259 0.00049826  0.00009410  0.0006279   0.000328048
 18    -55.7924726170   0.000003119196 0.00072616  0.00011590  0.0006265   0.000321091
 19    -55.7924769782  -0.000004361273 0.00092396  0.00014855  0.0006295   0.000320474
               *** Restarting incremental Fock matrix formation ***
                             ****Resetting KDIIS****
 20    -55.7924727516   0.000004226647 0.00011064  0.00001614  0.0006262   0.000322209
                          ***Energy convergence achieved***
 21    -55.7924734215  -0.000000669956 0.00004741  0.00000816  0.0006267   0.000321770
 22    -55.7924736901  -0.000000268530 0.00013193  0.00002021  0.0006269   0.000319359
Warning: badly conditioned DIIS matrix, 1 vectors out of 4 destroyed
 23    -55.7924744610  -0.000000770983 0.00089049  0.00012917  0.0006274   0.000318331
 24    -55.7924798151  -0.000005354030 0.05778904  0.00888893  0.0006308   0.000321662
 25    -55.7921979189   0.000281896192 0.01577419  0.00275026  0.0004676   0.000443740
 26    -55.7921557802   0.000042138690 0.00574814  0.00098140  0.0003878   0.000313576
 27    -55.7921699223  -0.000014142064 0.00308632  0.00062989  0.0002949   0.000225324
 28    -55.7921754041  -0.000005481867 0.03088304  0.00503654  0.0005834   0.000399496
 29    -55.7921230914   0.000052312756 0.00619027  0.00094034  0.0001993   0.000141687
 30    -55.7921203586   0.000002732747 0.00517621  0.00076814  0.0001332   0.000118185
                          ***Energy convergence achieved***
 31    -55.7921194977   0.000000860929 0.00010448  0.00002071  0.0000646   0.000042991
 32    -55.7921196110  -0.000000113339 0.00011504  0.00002008  0.0000778   0.000051502
 33    -55.7921195458   0.000000065250 0.00065712  0.00010655  0.0000645   0.000040320
 34    -55.7921197044  -0.000000158653 0.00107998  0.00015806  0.0000664   0.000039839
 35    -55.7921200610  -0.000000356605 0.00019310  0.00003042  0.0000693   0.000034892
 36    -55.7921201043  -0.000000043217 0.00071622  0.00010583  0.0000694   0.000035106

            ***Energy convergence in two consecutive cycles with***
                    ***'reasonable' density convergence***
                       *** signaling convergence ***

                    *** KDIIS BlockDiag ( 0.000 sec) ***

               *****************************************************
               *                     SUCCESS                       *
               *           SCF CONVERGED AFTER  37 CYCLES          *
               *****************************************************

Setting up the final grid:

General Integration Accuracy     IntAcc      ...  4.670
Radial Grid Type                 RadialGrid  ... Gauss-Chebyshev
Angular Grid (max. acc.)         AngularGrid ... Lebedev-302
Angular grid pruning method      GridPruning ... 3 (G Style)
Weight generation scheme         WeightScheme... Becke
Basis function cutoff            BFCut       ...    1.0000e-10
Integration weight cutoff        WCut        ...    1.0000e-14
Grids for H and He will be reduced by one unit

# of grid points (after initial pruning)     ...  16394 (   0.0 sec)
# of grid points (after weights+screening)   ...  16302 (   0.0 sec)
nearest neighbour list constructed           ...    0.0 sec
Grid point re-assignment to atoms done       ...    0.0 sec
Grid point division into batches done        ...    0.0 sec
Reduced shell lists constructed in    0.1 sec

Total number of grid points                  ...    16302
Total number of batches                      ...      257
Average number of points per batch           ...       63
Average number of grid points per atom       ...     4076
Average number of shells per batch           ...     7.66 (63.82%)
Average number of basis functions per batch  ...    11.71 (58.57%)
Average number of large shells per batch     ...     5.82 (76.01%)
Average number of large basis fcns per batch ...     8.66 (73.92%)
Maximum spatial batch extension              ...  21.92, 15.42, 16.92 au
Average spatial batch extension              ...   3.52,  3.46,  3.53 au

Final grid set up in    0.1 sec
Final integration                            ... done (   0.1 sec)
Change in XC energy                          ...     0.000024464
Integrated number of electrons               ...    10.000014137
Previous integrated no of electrons          ...     9.998669107

----------------
TOTAL SCF ENERGY
----------------

Total Energy       :          -55.79209562 Eh           -1518.18010 eV

Components:
Nuclear Repulsion  :            3.65996391 Eh              99.59268 eV
Electronic Energy  :          -59.45205953 Eh           -1617.77279 eV
One Electron Energy:          -84.43133626 Eh           -2297.49346 eV
Two Electron Energy:           24.97927673 Eh             679.72068 eV

Virial components:
Potential Energy   :         -111.16143860 Eh           -3024.85653 eV
Kinetic Energy     :           55.36934298 Eh            1506.67642 eV
Virial Ratio       :            2.00763514


DFT components:
N(Alpha)           :        5.000007068689 electrons
N(Beta)            :        5.000007068689 electrons
N(Total)           :       10.000014137377 electrons
E(XC)              :       -5.173777017207 Eh       

---------------
SCF CONVERGENCE
---------------

  Last Energy change         ...    1.8584e-08  Tolerance :   1.0000e-06
  Last MAX-Density change    ...    2.9251e-05  Tolerance :   1.0000e-05
  Last RMS-Density change    ...    3.7013e-06  Tolerance :   1.0000e-06
  Last DIIS Error            ...    6.9758e-05  Tolerance :   1.0000e-06

             **** THE GBW FILE WAS UPDATED (Scan_42.gbw) ****
             **** DENSITY FILE WAS UPDATED (Scan_42.scfp.tmp) ****
             **** ENERGY FILE WAS UPDATED (Scan_42.en.tmp) ****
----------------
ORBITAL ENERGIES
----------------

  NO   OCC          E(Eh)            E(eV) 
   0   2.0000     -14.153653      -385.1405 
   1   2.0000      -0.822204       -22.3733 
   2   2.0000      -0.478925       -13.0322 
   3   2.0000      -0.026711        -0.7268 
   4   2.0000      -0.026659        -0.7254 
   5   0.0000      -0.330480        -8.9928 
   6   0.0000       0.020666         0.5624 
   7   0.0000       0.231838         6.3086 
   8   0.0000       0.565953        15.4004 
   9   0.0000       0.669198        18.2098 
  10   0.0000       0.818956        22.2849 
  11   0.0000       1.065585        28.9960 
  12   0.0000       1.074723        29.2447 
  13   0.0000       1.074796        29.2467 
  14   0.0000       1.154800        31.4237 
  15   0.0000       2.135535        58.1109 
  16   0.0000       2.138938        58.2035 
  17   0.0000       2.138967        58.2043 
  18   0.0000       2.178099        59.2691 
  19   0.0000       2.178118        59.2696 

                    ********************************
                    * MULLIKEN POPULATION ANALYSIS *
                    ********************************

-----------------------
MULLIKEN ATOMIC CHARGES
-----------------------
   0 N :   -0.999992
   1 H :    0.608474
   2 H :   -0.217088
   3 H :    0.608606
Sum of atomic charges:    0.0000000

--------------------------------
MULLIKEN REDUCED ORBITAL CHARGES
--------------------------------
  0 N s       :     3.999371  s :     3.999371
      pz      :     1.892975  p :     4.000372
      px      :     1.780595
      py      :     0.326801
      dz2     :     0.000043  d :     0.000249
      dxz     :     0.000005
      dyz     :     0.000036
      dx2y2   :     0.000097
      dxy     :     0.000068
  1 H s       :     0.391526  s :     0.391526
  2 H s       :     1.217088  s :     1.217088
  3 H s       :     0.391394  s :     0.391394


                     *******************************
                     * LOEWDIN POPULATION ANALYSIS *
                     *******************************

----------------------
LOEWDIN ATOMIC CHARGES
----------------------
   0 N :   -0.999992
   1 H :    0.523502
   2 H :   -0.047102
   3 H :    0.523593

-------------------------------
LOEWDIN REDUCED ORBITAL CHARGES
-------------------------------
  0 N s       :     3.999371  s :     3.999371
      pz      :     1.892975  p :     4.000372
      px      :     1.780596
      py      :     0.326801
      dz2     :     0.000043  d :     0.000249
      dxz     :     0.000005
      dyz     :     0.000036
      dx2y2   :     0.000097
      dxy     :     0.000068
  1 H s       :     0.476498  s :     0.476498
  2 H s       :     1.047102  s :     1.047102
  3 H s       :     0.476407  s :     0.476407


                      *****************************
                      * MAYER POPULATION ANALYSIS *
                      *****************************

  NA   - Mulliken gross atomic population
  ZA   - Total nuclear charge
  QA   - Mulliken gross atomic charge
  VA   - Mayer's total valence
  BVA  - Mayer's bonded valence
  FA   - Mayer's free valence

  ATOM       NA         ZA         QA         VA         BVA        FA
  0 N      8.0000     7.0000    -1.0000     0.0000     0.0000     0.0000
  1 H      0.3915     1.0000     0.6085     0.6298     0.6298    -0.0000
  2 H      1.2171     1.0000    -0.2171     0.9529     0.9529    -0.0000
  3 H      0.3914     1.0000     0.6086     0.6296     0.6296     0.0000

  Mayer bond orders larger than 0.1
B(  1-H ,  2-H ) :   0.4765 B(  1-H ,  3-H ) :   0.1532 B(  2-H ,  3-H ) :   0.4764 


-------
TIMINGS
-------

Total SCF time: 0 days 0 hours 0 min 9 sec 

Total time                  ....       9.736 sec
Sum of individual times     ....       9.444 sec  ( 97.0%)

Fock matrix formation       ....       9.195 sec  ( 94.4%)
  XC integration            ....       1.580 sec  ( 17.2% of F)
    Basis function eval.    ....       0.335 sec  ( 21.2% of XC)
    Density eval.           ....       0.067 sec  (  4.2% of XC)
    XC-Functional eval.     ....       0.519 sec  ( 32.9% of XC)
    XC-Potential eval.      ....       0.021 sec  (  1.4% of XC)
Diagonalization             ....       0.011 sec  (  0.1%)
Density matrix formation    ....       0.000 sec  (  0.0%)
Population analysis         ....       0.009 sec  (  0.1%)
Initial guess               ....       0.108 sec  (  1.1%)
Orbital Transformation      ....       0.000 sec  (  0.0%)
Orbital Orthonormalization  ....       0.000 sec  (  0.0%)
DIIS solution               ....       0.000 sec  (  0.0%)
Grid generation             ....       0.121 sec  (  1.2%)


-------------------------------------------------------------------------------
                          DFT DISPERSION CORRECTION                            
                                                                               
                              DFTD3 V3.1  Rev 1                                
                              USING zero damping                               
-------------------------------------------------------------------------------
The omegaB97X-D3 functional is recognized. Fit by Chai et al.
Active option DFTDOPT                   ...         3   

molecular C6(AA) [au] = 169.420579 


            DFT-D V3
 parameters
 s6 scaling factor         :     1.0000 
 rs6 scaling factor        :     1.2810 
 s8 scaling factor         :     1.0000 
 rs8 scaling factor        :     1.0940 
 Damping factor alpha6     :    14.0000 
 Damping factor alpha8     :    16.0000 
 ad hoc parameters k1-k3   :    16.0000     1.3333    -4.0000 

 Edisp/kcal,au: -0.078958818128  -0.000125828873 
 E6   /kcal   :  -0.053210335 
 E8   /kcal   :  -0.025748484 
 % E8         :  32.610016357 

-------------------------   ----------------
Dispersion correction           -0.000125829
-------------------------   ----------------


-------------------------   --------------------
FINAL SINGLE POINT ENERGY       -55.792221450233
-------------------------   --------------------


                            ***************************************
                            *     ORCA property calculations      *
                            ***************************************

                                    ---------------------
                                    Active property flags
                                    ---------------------
   (+) Dipole Moment


------------------------------------------------------------------------------
                       ORCA ELECTRIC PROPERTIES CALCULATION
------------------------------------------------------------------------------

Dipole Moment Calculation                       ... on
Quadrupole Moment Calculation                   ... off
Polarizability Calculation                      ... off
GBWName                                         ... Scan_42.gbw
Electron density file                           ... Scan_42.scfp.tmp

-------------
DIPOLE MOMENT
-------------
                                X             Y             Z
Electronic contribution:     -0.59623      -1.95670       0.51358
Nuclear contribution   :      3.01758       9.91583      -2.59914
                        -----------------------------------------
Total Dipole Moment    :      2.42135       7.95913      -2.08556
                        -----------------------------------------
Magnitude (a.u.)       :      8.57672
Magnitude (Debye)      :     21.80030


Timings for individual modules:

Sum of individual times         ...       10.072 sec (=   0.168 min)
GTO integral calculation        ...        0.315 sec (=   0.005 min)   3.1 %
SCF iterations                  ...        9.757 sec (=   0.163 min)  96.9 %
                             ****ORCA TERMINATED NORMALLY****
TOTAL RUN TIME: 0 days 0 hours 0 minutes 10 seconds 385 msec
