
                                 *****************
                                 * O   R   C   A *
                                 *****************

           --- An Ab Initio, DFT and Semiempirical electronic structure package ---

                  #######################################################
                  #                        -***-                        #
                  #  Department of molecular theory and spectroscopy    #
                  #              Directorship: Frank Neese              #
                  # Max Planck Institute for Chemical Energy Conversion #
                  #                  D-45470 Muelheim/Ruhr              #
                  #                       Germany                       #
                  #                                                     #
                  #                  All rights reserved                #
                  #                        -***-                        #
                  #######################################################


                         Program Version 4.0.0.2 - RELEASE -


 With contributions from (in alphabetic order):
   Daniel Aravena         : Magnetic Properties
   Michael Atanasov       : Ab Initio Ligand Field Theory
   Ute Becker             : Parallelization
   Martin Brehm           : Molecular dynamics
   Dmytro Bykov           : SCF Hessian
   Vijay G. Chilkuri      : MRCI spin determinant printing
   Dipayan Datta          : RHF DLPNO-CCSD density
   Achintya Kumar Dutta   : EOM-CC, STEOM-CC
   Dmitry Ganyushin       : Spin-Orbit,Spin-Spin,Magnetic field MRCI
   Yang Guo               : DLPNO-NEVPT2, CIM, IAO-localization
   Andreas Hansen         : Spin unrestricted coupled pair/coupled cluster methods
   Lee Huntington         : MR-EOM, pCC
   Robert Izsak           : Overlap fitted RIJCOSX, COSX-SCS-MP3, EOM
   Christian Kollmar      : KDIIS, OOCD, Brueckner-CCSD(T), CCSD density
   Simone Kossmann        : Meta GGA functionals, TD-DFT gradient, OOMP2, MP2 Hessian
   Martin Krupicka        : AUTO-CI
   Dagmar Lenk            : GEPOL surface
   Dimitrios Liakos       : Extrapolation schemes; parallel MDCI
   Dimitrios Manganas     : ROCIS; embedding schemes
   Dimitrios Pantazis     : SARC Basis sets
   Taras Petrenko         : DFT Hessian,TD-DFT gradient, ASA, ECA, R-Raman, ABS, FL, XAS/XES, NRVS
   Peter Pinski           : DLPNO-MP2
   Christoph Reimann      : Effective Core Potentials
   Marius Retegan         : Local ZFS, SOC
   Christoph Riplinger    : Optimizer, TS searches, QM/MM, DLPNO-CCSD(T), (RO)-DLPNO pert. Triples
   Tobias Risthaus        : Range-separated hybrids, TD-DFT gradient, RPA, STAB
   Michael Roemelt        : Restricted open shell CIS
   Masaaki Saitow         : Open-shell DLPNO
   Barbara Sandhoefer     : DKH picture change effects
   Kantharuban Sivalingam : CASSCF convergence, NEVPT2, FIC-MRCI
   Georgi Stoychev        : AutoAux
   Boris Wezisla          : Elementary symmetry handling
   Frank Wennmohs         : Technical directorship


 We gratefully acknowledge several colleagues who have allowed us to
 interface, adapt or use parts of their codes:
   Stefan Grimme, W. Hujo, H. Kruse,             : VdW corrections, initial TS optimization,
                  C. Bannwarth                     DFT functionals, gCP, sTDA/sTD-DF
   Ed Valeev                                     : LibInt (2-el integral package), F12 methods
   Garnet Chan, S. Sharma, J. Yang, R. Olivares  : DMRG
   Ulf Ekstrom                                   : XCFun DFT Library
   Mihaly Kallay                                 : mrcc  (arbitrary order and MRCC methods)
   Jiri Pittner, Ondrej Demel                    : Mk-CCSD
   Frank Weinhold                                : gennbo (NPA and NBO analysis)
   Christopher J. Cramer and Donald G. Truhlar   : smd solvation model


 Your calculation uses the libint2 library for the computation of 2-el integrals
 For citations please refer to: http://libint.valeyev.net

 This ORCA versions uses:
   CBLAS   interface :  Fast vector & matrix operations
   LAPACKE interface :  Fast linear algebra routines
   SCALAPACK package :  Parallel linear algebra routines


Your calculation utilizes the atom-pairwise dispersion correction
with the zero-damping scheme (D30)
Cite in your paper:
S.Grimme, J.Antony, S.Ehrlich and H.Krieg, J.Chem.Phys., 132, (2010), 154104 
   

XCFun DFT library Copyright 2009-2010 Ulf Ekstrom and contributors.
See http://admol.org/xcfun for more information. This is free soft-
ware; see the source code for copying conditions. There is ABSOLUTELY
NO WARRANTY; not even for MERCHANTABILITY or FITNESS FOR A PARTICULAR
PURPOSE. For details see the documentation. Scientific users of this 
library should cite U. Ekstrom, L. Visscher, R. Bast, A. J. Thorvald-
sen and K. Ruud; J.Chem.Theor.Comp. 2010, DOI: 10.1021/ct100117s
XCFun Version 0.99 
Your calculation utilizes the basis: 6-31G(d)
   H-He, Li-Ne : W. J. Hehre, R. Ditchfield and J.A. Pople, J. Chem. Phys. 56, 2257 (1972).
                 Note: He and Ne are unpublished basis sets taken from the Gaussian program.
                 Note: Li and B from J. D. Dill and J. A. Pople, J. Chem. Phys. 62, 2921 (1975).
   Na - Ar     : M. M. Francl, W. J. Pietro, W. J. Hehre, J. S. Binkley, M. S. Gordon, 
                 D. J. DeFrees and J. A. Pople, J. Chem. Phys. 77, 3654 (1982).
   K - Zn      : V. A. Rassolov, J. A. Pople, M. A. Ratner, and T. L. Windus, J. Chem. Phys. 109, 1223 (1998).

================================================================================
                                        WARNINGS
                       Please study these warnings very carefully!
================================================================================

Warning: TCutStore was < 0. Adjusted to Thresh (uncritical)

INFO   : the flag for use of LIBINT has been found!

================================================================================
                                       INPUT FILE
================================================================================
NAME = initial45.inp
|  1> ! WB97X-D3 6-31G(d) VerySlowConv
|  2> ! KDIIS NOSOSCF
|  3> %base "Scan_45"
|  4> 
|  5> %scf
|  6> maxiter 999
|  7> end
|  8> 
|  9> * xyz 0 1
| 10> N         -0.993568638802   -2.134756550234    0.863086914667
| 11> H          1.149708158855    2.030272839234   -0.894531861171
| 12> H          0.417456651973    2.498893796379   -0.350254657116
| 13> H         -0.371746172025    2.789809914621    0.236739603620
| 14> **                         ****END OF INPUT****
================================================================================

                       ****************************
                       * Single Point Calculation *
                       ****************************

---------------------------------
CARTESIAN COORDINATES (ANGSTROEM)
---------------------------------
  N     -0.993569   -2.134757    0.863087
  H      1.149708    2.030273   -0.894532
  H      0.417457    2.498894   -0.350255
  H     -0.371746    2.789810    0.236740

----------------------------
CARTESIAN COORDINATES (A.U.)
----------------------------
  NO LB      ZA    FRAG     MASS         X           Y           Z
   0 N     7.0000    0    14.007   -1.877573   -4.034105    1.630998
   1 H     1.0000    0     1.008    2.172634    3.836660   -1.690420
   2 H     1.0000    0     1.008    0.788879    4.722225   -0.661885
   3 H     1.0000    0     1.008   -0.702498    5.271977    0.447373

--------------------------------
INTERNAL COORDINATES (ANGSTROEM)
--------------------------------
 N      0   0   0     0.000000000000     0.00000000     0.00000000
 H      1   0   0     5.003031981477     0.00000000     0.00000000
 H      2   1   0     1.025687840262    83.57504392     0.00000000
 H      3   2   1     1.025687841108   169.29072048   358.57098022

---------------------------
INTERNAL COORDINATES (A.U.)
---------------------------
 N      0   0   0     0.000000000000     0.00000000     0.00000000
 H      1   0   0     9.454360284242     0.00000000     0.00000000
 H      2   1   0     1.938269116987    83.57504392     0.00000000
 H      3   2   1     1.938269118587   169.29072048   358.57098022

---------------------
BASIS SET INFORMATION
---------------------
There are 2 groups of distinct atoms

 Group   1 Type N   : 10s4p1d contracted to 3s2p1d pattern {631/31/1}
 Group   2 Type H   : 4s contracted to 2s pattern {31}

Atom   0N    basis set group =>   1
Atom   1H    basis set group =>   2
Atom   2H    basis set group =>   2
Atom   3H    basis set group =>   2
------------------------------------------------------------------------------
                           ORCA GTO INTEGRAL CALCULATION
------------------------------------------------------------------------------

                         BASIS SET STATISTICS AND STARTUP INFO

 # of primitive gaussian shells          ...   27
 # of primitive gaussian functions       ...   39
 # of contracted shells                  ...   12
 # of contracted basis functions         ...   20
 Highest angular momentum                ...    2
 Maximum contraction depth               ...    6
 Integral package used                   ... LIBINT
 Integral threshhold            Thresh   ...  1.000e-10
 Primitive cut-off              TCut     ...  1.000e-11


------------------------------ INTEGRAL EVALUATION ----------------------------


 * One electron integrals 
 Pre-screening matrix                    ... done
 Shell pair data                         ... done (   0.000 sec)

-------------------------------------------------------------------------------
                                 ORCA SCF
-------------------------------------------------------------------------------

------------
SCF SETTINGS
------------
Hamiltonian:
 Density Functional     Method          .... DFT(GTOs)
 Exchange Functional    Exchange        .... WB97X-D3
 Correlation Functional Correlation     .... WB97X-D3
 Gradients option       PostSCFGGA      .... off
 Hybrid DFT is turned on
   Fraction HF Exchange ScalHFX         ....  0.195728
   Scaling of DF-GGA-X  ScalDFX         ....  0.000000
   Scaling of DF-GGA-C  ScalDFC         ....  1.000000
   Scaling of DF-LDA-C  ScalLDAC        ....  1.000000
   Perturbative correction              ....  0.000000
 Long-range corrected/Screened/Range-Separated Hybrid DFT is turned on
   Amount of maximum screened exact exchange              ....  0.804272
   Range separation parameter mu (erf(mu*r12)/r12)        ....  0.250000


General Settings:
 Integral files         IntName         .... Scan_45
 Hartree-Fock type      HFTyp           .... RHF
 Total Charge           Charge          ....    0
 Multiplicity           Mult            ....    1
 Number of Electrons    NEL             ....   10
 Basis Dimension        Dim             ....   20
 Nuclear Repulsion      ENuc            ....      3.5135688000 Eh

Convergence Acceleration:
 DIIS                   CNVDIIS         .... on
   Start iteration      DIISMaxIt       ....     0
   Startup error        DIISStart       ....  0.200000
   # of expansion vecs  DIISMaxEq       ....     5
   Bias factor          DIISBfac        ....   1.050
   Max. coefficient     DIISMaxC        ....  10.000
 Newton-Raphson         CNVNR           .... off
 SOSCF                  CNVSOSCF        .... off
 Level Shifting         CNVShift        .... off
 Zerner damping         CNVZerner       .... off
 Static damping         CNVDamp         .... off
 Fernandez-Rico         CNVRico         .... off

SCF Procedure:
 Maximum # iterations   MaxIter         ....   999
 SCF integral mode      SCFMode         .... Direct
   Integral package                     .... LIBINT
 Reset frequeny         DirectResetFreq ....    20
 Integral Threshold     Thresh          ....  1.000e-10 Eh
 Primitive CutOff       TCut            ....  1.000e-11 Eh

Convergence Tolerance:
 Convergence Check Mode ConvCheckMode   .... All-Criteria
 Convergence forced     ConvForced      .... 0
 Energy Change          TolE            ....  1.000e-06 Eh
 Max Density Change     TolMaxP         ....  1.000e-05
 RMS Density Change     TolRMSP         ....  1.000e-06
 DIIS Error             TolErr          ....  1.000e-06


Diagonalization of the overlap matrix:
Smallest eigenvalue                        ... 6.295e-02
Time for diagonalization                   ...    0.000 sec
Threshold for overlap eigenvalues          ... 1.000e-08
Number of eigenvalues below threshold      ... 0
Time for construction of square roots      ...    0.004 sec
Total time needed                          ...    0.005 sec

-------------------
DFT GRID GENERATION
-------------------

General Integration Accuracy     IntAcc      ...  4.340
Radial Grid Type                 RadialGrid  ... Gauss-Chebyshev
Angular Grid (max. acc.)         AngularGrid ... Lebedev-110
Angular grid pruning method      GridPruning ... 3 (G Style)
Weight generation scheme         WeightScheme... Becke
Basis function cutoff            BFCut       ...    1.0000e-10
Integration weight cutoff        WCut        ...    1.0000e-14
Grids for H and He will be reduced by one unit

# of grid points (after initial pruning)     ...   4084 (   0.0 sec)
# of grid points (after weights+screening)   ...   4063 (   0.0 sec)
nearest neighbour list constructed           ...    0.0 sec
Grid point re-assignment to atoms done       ...    0.0 sec
Grid point division into batches done        ...    0.0 sec
Reduced shell lists constructed in    0.0 sec

Total number of grid points                  ...     4063
Total number of batches                      ...       66
Average number of points per batch           ...       61
Average number of grid points per atom       ...     1016
Average number of shells per batch           ...     8.45 (70.40%)
Average number of basis functions per batch  ...    13.40 (67.01%)
Average number of large shells per batch     ...     6.28 (74.38%)
Average number of large basis fcns per batch ...     9.81 (73.16%)
Maximum spatial batch extension              ...  25.65, 18.30, 25.65 au
Average spatial batch extension              ...   5.58,  5.77,  6.35 au

Time for grid setup =    0.018 sec

------------------------------
INITIAL GUESS: MODEL POTENTIAL
------------------------------
Loading Hartree-Fock densities                     ... done
Calculating cut-offs                               ... done
Setting up the integral package                    ... done
Initializing the effective Hamiltonian             ... done
Starting the Coulomb interaction                   ... done (   0.0 sec)
Reading the grid                                   ... done
Mapping shells                                     ... done
Starting the XC term evaluation                    ... done (   0.0 sec)
  promolecular density results
     # of electrons  =      9.997383716
     EX              =     -7.181209009
     EC              =     -0.262617476
     EX+EC           =     -7.443826485
Transforming the Hamiltonian                       ... done (   0.0 sec)
Diagonalizing the Hamiltonian                      ... done (   0.0 sec)
Back transforming the eigenvectors                 ... done (   0.0 sec)
Now organizing SCF variables                       ... done
                      ------------------
                      INITIAL GUESS DONE (   0.1 sec)
                      ------------------
--------------
SCF ITERATIONS
--------------
ITER       Energy         Delta-E        Max-DP      RMS-DP      [F,P]   Gradient Norm
               ***  Starting incremental Fock matrix formation  ***
                             ****Resetting KDIIS****
                             ****Turning on KDIIS(Cayley)****
  0    -55.7138920760   0.000000000000 0.03623838  0.00379954  0.1509130   0.115010411
  1    -55.7347558330  -0.020863756977 0.03548554  0.00385965  0.1270525   0.097015965
  2    -55.7524519362  -0.017696103216 0.05527232  0.00609921  0.1031659   0.078667896
  3    -55.7728344782  -0.020382542072 0.09030145  0.01020463  0.0648370   0.049241805
  4    -55.7858100818  -0.012975603595 0.00160224  0.00027038  0.0014331   0.000799859
  5    -55.7858057692   0.000004312588 0.00074364  0.00013630  0.0005000   0.000405695
  6    -55.7858088988  -0.000003129522 0.00206397  0.00032027  0.0005035   0.000293238
  7    -55.7858017948   0.000007103951 0.00186174  0.00023382  0.0004941   0.000356221
  8    -55.7858005544   0.000001240380 0.00139119  0.00021908  0.0004941   0.000269780
  9    -55.7858051096  -0.000004555180 0.00254069  0.00033686  0.0004999   0.000291554
 10    -55.7858005384   0.000004571172 0.00058618  0.00009867  0.0004961   0.000256633
 11    -55.7858027127  -0.000002174228 0.00099589  0.00016289  0.0004981   0.000251559
 12    -55.7857977296   0.000004983116 0.00106685  0.00013114  0.0004930   0.000253971
                          ***Energy convergence achieved***
 13    -55.7857980533  -0.000000323697 0.00124730  0.00023046  0.0004932   0.000252794
 14    -55.7858033548  -0.000005301538 0.00073217  0.00011442  0.0004993   0.000251396
 15    -55.7857996988   0.000003655994 0.01507113  0.00246771  0.0004954   0.000258099
 16    -55.7857301718   0.000069526974 0.00302048  0.00050180  0.0004085   0.000265324
 17    -55.7857434042  -0.000013232355 0.00726749  0.00116985  0.0004277   0.000279386
 18    -55.7857766411  -0.000033236900 0.02852262  0.00474531  0.0004711   0.000262288
 19    -55.7856607988   0.000115842276 0.02228568  0.00379997  0.0002888   0.000269797
               *** Restarting incremental Fock matrix formation ***
                             ****Resetting KDIIS****
 20    -55.7856100748   0.000050724006 0.00014168  0.00001977  0.0002945   0.000242019
                          ***Energy convergence achieved***
 21    -55.7856102831  -0.000000208319 0.00007490  0.00001045  0.0002672   0.000235090
 22    -55.7856102424   0.000000040692 0.00034152  0.00004756  0.0002248   0.000205105
 23    -55.7856099258   0.000000316656 0.00430974  0.00056910  0.0002102   0.000168807
 24    -55.7856077034   0.000002222417 0.00077105  0.00010199  0.0001400   0.000107222
                          ***Energy convergence achieved***
 25    -55.7856078651  -0.000000161765 0.00035228  0.00005600  0.0001411   0.000075104
 26    -55.7856073529   0.000000512244 0.00271807  0.00044220  0.0001380   0.000077150
 27    -55.7856035699   0.000003782989 0.00643735  0.00101876  0.0001214   0.000076658
 28    -55.7855964788   0.000007091118 0.00026871  0.00004425  0.0000880   0.000071432
                          ***Energy convergence achieved***
 29    -55.7855966585  -0.000000179760 0.00129742  0.00021817  0.0000887   0.000073918
 30    -55.7855954551   0.000001203387 0.00042446  0.00006642  0.0000813   0.000066039
                          ***Energy convergence achieved***
 31    -55.7855958602  -0.000000405071 0.00089197  0.00016399  0.0000937   0.000071997
 32    -55.7855951094   0.000000750789 0.00027299  0.00004353  0.0000807   0.000059409
 33    -55.7855949628   0.000000146594 0.00032465  0.00006509  0.0000796   0.000057394
 34    -55.7855946813   0.000000281540 0.00021287  0.00003849  0.0000783   0.000050906
 35    -55.7855946126   0.000000068642 0.00025160  0.00004623  0.0000788   0.000049068
 36    -55.7855948045  -0.000000191871 0.00014058  0.00002484  0.0000796   0.000048790
 37    -55.7855946697   0.000000134809 0.00013462  0.00002801  0.0000787   0.000048624
 38    -55.7855947488  -0.000000079111 0.00018970  0.00002753  0.0000789   0.000050090

            ***Energy convergence in two consecutive cycles with***
                    ***'reasonable' density convergence***
                       *** signaling convergence ***

                    *** KDIIS BlockDiag ( 0.000 sec) ***

               *****************************************************
               *                     SUCCESS                       *
               *           SCF CONVERGED AFTER  39 CYCLES          *
               *****************************************************

Setting up the final grid:

General Integration Accuracy     IntAcc      ...  4.670
Radial Grid Type                 RadialGrid  ... Gauss-Chebyshev
Angular Grid (max. acc.)         AngularGrid ... Lebedev-302
Angular grid pruning method      GridPruning ... 3 (G Style)
Weight generation scheme         WeightScheme... Becke
Basis function cutoff            BFCut       ...    1.0000e-10
Integration weight cutoff        WCut        ...    1.0000e-14
Grids for H and He will be reduced by one unit

# of grid points (after initial pruning)     ...  16394 (   0.0 sec)
# of grid points (after weights+screening)   ...  16308 (   0.0 sec)
nearest neighbour list constructed           ...    0.0 sec
Grid point re-assignment to atoms done       ...    0.0 sec
Grid point division into batches done        ...    0.0 sec
Reduced shell lists constructed in    0.1 sec

Total number of grid points                  ...    16308
Total number of batches                      ...      257
Average number of points per batch           ...       63
Average number of grid points per atom       ...     4077
Average number of shells per batch           ...     7.52 (62.63%)
Average number of basis functions per batch  ...    11.41 (57.03%)
Average number of large shells per batch     ...     5.64 (75.04%)
Average number of large basis fcns per batch ...     8.42 (73.84%)
Maximum spatial batch extension              ...  21.92, 16.24, 16.92 au
Average spatial batch extension              ...   3.52,  3.58,  3.57 au

Final grid set up in    0.1 sec
Final integration                            ... done (   0.1 sec)
Change in XC energy                          ...     0.000051696
Integrated number of electrons               ...     9.999996376
Previous integrated no of electrons          ...     9.999054081

----------------
TOTAL SCF ENERGY
----------------

Total Energy       :          -55.78554309 Eh           -1518.00180 eV

Components:
Nuclear Repulsion  :            3.51356880 Eh              95.60907 eV
Electronic Energy  :          -59.29911189 Eh           -1613.61087 eV
One Electron Energy:          -84.16654667 Eh           -2290.28817 eV
Two Electron Energy:           24.86743478 Eh             676.67730 eV

Virial components:
Potential Energy   :         -111.15357611 Eh           -3024.64258 eV
Kinetic Energy     :           55.36803302 Eh            1506.64077 eV
Virial Ratio       :            2.00754063


DFT components:
N(Alpha)           :        4.999998187998 electrons
N(Beta)            :        4.999998187998 electrons
N(Total)           :        9.999996375996 electrons
E(XC)              :       -5.173509958438 Eh       

---------------
SCF CONVERGENCE
---------------

  Last Energy change         ...   -3.9076e-08  Tolerance :   1.0000e-06
  Last MAX-Density change    ...    6.0057e-05  Tolerance :   1.0000e-05
  Last RMS-Density change    ...    8.8577e-06  Tolerance :   1.0000e-06
  Last DIIS Error            ...    7.8992e-05  Tolerance :   1.0000e-06

             **** THE GBW FILE WAS UPDATED (Scan_45.gbw) ****
             **** DENSITY FILE WAS UPDATED (Scan_45.scfp.tmp) ****
             **** ENERGY FILE WAS UPDATED (Scan_45.en.tmp) ****
----------------
ORBITAL ENERGIES
----------------

  NO   OCC          E(Eh)            E(eV) 
   0   2.0000     -14.147056      -384.9610 
   1   2.0000      -0.828340       -22.5403 
   2   2.0000      -0.472172       -12.8484 
   3   2.0000      -0.020085        -0.5465 
   4   2.0000      -0.020055        -0.5457 
   5   0.0000      -0.337051        -9.1716 
   6   0.0000       0.014462         0.3935 
   7   0.0000       0.238868         6.4999 
   8   0.0000       0.559480        15.2242 
   9   0.0000       0.663159        18.0455 
  10   0.0000       0.813020        22.1234 
  11   0.0000       1.072790        29.1921 
  12   0.0000       1.081256        29.4225 
  13   0.0000       1.081329        29.4245 
  14   0.0000       1.161335        31.6015 
  15   0.0000       2.142416        58.2981 
  16   0.0000       2.145712        58.3878 
  17   0.0000       2.145776        58.3895 
  18   0.0000       2.184730        59.4495 
  19   0.0000       2.184741        59.4498 

                    ********************************
                    * MULLIKEN POPULATION ANALYSIS *
                    ********************************

-----------------------
MULLIKEN ATOMIC CHARGES
-----------------------
   0 N :   -0.999996
   1 H :    0.608685
   2 H :   -0.217232
   3 H :    0.608543
Sum of atomic charges:   -0.0000000

--------------------------------
MULLIKEN REDUCED ORBITAL CHARGES
--------------------------------
  0 N s       :     3.999457  s :     3.999457
      pz      :     1.894709  p :     4.000295
      px      :     1.820915
      py      :     0.284671
      dz2     :     0.000042  d :     0.000243
      dxz     :     0.000004
      dyz     :     0.000035
      dx2y2   :     0.000105
      dxy     :     0.000057
  1 H s       :     0.391315  s :     0.391315
  2 H s       :     1.217232  s :     1.217232
  3 H s       :     0.391457  s :     0.391457


                     *******************************
                     * LOEWDIN POPULATION ANALYSIS *
                     *******************************

----------------------
LOEWDIN ATOMIC CHARGES
----------------------
   0 N :   -0.999996
   1 H :    0.523721
   2 H :   -0.047293
   3 H :    0.523568

-------------------------------
LOEWDIN REDUCED ORBITAL CHARGES
-------------------------------
  0 N s       :     3.999457  s :     3.999457
      pz      :     1.894709  p :     4.000295
      px      :     1.820915
      py      :     0.284671
      dz2     :     0.000042  d :     0.000243
      dxz     :     0.000004
      dyz     :     0.000035
      dx2y2   :     0.000105
      dxy     :     0.000057
  1 H s       :     0.476279  s :     0.476279
  2 H s       :     1.047293  s :     1.047293
  3 H s       :     0.476432  s :     0.476432


                      *****************************
                      * MAYER POPULATION ANALYSIS *
                      *****************************

  NA   - Mulliken gross atomic population
  ZA   - Total nuclear charge
  QA   - Mulliken gross atomic charge
  VA   - Mayer's total valence
  BVA  - Mayer's bonded valence
  FA   - Mayer's free valence

  ATOM       NA         ZA         QA         VA         BVA        FA
  0 N      8.0000     7.0000    -1.0000     0.0000     0.0000    -0.0000
  1 H      0.3913     1.0000     0.6087     0.6295     0.6295    -0.0000
  2 H      1.2172     1.0000    -0.2172     0.9528     0.9528    -0.0000
  3 H      0.3915     1.0000     0.6085     0.6297     0.6297    -0.0000

  Mayer bond orders larger than 0.1
B(  1-H ,  2-H ) :   0.4763 B(  1-H ,  3-H ) :   0.1532 B(  2-H ,  3-H ) :   0.4765 


-------
TIMINGS
-------

Total SCF time: 0 days 0 hours 0 min 8 sec 

Total time                  ....       8.661 sec
Sum of individual times     ....       8.329 sec  ( 96.2%)

Fock matrix formation       ....       8.112 sec  ( 93.7%)
  XC integration            ....       1.632 sec  ( 20.1% of F)
    Basis function eval.    ....       0.287 sec  ( 17.6% of XC)
    Density eval.           ....       0.068 sec  (  4.2% of XC)
    XC-Functional eval.     ....       0.507 sec  ( 31.1% of XC)
    XC-Potential eval.      ....       0.020 sec  (  1.2% of XC)
Diagonalization             ....       0.010 sec  (  0.1%)
Density matrix formation    ....       0.000 sec  (  0.0%)
Population analysis         ....       0.010 sec  (  0.1%)
Initial guess               ....       0.088 sec  (  1.0%)
Orbital Transformation      ....       0.000 sec  (  0.0%)
Orbital Orthonormalization  ....       0.000 sec  (  0.0%)
DIIS solution               ....       0.000 sec  (  0.0%)
Grid generation             ....       0.110 sec  (  1.3%)


-------------------------------------------------------------------------------
                          DFT DISPERSION CORRECTION                            
                                                                               
                              DFTD3 V3.1  Rev 1                                
                              USING zero damping                               
-------------------------------------------------------------------------------
The omegaB97X-D3 functional is recognized. Fit by Chai et al.
Active option DFTDOPT                   ...         3   

molecular C6(AA) [au] = 169.448471 


            DFT-D V3
 parameters
 s6 scaling factor         :     1.0000 
 rs6 scaling factor        :     1.2810 
 s8 scaling factor         :     1.0000 
 rs8 scaling factor        :     1.0940 
 Damping factor alpha6     :    14.0000 
 Damping factor alpha8     :    16.0000 
 ad hoc parameters k1-k3   :    16.0000     1.3333    -4.0000 

 Edisp/kcal,au: -0.059279916503  -0.000094468550 
 E6   /kcal   :  -0.037584431 
 E8   /kcal   :  -0.021695485 
 % E8         :  36.598373318 

-------------------------   ----------------
Dispersion correction           -0.000094469
-------------------------   ----------------


-------------------------   --------------------
FINAL SINGLE POINT ENERGY       -55.785637560384
-------------------------   --------------------


                            ***************************************
                            *     ORCA property calculations      *
                            ***************************************

                                    ---------------------
                                    Active property flags
                                    ---------------------
   (+) Dipole Moment


------------------------------------------------------------------------------
                       ORCA ELECTRIC PROPERTIES CALCULATION
------------------------------------------------------------------------------

Dipole Moment Calculation                       ... on
Quadrupole Moment Calculation                   ... off
Polarizability Calculation                      ... off
GBWName                                         ... Scan_45.gbw
Electron density file                           ... Scan_45.scfp.tmp

-------------
DIPOLE MOMENT
-------------
                                X             Y             Z
Electronic contribution:     -0.63086      -2.06852       0.53998
Nuclear contribution   :      3.22092      10.58432      -2.77449
                        -----------------------------------------
Total Dipole Moment    :      2.59005       8.51580      -2.23452
                        -----------------------------------------
Magnitude (a.u.)       :      9.17716
Magnitude (Debye)      :     23.32648


Timings for individual modules:

Sum of individual times         ...        8.923 sec (=   0.149 min)
GTO integral calculation        ...        0.243 sec (=   0.004 min)   2.7 %
SCF iterations                  ...        8.680 sec (=   0.145 min)  97.3 %
                             ****ORCA TERMINATED NORMALLY****
TOTAL RUN TIME: 0 days 0 hours 0 minutes 9 seconds 208 msec
