
                                 *****************
                                 * O   R   C   A *
                                 *****************

           --- An Ab Initio, DFT and Semiempirical electronic structure package ---

                  #######################################################
                  #                        -***-                        #
                  #  Department of molecular theory and spectroscopy    #
                  #              Directorship: Frank Neese              #
                  # Max Planck Institute for Chemical Energy Conversion #
                  #                  D-45470 Muelheim/Ruhr              #
                  #                       Germany                       #
                  #                                                     #
                  #                  All rights reserved                #
                  #                        -***-                        #
                  #######################################################


                         Program Version 4.0.0.2 - RELEASE -


 With contributions from (in alphabetic order):
   Daniel Aravena         : Magnetic Properties
   Michael Atanasov       : Ab Initio Ligand Field Theory
   Ute Becker             : Parallelization
   Martin Brehm           : Molecular dynamics
   Dmytro Bykov           : SCF Hessian
   Vijay G. Chilkuri      : MRCI spin determinant printing
   Dipayan Datta          : RHF DLPNO-CCSD density
   Achintya Kumar Dutta   : EOM-CC, STEOM-CC
   Dmitry Ganyushin       : Spin-Orbit,Spin-Spin,Magnetic field MRCI
   Yang Guo               : DLPNO-NEVPT2, CIM, IAO-localization
   Andreas Hansen         : Spin unrestricted coupled pair/coupled cluster methods
   Lee Huntington         : MR-EOM, pCC
   Robert Izsak           : Overlap fitted RIJCOSX, COSX-SCS-MP3, EOM
   Christian Kollmar      : KDIIS, OOCD, Brueckner-CCSD(T), CCSD density
   Simone Kossmann        : Meta GGA functionals, TD-DFT gradient, OOMP2, MP2 Hessian
   Martin Krupicka        : AUTO-CI
   Dagmar Lenk            : GEPOL surface
   Dimitrios Liakos       : Extrapolation schemes; parallel MDCI
   Dimitrios Manganas     : ROCIS; embedding schemes
   Dimitrios Pantazis     : SARC Basis sets
   Taras Petrenko         : DFT Hessian,TD-DFT gradient, ASA, ECA, R-Raman, ABS, FL, XAS/XES, NRVS
   Peter Pinski           : DLPNO-MP2
   Christoph Reimann      : Effective Core Potentials
   Marius Retegan         : Local ZFS, SOC
   Christoph Riplinger    : Optimizer, TS searches, QM/MM, DLPNO-CCSD(T), (RO)-DLPNO pert. Triples
   Tobias Risthaus        : Range-separated hybrids, TD-DFT gradient, RPA, STAB
   Michael Roemelt        : Restricted open shell CIS
   Masaaki Saitow         : Open-shell DLPNO
   Barbara Sandhoefer     : DKH picture change effects
   Kantharuban Sivalingam : CASSCF convergence, NEVPT2, FIC-MRCI
   Georgi Stoychev        : AutoAux
   Boris Wezisla          : Elementary symmetry handling
   Frank Wennmohs         : Technical directorship


 We gratefully acknowledge several colleagues who have allowed us to
 interface, adapt or use parts of their codes:
   Stefan Grimme, W. Hujo, H. Kruse,             : VdW corrections, initial TS optimization,
                  C. Bannwarth                     DFT functionals, gCP, sTDA/sTD-DF
   Ed Valeev                                     : LibInt (2-el integral package), F12 methods
   Garnet Chan, S. Sharma, J. Yang, R. Olivares  : DMRG
   Ulf Ekstrom                                   : XCFun DFT Library
   Mihaly Kallay                                 : mrcc  (arbitrary order and MRCC methods)
   Jiri Pittner, Ondrej Demel                    : Mk-CCSD
   Frank Weinhold                                : gennbo (NPA and NBO analysis)
   Christopher J. Cramer and Donald G. Truhlar   : smd solvation model


 Your calculation uses the libint2 library for the computation of 2-el integrals
 For citations please refer to: http://libint.valeyev.net

 This ORCA versions uses:
   CBLAS   interface :  Fast vector & matrix operations
   LAPACKE interface :  Fast linear algebra routines
   SCALAPACK package :  Parallel linear algebra routines


Your calculation utilizes the atom-pairwise dispersion correction
with the zero-damping scheme (D30)
Cite in your paper:
S.Grimme, J.Antony, S.Ehrlich and H.Krieg, J.Chem.Phys., 132, (2010), 154104 
   

XCFun DFT library Copyright 2009-2010 Ulf Ekstrom and contributors.
See http://admol.org/xcfun for more information. This is free soft-
ware; see the source code for copying conditions. There is ABSOLUTELY
NO WARRANTY; not even for MERCHANTABILITY or FITNESS FOR A PARTICULAR
PURPOSE. For details see the documentation. Scientific users of this 
library should cite U. Ekstrom, L. Visscher, R. Bast, A. J. Thorvald-
sen and K. Ruud; J.Chem.Theor.Comp. 2010, DOI: 10.1021/ct100117s
XCFun Version 0.99 
Your calculation utilizes the basis: 6-31G(d)
   H-He, Li-Ne : W. J. Hehre, R. Ditchfield and J.A. Pople, J. Chem. Phys. 56, 2257 (1972).
                 Note: He and Ne are unpublished basis sets taken from the Gaussian program.
                 Note: Li and B from J. D. Dill and J. A. Pople, J. Chem. Phys. 62, 2921 (1975).
   Na - Ar     : M. M. Francl, W. J. Pietro, W. J. Hehre, J. S. Binkley, M. S. Gordon, 
                 D. J. DeFrees and J. A. Pople, J. Chem. Phys. 77, 3654 (1982).
   K - Zn      : V. A. Rassolov, J. A. Pople, M. A. Ratner, and T. L. Windus, J. Chem. Phys. 109, 1223 (1998).

================================================================================
                                        WARNINGS
                       Please study these warnings very carefully!
================================================================================

Warning: TCutStore was < 0. Adjusted to Thresh (uncritical)

INFO   : the flag for use of LIBINT has been found!

================================================================================
                                       INPUT FILE
================================================================================
NAME = initial7.inp
|  1> ! WB97X-D3 6-31G(d) VerySlowConv
|  2> ! KDIIS NOSOSCF
|  3> %base "Scan_7"
|  4> 
|  5> %scf
|  6> maxiter 999
|  7> end
|  8> 
|  9> * xyz 0 1
| 10> N         -0.057161202049    0.995122260879    0.009642770736
| 11> H          1.013930356837    1.072164143112   -0.002101821122
| 12> H         -0.377458067592    1.430040027129   -0.918563547671
| 13> H         -0.377461087196    1.686893568880    0.766062598057
| 14> **                         ****END OF INPUT****
================================================================================

                       ****************************
                       * Single Point Calculation *
                       ****************************

---------------------------------
CARTESIAN COORDINATES (ANGSTROEM)
---------------------------------
  N     -0.057161    0.995122    0.009643
  H      1.013930    1.072164   -0.002102
  H     -0.377458    1.430040   -0.918564
  H     -0.377461    1.686894    0.766063

----------------------------
CARTESIAN COORDINATES (A.U.)
----------------------------
  NO LB      ZA    FRAG     MASS         X           Y           Z
   0 N     7.0000    0    14.007   -0.108019    1.880509    0.018222
   1 H     1.0000    0     1.008    1.916051    2.026097   -0.003972
   2 H     1.0000    0     1.008   -0.713292    2.702384   -1.735834
   3 H     1.0000    0     1.008   -0.713298    3.187767    1.447649

--------------------------------
INTERNAL COORDINATES (ANGSTROEM)
--------------------------------
 N      0   0   0     0.000000000000     0.00000000     0.00000000
 H      1   0   0     1.073922955604     0.00000000     0.00000000
 H      1   2   0     1.073922955806   105.00824239     0.00000000
 H      1   2   3     1.073922955413   105.00824242   249.54624984

---------------------------
INTERNAL COORDINATES (A.U.)
---------------------------
 N      0   0   0     0.000000000000     0.00000000     0.00000000
 H      1   0   0     2.029420275022     0.00000000     0.00000000
 H      1   2   0     2.029420275405   105.00824239     0.00000000
 H      1   2   3     2.029420274662   105.00824242   249.54624984

---------------------
BASIS SET INFORMATION
---------------------
There are 2 groups of distinct atoms

 Group   1 Type N   : 10s4p1d contracted to 3s2p1d pattern {631/31/1}
 Group   2 Type H   : 4s contracted to 2s pattern {31}

Atom   0N    basis set group =>   1
Atom   1H    basis set group =>   2
Atom   2H    basis set group =>   2
Atom   3H    basis set group =>   2
------------------------------------------------------------------------------
                           ORCA GTO INTEGRAL CALCULATION
------------------------------------------------------------------------------

                         BASIS SET STATISTICS AND STARTUP INFO

 # of primitive gaussian shells          ...   27
 # of primitive gaussian functions       ...   39
 # of contracted shells                  ...   12
 # of contracted basis functions         ...   20
 Highest angular momentum                ...    2
 Maximum contraction depth               ...    6
 Integral package used                   ... LIBINT
 Integral threshhold            Thresh   ...  1.000e-10
 Primitive cut-off              TCut     ...  1.000e-11


------------------------------ INTEGRAL EVALUATION ----------------------------


 * One electron integrals 
 Pre-screening matrix                    ... done
 Shell pair data                         ... done (   0.000 sec)

-------------------------------------------------------------------------------
                                 ORCA SCF
-------------------------------------------------------------------------------

------------
SCF SETTINGS
------------
Hamiltonian:
 Density Functional     Method          .... DFT(GTOs)
 Exchange Functional    Exchange        .... WB97X-D3
 Correlation Functional Correlation     .... WB97X-D3
 Gradients option       PostSCFGGA      .... off
 Hybrid DFT is turned on
   Fraction HF Exchange ScalHFX         ....  0.195728
   Scaling of DF-GGA-X  ScalDFX         ....  0.000000
   Scaling of DF-GGA-C  ScalDFC         ....  1.000000
   Scaling of DF-LDA-C  ScalLDAC        ....  1.000000
   Perturbative correction              ....  0.000000
 Long-range corrected/Screened/Range-Separated Hybrid DFT is turned on
   Amount of maximum screened exact exchange              ....  0.804272
   Range separation parameter mu (erf(mu*r12)/r12)        ....  0.250000


General Settings:
 Integral files         IntName         .... Scan_7
 Hartree-Fock type      HFTyp           .... RHF
 Total Charge           Charge          ....    0
 Multiplicity           Mult            ....    1
 Number of Electrons    NEL             ....   10
 Basis Dimension        Dim             ....   20
 Nuclear Repulsion      ENuc            ....     11.2793808951 Eh

Convergence Acceleration:
 DIIS                   CNVDIIS         .... on
   Start iteration      DIISMaxIt       ....     0
   Startup error        DIISStart       ....  0.200000
   # of expansion vecs  DIISMaxEq       ....     5
   Bias factor          DIISBfac        ....   1.050
   Max. coefficient     DIISMaxC        ....  10.000
 Newton-Raphson         CNVNR           .... off
 SOSCF                  CNVSOSCF        .... off
 Level Shifting         CNVShift        .... off
 Zerner damping         CNVZerner       .... off
 Static damping         CNVDamp         .... off
 Fernandez-Rico         CNVRico         .... off

SCF Procedure:
 Maximum # iterations   MaxIter         ....   999
 SCF integral mode      SCFMode         .... Direct
   Integral package                     .... LIBINT
 Reset frequeny         DirectResetFreq ....    20
 Integral Threshold     Thresh          ....  1.000e-10 Eh
 Primitive CutOff       TCut            ....  1.000e-11 Eh

Convergence Tolerance:
 Convergence Check Mode ConvCheckMode   .... All-Criteria
 Convergence forced     ConvForced      .... 0
 Energy Change          TolE            ....  1.000e-06 Eh
 Max Density Change     TolMaxP         ....  1.000e-05
 RMS Density Change     TolRMSP         ....  1.000e-06
 DIIS Error             TolErr          ....  1.000e-06


Diagonalization of the overlap matrix:
Smallest eigenvalue                        ... 4.474e-02
Time for diagonalization                   ...    0.000 sec
Threshold for overlap eigenvalues          ... 1.000e-08
Number of eigenvalues below threshold      ... 0
Time for construction of square roots      ...    0.004 sec
Total time needed                          ...    0.005 sec

-------------------
DFT GRID GENERATION
-------------------

General Integration Accuracy     IntAcc      ...  4.340
Radial Grid Type                 RadialGrid  ... Gauss-Chebyshev
Angular Grid (max. acc.)         AngularGrid ... Lebedev-110
Angular grid pruning method      GridPruning ... 3 (G Style)
Weight generation scheme         WeightScheme... Becke
Basis function cutoff            BFCut       ...    1.0000e-10
Integration weight cutoff        WCut        ...    1.0000e-14
Grids for H and He will be reduced by one unit

# of grid points (after initial pruning)     ...   4084 (   0.0 sec)
# of grid points (after weights+screening)   ...   4023 (   0.0 sec)
nearest neighbour list constructed           ...    0.0 sec
Grid point re-assignment to atoms done       ...    0.0 sec
Grid point division into batches done        ...    0.0 sec
Reduced shell lists constructed in    0.0 sec

Total number of grid points                  ...     4023
Total number of batches                      ...       65
Average number of points per batch           ...       61
Average number of grid points per atom       ...     1006
Average number of shells per batch           ...    11.33 (94.44%)
Average number of basis functions per batch  ...    19.00 (95.00%)
Average number of large shells per batch     ...    10.64 (93.85%)
Average number of large basis fcns per batch ...    17.97 (94.58%)
Maximum spatial batch extension              ...  18.68, 21.59, 18.30 au
Average spatial batch extension              ...   4.93,  5.18,  4.27 au

Time for grid setup =    0.022 sec

------------------------------
INITIAL GUESS: MODEL POTENTIAL
------------------------------
Loading Hartree-Fock densities                     ... done
Calculating cut-offs                               ... done
Setting up the integral package                    ... done
Initializing the effective Hamiltonian             ... done
Starting the Coulomb interaction                   ... done (   0.0 sec)
Reading the grid                                   ... done
Mapping shells                                     ... done
Starting the XC term evaluation                    ... done (   0.0 sec)
  promolecular density results
     # of electrons  =      9.999821941
     EX              =     -7.370391939
     EC              =     -0.302163851
     EX+EC           =     -7.672555789
Transforming the Hamiltonian                       ... done (   0.0 sec)
Diagonalizing the Hamiltonian                      ... done (   0.0 sec)
Back transforming the eigenvectors                 ... done (   0.0 sec)
Now organizing SCF variables                       ... done
                      ------------------
                      INITIAL GUESS DONE (   0.1 sec)
                      ------------------
--------------
SCF ITERATIONS
--------------
ITER       Energy         Delta-E        Max-DP      RMS-DP      [F,P]   Gradient Norm
               ***  Starting incremental Fock matrix formation  ***
                             ****Resetting KDIIS****
                             ****Turning on KDIIS(Cayley)****
  0    -56.4261794395   0.000000000000 0.03794692  0.00412204  0.1532583   0.146308620
  1    -56.4631080656  -0.036928626089 0.02482581  0.00271696  0.1201522   0.113981746
  2    -56.4824672995  -0.019359233909 0.04009598  0.00456165  0.0975156   0.092961095
  3    -56.5060990700  -0.023631770471 0.06008405  0.00711811  0.0600656   0.058282130
  4    -56.5215964614  -0.015497391452 0.01296592  0.00144924  0.0051282   0.004994190
  5    -56.5217639285  -0.000167467033 0.01525904  0.00206668  0.0025793   0.002169691
  6    -56.5217533108   0.000010617679 0.01089532  0.00126540  0.0023663   0.002560816
  7    -56.5218073496  -0.000054038802 0.00043426  0.00004309  0.0000775   0.000079565
                          ***Energy convergence achieved***
  8    -56.5218074041  -0.000000054471 0.00006258  0.00000469  0.0000066   0.000005488
                           ***RMSP convergence achieved***
                           ***MAXP convergence achieved***
                    *** KDIIS BlockDiag ( 0.000 sec) ***

               *****************************************************
               *                     SUCCESS                       *
               *           SCF CONVERGED AFTER   9 CYCLES          *
               *****************************************************

Setting up the final grid:

General Integration Accuracy     IntAcc      ...  4.670
Radial Grid Type                 RadialGrid  ... Gauss-Chebyshev
Angular Grid (max. acc.)         AngularGrid ... Lebedev-302
Angular grid pruning method      GridPruning ... 3 (G Style)
Weight generation scheme         WeightScheme... Becke
Basis function cutoff            BFCut       ...    1.0000e-10
Integration weight cutoff        WCut        ...    1.0000e-14
Grids for H and He will be reduced by one unit

# of grid points (after initial pruning)     ...  16394 (   0.0 sec)
# of grid points (after weights+screening)   ...  16127 (   0.0 sec)
nearest neighbour list constructed           ...    0.0 sec
Grid point re-assignment to atoms done       ...    0.0 sec
Grid point division into batches done        ...    0.0 sec
Reduced shell lists constructed in    0.1 sec

Total number of grid points                  ...    16127
Total number of batches                      ...      254
Average number of points per batch           ...       63
Average number of grid points per atom       ...     4032
Average number of shells per batch           ...    10.32 (85.98%)
Average number of basis functions per batch  ...    17.28 (86.41%)
Average number of large shells per batch     ...     9.68 (93.80%)
Average number of large basis fcns per batch ...    16.31 (94.35%)
Maximum spatial batch extension              ...  15.43, 16.88, 15.44 au
Average spatial batch extension              ...   3.10,  3.28,  2.94 au

Final grid set up in    0.1 sec
Final integration                            ... done (   0.1 sec)
Change in XC energy                          ...    -0.000101632
Integrated number of electrons               ...    10.000016449
Previous integrated no of electrons          ...     9.999590723

----------------
TOTAL SCF ENERGY
----------------

Total Energy       :          -56.52190904 Eh           -1538.03934 eV

Components:
Nuclear Repulsion  :           11.27938090 Eh             306.92756 eV
Electronic Energy  :          -67.80128993 Eh           -1844.96690 eV
One Electron Energy:          -98.45853506 Eh           -2679.19295 eV
Two Electron Energy:           30.65724513 Eh             834.22605 eV

Virial components:
Potential Energy   :         -112.47729724 Eh           -3060.66286 eV
Kinetic Energy     :           55.95538820 Eh            1522.62352 eV
Virial Ratio       :            2.01012451


DFT components:
N(Alpha)           :        5.000008224612 electrons
N(Beta)            :        5.000008224612 electrons
N(Total)           :       10.000016449224 electrons
E(XC)              :       -5.395207566777 Eh       

---------------
SCF CONVERGENCE
---------------

  Last Energy change         ...   -2.9064e-10  Tolerance :   1.0000e-06
  Last MAX-Density change    ...    9.1839e-06  Tolerance :   1.0000e-05
  Last RMS-Density change    ...    7.8756e-07  Tolerance :   1.0000e-06
  Last DIIS Error            ...    1.4272e-06  Tolerance :   1.0000e-06

             **** THE GBW FILE WAS UPDATED (Scan_7.gbw) ****
             **** DENSITY FILE WAS UPDATED (Scan_7.scfp.tmp) ****
             **** ENERGY FILE WAS UPDATED (Scan_7.en.tmp) ****
----------------
ORBITAL ENERGIES
----------------

  NO   OCC          E(Eh)            E(eV) 
   0   2.0000     -14.417561      -392.3218 
   1   2.0000      -0.938964       -25.5505 
   2   2.0000      -0.533964       -14.5299 
   3   2.0000      -0.533786       -14.5250 
   4   2.0000      -0.352066        -9.5802 
   5   0.0000       0.161783         4.4024 
   6   0.0000       0.247460         6.7337 
   7   0.0000       0.247611         6.7378 
   8   0.0000       0.793959        21.6047 
   9   0.0000       0.793982        21.6053 
  10   0.0000       0.830208        22.5911 
  11   0.0000       0.981181        26.6993 
  12   0.0000       0.990409        26.9504 
  13   0.0000       0.990589        26.9553 
  14   0.0000       1.345652        36.6170 
  15   0.0000       1.782921        48.5157 
  16   0.0000       1.783476        48.5309 
  17   0.0000       2.005209        54.5645 
  18   0.0000       2.430867        66.1473 
  19   0.0000       2.431516        66.1649 

                    ********************************
                    * MULLIKEN POPULATION ANALYSIS *
                    ********************************

-----------------------
MULLIKEN ATOMIC CHARGES
-----------------------
   0 N :   -0.912165
   1 H :    0.303845
   2 H :    0.304224
   3 H :    0.304096
Sum of atomic charges:    0.0000000

--------------------------------
MULLIKEN REDUCED ORBITAL CHARGES
--------------------------------
  0 N s       :     3.751211  s :     3.751211
      pz      :     1.199503  p :     4.130142
      px      :     1.251259
      py      :     1.679381
      dz2     :     0.004594  d :     0.030811
      dxz     :     0.000639
      dyz     :     0.012982
      dx2y2   :     0.009205
      dxy     :     0.003390
  1 H s       :     0.696155  s :     0.696155
  2 H s       :     0.695776  s :     0.695776
  3 H s       :     0.695904  s :     0.695904


                     *******************************
                     * LOEWDIN POPULATION ANALYSIS *
                     *******************************

----------------------
LOEWDIN ATOMIC CHARGES
----------------------
   0 N :   -0.678732
   1 H :    0.226205
   2 H :    0.226216
   3 H :    0.226311

-------------------------------
LOEWDIN REDUCED ORBITAL CHARGES
-------------------------------
  0 N s       :     3.418406  s :     3.418406
      pz      :     1.235353  p :     4.215271
      px      :     1.284781
      py      :     1.695137
      dz2     :     0.008183  d :     0.045054
      dxz     :     0.002655
      dyz     :     0.017532
      dx2y2   :     0.012836
      dxy     :     0.003849
  1 H s       :     0.773795  s :     0.773795
  2 H s       :     0.773784  s :     0.773784
  3 H s       :     0.773689  s :     0.773689


                      *****************************
                      * MAYER POPULATION ANALYSIS *
                      *****************************

  NA   - Mulliken gross atomic population
  ZA   - Total nuclear charge
  QA   - Mulliken gross atomic charge
  VA   - Mayer's total valence
  BVA  - Mayer's bonded valence
  FA   - Mayer's free valence

  ATOM       NA         ZA         QA         VA         BVA        FA
  0 N      7.9122     7.0000    -0.9122     2.6249     2.6249    -0.0000
  1 H      0.6962     1.0000     0.3038     0.8682     0.8682    -0.0000
  2 H      0.6958     1.0000     0.3042     0.8678     0.8678    -0.0000
  3 H      0.6959     1.0000     0.3041     0.8680     0.8680     0.0000

  Mayer bond orders larger than 0.1
B(  0-N ,  1-H ) :   0.8752 B(  0-N ,  2-H ) :   0.8747 B(  0-N ,  3-H ) :   0.8750 


-------
TIMINGS
-------

Total SCF time: 0 days 0 hours 0 min 3 sec 

Total time                  ....       3.102 sec
Sum of individual times     ....       2.986 sec  ( 96.3%)

Fock matrix formation       ....       2.698 sec  ( 87.0%)
  XC integration            ....       0.585 sec  ( 21.7% of F)
    Basis function eval.    ....       0.169 sec  ( 28.8% of XC)
    Density eval.           ....       0.023 sec  (  4.0% of XC)
    XC-Functional eval.     ....       0.169 sec  ( 28.8% of XC)
    XC-Potential eval.      ....       0.015 sec  (  2.5% of XC)
Diagonalization             ....       0.027 sec  (  0.9%)
Density matrix formation    ....       0.000 sec  (  0.0%)
Population analysis         ....       0.011 sec  (  0.4%)
Initial guess               ....       0.118 sec  (  3.8%)
Orbital Transformation      ....       0.000 sec  (  0.0%)
Orbital Orthonormalization  ....       0.000 sec  (  0.0%)
DIIS solution               ....       0.000 sec  (  0.0%)
Grid generation             ....       0.131 sec  (  4.2%)


-------------------------------------------------------------------------------
                          DFT DISPERSION CORRECTION                            
                                                                               
                              DFTD3 V3.1  Rev 1                                
                              USING zero damping                               
-------------------------------------------------------------------------------
The omegaB97X-D3 functional is recognized. Fit by Chai et al.
Active option DFTDOPT                   ...         3   

molecular C6(AA) [au] = 84.766624 


            DFT-D V3
 parameters
 s6 scaling factor         :     1.0000 
 rs6 scaling factor        :     1.2810 
 s8 scaling factor         :     1.0000 
 rs8 scaling factor        :     1.0940 
 Damping factor alpha6     :    14.0000 
 Damping factor alpha8     :    16.0000 
 ad hoc parameters k1-k3   :    16.0000     1.3333    -4.0000 

 Edisp/kcal,au: -0.005565901325  -0.000008869827 
 E6   /kcal   :  -0.000866924 
 E8   /kcal   :  -0.004698977 
 % E8         :  84.424366047 

-------------------------   ----------------
Dispersion correction           -0.000008870
-------------------------   ----------------


-------------------------   --------------------
FINAL SINGLE POINT ENERGY       -56.521917906486
-------------------------   --------------------


                            ***************************************
                            *     ORCA property calculations      *
                            ***************************************

                                    ---------------------
                                    Active property flags
                                    ---------------------
   (+) Dipole Moment


------------------------------------------------------------------------------
                       ORCA ELECTRIC PROPERTIES CALCULATION
------------------------------------------------------------------------------

Dipole Moment Calculation                       ... on
Quadrupole Moment Calculation                   ... off
Polarizability Calculation                      ... off
GBWName                                         ... Scan_7.gbw
Electron density file                           ... Scan_7.scfp.tmp

-------------
DIPOLE MOMENT
-------------
                                X             Y             Z
Electronic contribution:     -0.07079      -0.19928       0.03100
Nuclear contribution   :      0.33203       0.92840      -0.14155
                        -----------------------------------------
Total Dipole Moment    :      0.26124       0.72912      -0.11056
                        -----------------------------------------
Magnitude (a.u.)       :      0.78236
Magnitude (Debye)      :      1.98859


Timings for individual modules:

Sum of individual times         ...        3.431 sec (=   0.057 min)
GTO integral calculation        ...        0.307 sec (=   0.005 min)   8.9 %
SCF iterations                  ...        3.124 sec (=   0.052 min)  91.1 %
                             ****ORCA TERMINATED NORMALLY****
TOTAL RUN TIME: 0 days 0 hours 0 minutes 3 seconds 769 msec
