
                                 *****************
                                 * O   R   C   A *
                                 *****************

           --- An Ab Initio, DFT and Semiempirical electronic structure package ---

                  #######################################################
                  #                        -***-                        #
                  #  Department of molecular theory and spectroscopy    #
                  #              Directorship: Frank Neese              #
                  # Max Planck Institute for Chemical Energy Conversion #
                  #                  D-45470 Muelheim/Ruhr              #
                  #                       Germany                       #
                  #                                                     #
                  #                  All rights reserved                #
                  #                        -***-                        #
                  #######################################################


                         Program Version 4.0.0.2 - RELEASE -


 With contributions from (in alphabetic order):
   Daniel Aravena         : Magnetic Properties
   Michael Atanasov       : Ab Initio Ligand Field Theory
   Ute Becker             : Parallelization
   Martin Brehm           : Molecular dynamics
   Dmytro Bykov           : SCF Hessian
   Vijay G. Chilkuri      : MRCI spin determinant printing
   Dipayan Datta          : RHF DLPNO-CCSD density
   Achintya Kumar Dutta   : EOM-CC, STEOM-CC
   Dmitry Ganyushin       : Spin-Orbit,Spin-Spin,Magnetic field MRCI
   Yang Guo               : DLPNO-NEVPT2, CIM, IAO-localization
   Andreas Hansen         : Spin unrestricted coupled pair/coupled cluster methods
   Lee Huntington         : MR-EOM, pCC
   Robert Izsak           : Overlap fitted RIJCOSX, COSX-SCS-MP3, EOM
   Christian Kollmar      : KDIIS, OOCD, Brueckner-CCSD(T), CCSD density
   Simone Kossmann        : Meta GGA functionals, TD-DFT gradient, OOMP2, MP2 Hessian
   Martin Krupicka        : AUTO-CI
   Dagmar Lenk            : GEPOL surface
   Dimitrios Liakos       : Extrapolation schemes; parallel MDCI
   Dimitrios Manganas     : ROCIS; embedding schemes
   Dimitrios Pantazis     : SARC Basis sets
   Taras Petrenko         : DFT Hessian,TD-DFT gradient, ASA, ECA, R-Raman, ABS, FL, XAS/XES, NRVS
   Peter Pinski           : DLPNO-MP2
   Christoph Reimann      : Effective Core Potentials
   Marius Retegan         : Local ZFS, SOC
   Christoph Riplinger    : Optimizer, TS searches, QM/MM, DLPNO-CCSD(T), (RO)-DLPNO pert. Triples
   Tobias Risthaus        : Range-separated hybrids, TD-DFT gradient, RPA, STAB
   Michael Roemelt        : Restricted open shell CIS
   Masaaki Saitow         : Open-shell DLPNO
   Barbara Sandhoefer     : DKH picture change effects
   Kantharuban Sivalingam : CASSCF convergence, NEVPT2, FIC-MRCI
   Georgi Stoychev        : AutoAux
   Boris Wezisla          : Elementary symmetry handling
   Frank Wennmohs         : Technical directorship


 We gratefully acknowledge several colleagues who have allowed us to
 interface, adapt or use parts of their codes:
   Stefan Grimme, W. Hujo, H. Kruse,             : VdW corrections, initial TS optimization,
                  C. Bannwarth                     DFT functionals, gCP, sTDA/sTD-DF
   Ed Valeev                                     : LibInt (2-el integral package), F12 methods
   Garnet Chan, S. Sharma, J. Yang, R. Olivares  : DMRG
   Ulf Ekstrom                                   : XCFun DFT Library
   Mihaly Kallay                                 : mrcc  (arbitrary order and MRCC methods)
   Jiri Pittner, Ondrej Demel                    : Mk-CCSD
   Frank Weinhold                                : gennbo (NPA and NBO analysis)
   Christopher J. Cramer and Donald G. Truhlar   : smd solvation model


 Your calculation uses the libint2 library for the computation of 2-el integrals
 For citations please refer to: http://libint.valeyev.net

 This ORCA versions uses:
   CBLAS   interface :  Fast vector & matrix operations
   LAPACKE interface :  Fast linear algebra routines
   SCALAPACK package :  Parallel linear algebra routines


Your calculation utilizes the atom-pairwise dispersion correction
with the zero-damping scheme (D30)
Cite in your paper:
S.Grimme, J.Antony, S.Ehrlich and H.Krieg, J.Chem.Phys., 132, (2010), 154104 
   

XCFun DFT library Copyright 2009-2010 Ulf Ekstrom and contributors.
See http://admol.org/xcfun for more information. This is free soft-
ware; see the source code for copying conditions. There is ABSOLUTELY
NO WARRANTY; not even for MERCHANTABILITY or FITNESS FOR A PARTICULAR
PURPOSE. For details see the documentation. Scientific users of this 
library should cite U. Ekstrom, L. Visscher, R. Bast, A. J. Thorvald-
sen and K. Ruud; J.Chem.Theor.Comp. 2010, DOI: 10.1021/ct100117s
XCFun Version 0.99 
Your calculation utilizes the basis: 6-31G(d)
   H-He, Li-Ne : W. J. Hehre, R. Ditchfield and J.A. Pople, J. Chem. Phys. 56, 2257 (1972).
                 Note: He and Ne are unpublished basis sets taken from the Gaussian program.
                 Note: Li and B from J. D. Dill and J. A. Pople, J. Chem. Phys. 62, 2921 (1975).
   Na - Ar     : M. M. Francl, W. J. Pietro, W. J. Hehre, J. S. Binkley, M. S. Gordon, 
                 D. J. DeFrees and J. A. Pople, J. Chem. Phys. 77, 3654 (1982).
   K - Zn      : V. A. Rassolov, J. A. Pople, M. A. Ratner, and T. L. Windus, J. Chem. Phys. 109, 1223 (1998).

================================================================================
                                        WARNINGS
                       Please study these warnings very carefully!
================================================================================

Warning: TCutStore was < 0. Adjusted to Thresh (uncritical)

INFO   : the flag for use of LIBINT has been found!

================================================================================
                                       INPUT FILE
================================================================================
NAME = initial8.inp
|  1> ! WB97X-D3 6-31G(d) VerySlowConv
|  2> ! KDIIS NOSOSCF
|  3> %base "Scan_8"
|  4> 
|  5> %scf
|  6> maxiter 999
|  7> end
|  8> 
|  9> * xyz 0 1
| 10> N         -0.074437358243    0.946815420388    0.017008043837
| 11> H          1.066681304969    1.071842238040   -0.002052646529
| 12> H         -0.395195386709    1.447848250720   -0.964942672873
| 13> H         -0.395198560018    1.717714090851    0.805027275564
| 14> **                         ****END OF INPUT****
================================================================================

                       ****************************
                       * Single Point Calculation *
                       ****************************

---------------------------------
CARTESIAN COORDINATES (ANGSTROEM)
---------------------------------
  N     -0.074437    0.946815    0.017008
  H      1.066681    1.071842   -0.002053
  H     -0.395195    1.447848   -0.964943
  H     -0.395199    1.717714    0.805027

----------------------------
CARTESIAN COORDINATES (A.U.)
----------------------------
  NO LB      ZA    FRAG     MASS         X           Y           Z
   0 N     7.0000    0    14.007   -0.140666    1.789222    0.032141
   1 H     1.0000    0     1.008    2.015736    2.025488   -0.003879
   2 H     1.0000    0     1.008   -0.746811    2.736037   -1.823477
   3 H     1.0000    0     1.008   -0.746817    3.246009    1.521281

--------------------------------
INTERNAL COORDINATES (ANGSTROEM)
--------------------------------
 N      0   0   0     0.000000000000     0.00000000     0.00000000
 H      1   0   0     1.148105752350     0.00000000     0.00000000
 H      1   2   0     1.148105752944   102.47171143     0.00000000
 H      1   2   3     1.148105752210   102.47171158   254.01169344

---------------------------
INTERNAL COORDINATES (A.U.)
---------------------------
 N      0   0   0     0.000000000000     0.00000000     0.00000000
 H      1   0   0     2.169605444722     0.00000000     0.00000000
 H      1   2   0     2.169605445844   102.47171143     0.00000000
 H      1   2   3     2.169605444456   102.47171158   254.01169344

---------------------
BASIS SET INFORMATION
---------------------
There are 2 groups of distinct atoms

 Group   1 Type N   : 10s4p1d contracted to 3s2p1d pattern {631/31/1}
 Group   2 Type H   : 4s contracted to 2s pattern {31}

Atom   0N    basis set group =>   1
Atom   1H    basis set group =>   2
Atom   2H    basis set group =>   2
Atom   3H    basis set group =>   2
------------------------------------------------------------------------------
                           ORCA GTO INTEGRAL CALCULATION
------------------------------------------------------------------------------

                         BASIS SET STATISTICS AND STARTUP INFO

 # of primitive gaussian shells          ...   27
 # of primitive gaussian functions       ...   39
 # of contracted shells                  ...   12
 # of contracted basis functions         ...   20
 Highest angular momentum                ...    2
 Maximum contraction depth               ...    6
 Integral package used                   ... LIBINT
 Integral threshhold            Thresh   ...  1.000e-10
 Primitive cut-off              TCut     ...  1.000e-11


------------------------------ INTEGRAL EVALUATION ----------------------------


 * One electron integrals 
 Pre-screening matrix                    ... done
 Shell pair data                         ... done (   0.000 sec)

-------------------------------------------------------------------------------
                                 ORCA SCF
-------------------------------------------------------------------------------

------------
SCF SETTINGS
------------
Hamiltonian:
 Density Functional     Method          .... DFT(GTOs)
 Exchange Functional    Exchange        .... WB97X-D3
 Correlation Functional Correlation     .... WB97X-D3
 Gradients option       PostSCFGGA      .... off
 Hybrid DFT is turned on
   Fraction HF Exchange ScalHFX         ....  0.195728
   Scaling of DF-GGA-X  ScalDFX         ....  0.000000
   Scaling of DF-GGA-C  ScalDFC         ....  1.000000
   Scaling of DF-LDA-C  ScalLDAC        ....  1.000000
   Perturbative correction              ....  0.000000
 Long-range corrected/Screened/Range-Separated Hybrid DFT is turned on
   Amount of maximum screened exact exchange              ....  0.804272
   Range separation parameter mu (erf(mu*r12)/r12)        ....  0.250000


General Settings:
 Integral files         IntName         .... Scan_8
 Hartree-Fock type      HFTyp           .... RHF
 Total Charge           Charge          ....    0
 Multiplicity           Mult            ....    1
 Number of Electrons    NEL             ....   10
 Basis Dimension        Dim             ....   20
 Nuclear Repulsion      ENuc            ....     10.5658579678 Eh

Convergence Acceleration:
 DIIS                   CNVDIIS         .... on
   Start iteration      DIISMaxIt       ....     0
   Startup error        DIISStart       ....  0.200000
   # of expansion vecs  DIISMaxEq       ....     5
   Bias factor          DIISBfac        ....   1.050
   Max. coefficient     DIISMaxC        ....  10.000
 Newton-Raphson         CNVNR           .... off
 SOSCF                  CNVSOSCF        .... off
 Level Shifting         CNVShift        .... off
 Zerner damping         CNVZerner       .... off
 Static damping         CNVDamp         .... off
 Fernandez-Rico         CNVRico         .... off

SCF Procedure:
 Maximum # iterations   MaxIter         ....   999
 SCF integral mode      SCFMode         .... Direct
   Integral package                     .... LIBINT
 Reset frequeny         DirectResetFreq ....    20
 Integral Threshold     Thresh          ....  1.000e-10 Eh
 Primitive CutOff       TCut            ....  1.000e-11 Eh

Convergence Tolerance:
 Convergence Check Mode ConvCheckMode   .... All-Criteria
 Convergence forced     ConvForced      .... 0
 Energy Change          TolE            ....  1.000e-06 Eh
 Max Density Change     TolMaxP         ....  1.000e-05
 RMS Density Change     TolRMSP         ....  1.000e-06
 DIIS Error             TolErr          ....  1.000e-06


Diagonalization of the overlap matrix:
Smallest eigenvalue                        ... 5.231e-02
Time for diagonalization                   ...    0.000 sec
Threshold for overlap eigenvalues          ... 1.000e-08
Number of eigenvalues below threshold      ... 0
Time for construction of square roots      ...    0.004 sec
Total time needed                          ...    0.005 sec

-------------------
DFT GRID GENERATION
-------------------

General Integration Accuracy     IntAcc      ...  4.340
Radial Grid Type                 RadialGrid  ... Gauss-Chebyshev
Angular Grid (max. acc.)         AngularGrid ... Lebedev-110
Angular grid pruning method      GridPruning ... 3 (G Style)
Weight generation scheme         WeightScheme... Becke
Basis function cutoff            BFCut       ...    1.0000e-10
Integration weight cutoff        WCut        ...    1.0000e-14
Grids for H and He will be reduced by one unit

# of grid points (after initial pruning)     ...   4084 (   0.0 sec)
# of grid points (after weights+screening)   ...   4034 (   0.0 sec)
nearest neighbour list constructed           ...    0.0 sec
Grid point re-assignment to atoms done       ...    0.0 sec
Grid point division into batches done        ...    0.0 sec
Reduced shell lists constructed in    0.0 sec

Total number of grid points                  ...     4034
Total number of batches                      ...       65
Average number of points per batch           ...       62
Average number of grid points per atom       ...     1008
Average number of shells per batch           ...    11.26 (93.81%)
Average number of basis functions per batch  ...    18.83 (94.17%)
Average number of large shells per batch     ...    10.59 (94.08%)
Average number of large basis fcns per batch ...    17.83 (94.69%)
Maximum spatial batch extension              ...  18.68, 20.95, 18.30 au
Average spatial batch extension              ...   5.05,  5.35,  4.32 au

Time for grid setup =    0.022 sec

------------------------------
INITIAL GUESS: MODEL POTENTIAL
------------------------------
Loading Hartree-Fock densities                     ... done
Calculating cut-offs                               ... done
Setting up the integral package                    ... done
Initializing the effective Hamiltonian             ... done
Starting the Coulomb interaction                   ... done (   0.0 sec)
Reading the grid                                   ... done
Mapping shells                                     ... done
Starting the XC term evaluation                    ... done (   0.0 sec)
  promolecular density results
     # of electrons  =      9.999187208
     EX              =     -7.333652831
     EC              =     -0.297916616
     EX+EC           =     -7.631569448
Transforming the Hamiltonian                       ... done (   0.0 sec)
Diagonalizing the Hamiltonian                      ... done (   0.0 sec)
Back transforming the eigenvectors                 ... done (   0.0 sec)
Now organizing SCF variables                       ... done
                      ------------------
                      INITIAL GUESS DONE (   0.1 sec)
                      ------------------
--------------
SCF ITERATIONS
--------------
ITER       Energy         Delta-E        Max-DP      RMS-DP      [F,P]   Gradient Norm
               ***  Starting incremental Fock matrix formation  ***
                             ****Resetting KDIIS****
                             ****Turning on KDIIS(Cayley)****
  0    -56.4130415849   0.000000000000 0.03590206  0.00403574  0.1355093   0.135603450
  1    -56.4470174268  -0.033975841935 0.02119577  0.00248535  0.1040733   0.104316043
  2    -56.4637877500  -0.016770323162 0.03405648  0.00419582  0.0843027   0.085072432
  3    -56.4843227959  -0.020535045900 0.05143299  0.00663358  0.0517874   0.053384323
  4    -56.4978966152  -0.013573819303 0.01902408  0.00199365  0.0050648   0.004782476
  5    -56.4980867700  -0.000190154810 0.01211479  0.00185132  0.0018285   0.001492805
  6    -56.4980356999   0.000051070046 0.01355963  0.00151646  0.0030788   0.002820698
  7    -56.4981099748  -0.000074274874 0.00068955  0.00006416  0.0001150   0.000101907
                          ***Energy convergence achieved***
  8    -56.4981100795  -0.000000104676 0.00003067  0.00000220  0.0000060   0.000006209
                           ***RMSP convergence achieved***
                           ***MAXP convergence achieved***
                    *** KDIIS BlockDiag ( 0.000 sec) ***

               *****************************************************
               *                     SUCCESS                       *
               *           SCF CONVERGED AFTER   9 CYCLES          *
               *****************************************************

Setting up the final grid:

General Integration Accuracy     IntAcc      ...  4.670
Radial Grid Type                 RadialGrid  ... Gauss-Chebyshev
Angular Grid (max. acc.)         AngularGrid ... Lebedev-302
Angular grid pruning method      GridPruning ... 3 (G Style)
Weight generation scheme         WeightScheme... Becke
Basis function cutoff            BFCut       ...    1.0000e-10
Integration weight cutoff        WCut        ...    1.0000e-14
Grids for H and He will be reduced by one unit

# of grid points (after initial pruning)     ...  16394 (   0.0 sec)
# of grid points (after weights+screening)   ...  16145 (   0.0 sec)
nearest neighbour list constructed           ...    0.0 sec
Grid point re-assignment to atoms done       ...    0.0 sec
Grid point division into batches done        ...    0.0 sec
Reduced shell lists constructed in    0.1 sec

Total number of grid points                  ...    16145
Total number of batches                      ...      255
Average number of points per batch           ...       63
Average number of grid points per atom       ...     4036
Average number of shells per batch           ...    10.33 (86.10%)
Average number of basis functions per batch  ...    17.33 (86.66%)
Average number of large shells per batch     ...     9.64 (93.35%)
Average number of large basis fcns per batch ...    16.29 (93.96%)
Maximum spatial batch extension              ...  15.17, 16.88, 15.27 au
Average spatial batch extension              ...   3.09,  3.24,  2.94 au

Final grid set up in    0.1 sec
Final integration                            ... done (   0.1 sec)
Change in XC energy                          ...    -0.000159948
Integrated number of electrons               ...    10.000006178
Previous integrated no of electrons          ...     9.999228757

----------------
TOTAL SCF ENERGY
----------------

Total Energy       :          -56.49827003 Eh           -1537.39609 eV

Components:
Nuclear Repulsion  :           10.56585797 Eh             287.51161 eV
Electronic Energy  :          -67.06412800 Eh           -1824.90770 eV
One Electron Energy:          -97.07873241 Eh           -2641.64661 eV
Two Electron Energy:           30.01460441 Eh             816.73891 eV

Virial components:
Potential Energy   :         -112.20621780 Eh           -3053.28641 eV
Kinetic Energy     :           55.70794777 Eh            1515.89033 eV
Virial Ratio       :            2.01418689


DFT components:
N(Alpha)           :        5.000003088990 electrons
N(Beta)            :        5.000003088990 electrons
N(Total)           :       10.000006177979 electrons
E(XC)              :       -5.332761636189 Eh       

---------------
SCF CONVERGENCE
---------------

  Last Energy change         ...   -2.0344e-10  Tolerance :   1.0000e-06
  Last MAX-Density change    ...    9.3409e-06  Tolerance :   1.0000e-05
  Last RMS-Density change    ...    7.0264e-07  Tolerance :   1.0000e-06
  Last DIIS Error            ...    1.2703e-06  Tolerance :   1.0000e-06

             **** THE GBW FILE WAS UPDATED (Scan_8.gbw) ****
             **** DENSITY FILE WAS UPDATED (Scan_8.scfp.tmp) ****
             **** ENERGY FILE WAS UPDATED (Scan_8.en.tmp) ****
----------------
ORBITAL ENERGIES
----------------

  NO   OCC          E(Eh)            E(eV) 
   0   2.0000     -14.443512      -393.0279 
   1   2.0000      -0.918787       -25.0015 
   2   2.0000      -0.513392       -13.9701 
   3   2.0000      -0.513229       -13.9657 
   4   2.0000      -0.360602        -9.8125 
   5   0.0000       0.138167         3.7597 
   6   0.0000       0.217450         5.9171 
   7   0.0000       0.217531         5.9193 
   8   0.0000       0.803907        21.8754 
   9   0.0000       0.804265        21.8852 
  10   0.0000       0.823855        22.4182 
  11   0.0000       0.930565        25.3220 
  12   0.0000       0.949492        25.8370 
  13   0.0000       0.949631        25.8408 
  14   0.0000       1.362467        37.0746 
  15   0.0000       1.794334        48.8263 
  16   0.0000       1.794875        48.8410 
  17   0.0000       1.941036        52.8183 
  18   0.0000       2.328383        63.3585 
  19   0.0000       2.328948        63.3739 

                    ********************************
                    * MULLIKEN POPULATION ANALYSIS *
                    ********************************

-----------------------
MULLIKEN ATOMIC CHARGES
-----------------------
   0 N :   -0.851187
   1 H :    0.283200
   2 H :    0.284237
   3 H :    0.283750
Sum of atomic charges:   -0.0000000

--------------------------------
MULLIKEN REDUCED ORBITAL CHARGES
--------------------------------
  0 N s       :     3.815470  s :     3.815470
      pz      :     1.178579  p :     4.006086
      px      :     1.223894
      py      :     1.603613
      dz2     :     0.004130  d :     0.029631
      dxz     :     0.000500
      dyz     :     0.012754
      dx2y2   :     0.008741
      dxy     :     0.003506
  1 H s       :     0.716800  s :     0.716800
  2 H s       :     0.715763  s :     0.715763
  3 H s       :     0.716250  s :     0.716250


                     *******************************
                     * LOEWDIN POPULATION ANALYSIS *
                     *******************************

----------------------
LOEWDIN ATOMIC CHARGES
----------------------
   0 N :   -0.656664
   1 H :    0.218662
   2 H :    0.219083
   3 H :    0.218918

-------------------------------
LOEWDIN REDUCED ORBITAL CHARGES
-------------------------------
  0 N s       :     3.512008  s :     3.512008
      pz      :     1.217662  p :     4.103078
      px      :     1.261051
      py      :     1.624365
      dz2     :     0.006962  d :     0.041578
      dxz     :     0.001948
      dyz     :     0.016789
      dx2y2   :     0.011888
      dxy     :     0.003991
  1 H s       :     0.781338  s :     0.781338
  2 H s       :     0.780917  s :     0.780917
  3 H s       :     0.781082  s :     0.781082


                      *****************************
                      * MAYER POPULATION ANALYSIS *
                      *****************************

  NA   - Mulliken gross atomic population
  ZA   - Total nuclear charge
  QA   - Mulliken gross atomic charge
  VA   - Mayer's total valence
  BVA  - Mayer's bonded valence
  FA   - Mayer's free valence

  ATOM       NA         ZA         QA         VA         BVA        FA
  0 N      7.8512     7.0000    -0.8512     2.6524     2.6524    -0.0000
  1 H      0.7168     1.0000     0.2832     0.8826     0.8826     0.0000
  2 H      0.7158     1.0000     0.2842     0.8819     0.8819    -0.0000
  3 H      0.7163     1.0000     0.2837     0.8822     0.8822     0.0000

  Mayer bond orders larger than 0.1
B(  0-N ,  1-H ) :   0.8845 B(  0-N ,  2-H ) :   0.8838 B(  0-N ,  3-H ) :   0.8842 


-------
TIMINGS
-------

Total SCF time: 0 days 0 hours 0 min 3 sec 

Total time                  ....       3.015 sec
Sum of individual times     ....       2.907 sec  ( 96.4%)

Fock matrix formation       ....       2.652 sec  ( 88.0%)
  XC integration            ....       0.540 sec  ( 20.4% of F)
    Basis function eval.    ....       0.163 sec  ( 30.2% of XC)
    Density eval.           ....       0.022 sec  (  4.2% of XC)
    XC-Functional eval.     ....       0.166 sec  ( 30.8% of XC)
    XC-Potential eval.      ....       0.014 sec  (  2.5% of XC)
Diagonalization             ....       0.005 sec  (  0.2%)
Density matrix formation    ....       0.000 sec  (  0.0%)
Population analysis         ....       0.008 sec  (  0.3%)
Initial guess               ....       0.113 sec  (  3.8%)
Orbital Transformation      ....       0.000 sec  (  0.0%)
Orbital Orthonormalization  ....       0.000 sec  (  0.0%)
DIIS solution               ....       0.000 sec  (  0.0%)
Grid generation             ....       0.128 sec  (  4.2%)


-------------------------------------------------------------------------------
                          DFT DISPERSION CORRECTION                            
                                                                               
                              DFTD3 V3.1  Rev 1                                
                              USING zero damping                               
-------------------------------------------------------------------------------
The omegaB97X-D3 functional is recognized. Fit by Chai et al.
Active option DFTDOPT                   ...         3   

molecular C6(AA) [au] = 85.258007 


            DFT-D V3
 parameters
 s6 scaling factor         :     1.0000 
 rs6 scaling factor        :     1.2810 
 s8 scaling factor         :     1.0000 
 rs8 scaling factor        :     1.0940 
 Damping factor alpha6     :    14.0000 
 Damping factor alpha8     :    16.0000 
 ad hoc parameters k1-k3   :    16.0000     1.3333    -4.0000 

 Edisp/kcal,au: -0.008327576411  -0.000013270836 
 E6   /kcal   :  -0.001297456 
 E8   /kcal   :  -0.007030121 
 % E8         :  84.419766503 

-------------------------   ----------------
Dispersion correction           -0.000013271
-------------------------   ----------------


-------------------------   --------------------
FINAL SINGLE POINT ENERGY       -56.498283298929
-------------------------   --------------------


                            ***************************************
                            *     ORCA property calculations      *
                            ***************************************

                                    ---------------------
                                    Active property flags
                                    ---------------------
   (+) Dipole Moment


------------------------------------------------------------------------------
                       ORCA ELECTRIC PROPERTIES CALCULATION
------------------------------------------------------------------------------

Dipole Moment Calculation                       ... on
Quadrupole Moment Calculation                   ... off
Polarizability Calculation                      ... off
GBWName                                         ... Scan_8.gbw
Electron density file                           ... Scan_8.scfp.tmp

-------------
DIPOLE MOMENT
-------------
                                X             Y             Z
Electronic contribution:     -0.11561      -0.32323       0.04928
Nuclear contribution   :      0.38533       1.07743      -0.16427
                        -----------------------------------------
Total Dipole Moment    :      0.26971       0.75420      -0.11500
                        -----------------------------------------
Magnitude (a.u.)       :      0.80919
Magnitude (Debye)      :      2.05681


Timings for individual modules:

Sum of individual times         ...        3.337 sec (=   0.056 min)
GTO integral calculation        ...        0.301 sec (=   0.005 min)   9.0 %
SCF iterations                  ...        3.036 sec (=   0.051 min)  91.0 %
                             ****ORCA TERMINATED NORMALLY****
TOTAL RUN TIME: 0 days 0 hours 0 minutes 3 seconds 652 msec
