2
Point_1/orca1.out	Energy:    -109.4445456
N         -2.83685        2.07161        0.00000
N         -1.84309        2.05783       -0.00000
