2
Point_10/orca10.out	Energy:    -109.4648917
N         -2.94133        2.07305        0.00000
N         -1.73861        2.05639        0.00000
