2
Point_11/orca11.out	Energy:    -109.4404871
N         -2.96644        2.07340        0.00000
N         -1.71350        2.05604        0.00000
