2
Point_12/orca12.out	Energy:    -109.4012569
N         -2.99993        2.07387        0.00000
N         -1.68001        2.05557        0.00000
