2
Point_13/orca13.out	Energy:    -109.3377509
N         -3.04862        2.07454        0.00000
N         -1.63132        2.05490        0.00000
