2
Point_14/orca14.out	Energy:    -109.2379281
N         -3.12413        2.07559        0.00000
N         -1.55581        2.05385        0.00000
