2
Point_15/orca15.out	Energy:    -109.1311569
N         -3.21318        2.07682       -0.00000
N         -1.46676        2.05262        0.00000
