2
Point_16/orca16.out	Energy:    -109.0526217
N         -3.28962        2.07788       -0.00000
N         -1.39032        2.05156        0.00000
