2
Point_17/orca17.out	Energy:    -108.9938827
N         -3.35622        2.07880       -0.00000
N         -1.32372        2.05064        0.00000
