2
Point_18/orca18.out	Energy:    -108.9461915
N         -3.41865        2.07967       -0.00000
N         -1.26129        2.04977       -0.00000
