2
Point_19/orca19.out	Energy:    -108.9054088
N         -3.47968        2.08051       -0.00000
N         -1.20026        2.04893       -0.00000
