2
Point_2/orca2.out	Energy:    -109.4565293
N         -2.84381        2.07170        0.00000
N         -1.83613        2.05774       -0.00000
