2
Point_20/orca20.out	Energy:    -108.8704020
N         -3.53942        2.08134       -0.00000
N         -1.14052        2.04810       -0.00000
