2
Point_21/orca21.out	Energy:    -108.8403352
N         -3.59761        2.08215       -0.00000
N         -1.08233        2.04729        0.00000
