2
Point_22/orca22.out	Energy:    -108.8143583
N         -3.65404        2.08293        0.00000
N         -1.02590        2.04651        0.00000
