2
Point_23/orca23.out	Energy:    -108.7917667
N         -3.70886        2.08369        0.00000
N         -0.97108        2.04575        0.00000
