2
Point_24/orca24.out	Energy:    -108.7719181
N         -3.76239        2.08443       -0.00000
N         -0.91755        2.04501       -0.00000
