2
Point_25/orca25.out	Energy:    -108.7542614
N         -3.81499        2.08516       -0.00000
N         -0.86495        2.04428       -0.00000
