2
Point_26/orca26.out	Energy:    -108.7383876
N         -3.86699        2.08588       -0.00000
N         -0.81295        2.04356       -0.00000
