2
Point_27/orca27.out	Energy:    -108.7240208
N         -3.91862        2.08660       -0.00000
N         -0.76132        2.04284       -0.00000
