2
Point_28/orca28.out	Energy:    -108.7109395
N         -3.97005        2.08731       -0.00000
N         -0.70989        2.04213       -0.00000
