2
Point_29/orca29.out	Energy:    -108.6990017
N         -4.02136        2.08802       -0.00000
N         -0.65858        2.04142       -0.00000
