2
Point_3/orca3.out	Energy:    -109.4671474
N         -2.85141        2.07181        0.00000
N         -1.82853        2.05763       -0.00000
