2
Point_30/orca30.out	Energy:    -108.6880967
N         -4.07259        2.08873       -0.00000
N         -0.60735        2.04071       -0.00000
