2
Point_31/orca31.out	Energy:    -108.6781102
N         -4.12378        2.08944       -0.00000
N         -0.55616        2.04000       -0.00000
