2
Point_32/orca32.out	Energy:    -108.6689507
N         -4.17494        2.09015       -0.00000
N         -0.50500        2.03929       -0.00000
