2
Point_33/orca33.out	Energy:    -108.6605522
N         -4.22609        2.09086       -0.00000
N         -0.45385        2.03858       -0.00000
