2
Point_34/orca34.out	Energy:    -108.6528358
N         -4.27723        2.09157       -0.00000
N         -0.40271        2.03787       -0.00000
