2
Point_35/orca35.out	Energy:    -108.6457367
N         -4.32837        2.09228       -0.00000
N         -0.35157        2.03716       -0.00000
