2
Point_36/orca36.out	Energy:    -108.6391946
N         -4.37950        2.09299       -0.00000
N         -0.30044        2.03646       -0.00000
