2
Point_37/orca37.out	Energy:    -108.6331400
N         -4.43064        2.09369       -0.00000
N         -0.24930        2.03575       -0.00000
