2
Point_38/orca38.out	Energy:    -108.6275230
N         -4.48177        2.09440       -0.00000
N         -0.19817        2.03504       -0.00000
