2
Point_39/orca39.out	Energy:    -108.6223048
N         -4.53291        2.09511       -0.00000
N         -0.14703        2.03433       -0.00000
