2
Point_4/orca4.out	Energy:    -109.4761232
N         -2.85978        2.07192        0.00000
N         -1.82016        2.05752       -0.00000
