2
Point_40/orca40.out	Energy:    -108.6174472
N         -4.58404        2.09582       -0.00000
N         -0.09590        2.03362       -0.00000
