2
Point_41/orca41.out	Energy:    -108.6129090
N         -4.63518        2.09653        0.00000
N         -0.04476        2.03291       -0.00000
