2
Point_42/orca42.out	Energy:    -108.6086532
N         -4.68631        2.09724       -0.00000
N          0.00637        2.03220       -0.00000
