2
Point_43/orca43.out	Energy:    -108.6046531
N         -4.73745        2.09795       -0.00000
N          0.05751        2.03150        0.00000
