2
Point_44/orca44.out	Energy:    -108.6008847
N         -4.78858        2.09865        0.00000
N          0.10864        2.03079        0.00000
