2
Point_45/orca45.out	Energy:    -108.5973257
N         -4.83971        2.09936        0.00000
N          0.15977        2.03008        0.00000
