2
Point_5/orca5.out	Energy:    -109.4831203
N         -2.86908        2.07205        0.00000
N         -1.81086        2.05739       -0.00000
