2
Point_6/orca6.out	Energy:    -109.4876853
N         -2.87952        2.07220        0.00000
N         -1.80042        2.05724       -0.00000
