2
Point_7/orca7.out	Energy:    -109.4892076
N         -2.89132        2.07236        0.00000
N         -1.78862        2.05708       -0.00000
