2
Point_8/orca8.out	Energy:    -109.4868531
N         -2.90515        2.07255       -0.00000
N         -1.77479        2.05689       -0.00000
