2
Point_9/orca9.out	Energy:    -109.4793231
N         -2.92155        2.07278       -0.00000
N         -1.75839        2.05666       -0.00000
