
                                 *****************
                                 * O   R   C   A *
                                 *****************

           --- An Ab Initio, DFT and Semiempirical electronic structure package ---

                  #######################################################
                  #                        -***-                        #
                  #  Department of molecular theory and spectroscopy    #
                  #              Directorship: Frank Neese              #
                  # Max Planck Institute for Chemical Energy Conversion #
                  #                  D-45470 Muelheim/Ruhr              #
                  #                       Germany                       #
                  #                                                     #
                  #                  All rights reserved                #
                  #                        -***-                        #
                  #######################################################


                         Program Version 4.0.0.2 - RELEASE -


 With contributions from (in alphabetic order):
   Daniel Aravena         : Magnetic Properties
   Michael Atanasov       : Ab Initio Ligand Field Theory
   Ute Becker             : Parallelization
   Martin Brehm           : Molecular dynamics
   Dmytro Bykov           : SCF Hessian
   Vijay G. Chilkuri      : MRCI spin determinant printing
   Dipayan Datta          : RHF DLPNO-CCSD density
   Achintya Kumar Dutta   : EOM-CC, STEOM-CC
   Dmitry Ganyushin       : Spin-Orbit,Spin-Spin,Magnetic field MRCI
   Yang Guo               : DLPNO-NEVPT2, CIM, IAO-localization
   Andreas Hansen         : Spin unrestricted coupled pair/coupled cluster methods
   Lee Huntington         : MR-EOM, pCC
   Robert Izsak           : Overlap fitted RIJCOSX, COSX-SCS-MP3, EOM
   Christian Kollmar      : KDIIS, OOCD, Brueckner-CCSD(T), CCSD density
   Simone Kossmann        : Meta GGA functionals, TD-DFT gradient, OOMP2, MP2 Hessian
   Martin Krupicka        : AUTO-CI
   Dagmar Lenk            : GEPOL surface
   Dimitrios Liakos       : Extrapolation schemes; parallel MDCI
   Dimitrios Manganas     : ROCIS; embedding schemes
   Dimitrios Pantazis     : SARC Basis sets
   Taras Petrenko         : DFT Hessian,TD-DFT gradient, ASA, ECA, R-Raman, ABS, FL, XAS/XES, NRVS
   Peter Pinski           : DLPNO-MP2
   Christoph Reimann      : Effective Core Potentials
   Marius Retegan         : Local ZFS, SOC
   Christoph Riplinger    : Optimizer, TS searches, QM/MM, DLPNO-CCSD(T), (RO)-DLPNO pert. Triples
   Tobias Risthaus        : Range-separated hybrids, TD-DFT gradient, RPA, STAB
   Michael Roemelt        : Restricted open shell CIS
   Masaaki Saitow         : Open-shell DLPNO
   Barbara Sandhoefer     : DKH picture change effects
   Kantharuban Sivalingam : CASSCF convergence, NEVPT2, FIC-MRCI
   Georgi Stoychev        : AutoAux
   Boris Wezisla          : Elementary symmetry handling
   Frank Wennmohs         : Technical directorship


 We gratefully acknowledge several colleagues who have allowed us to
 interface, adapt or use parts of their codes:
   Stefan Grimme, W. Hujo, H. Kruse,             : VdW corrections, initial TS optimization,
                  C. Bannwarth                     DFT functionals, gCP, sTDA/sTD-DF
   Ed Valeev                                     : LibInt (2-el integral package), F12 methods
   Garnet Chan, S. Sharma, J. Yang, R. Olivares  : DMRG
   Ulf Ekstrom                                   : XCFun DFT Library
   Mihaly Kallay                                 : mrcc  (arbitrary order and MRCC methods)
   Jiri Pittner, Ondrej Demel                    : Mk-CCSD
   Frank Weinhold                                : gennbo (NPA and NBO analysis)
   Christopher J. Cramer and Donald G. Truhlar   : smd solvation model


 Your calculation uses the libint2 library for the computation of 2-el integrals
 For citations please refer to: http://libint.valeyev.net

 This ORCA versions uses:
   CBLAS   interface :  Fast vector & matrix operations
   LAPACKE interface :  Fast linear algebra routines
   SCALAPACK package :  Parallel linear algebra routines


Your calculation utilizes the atom-pairwise dispersion correction
with the zero-damping scheme (D30)
Cite in your paper:
S.Grimme, J.Antony, S.Ehrlich and H.Krieg, J.Chem.Phys., 132, (2010), 154104 
   

XCFun DFT library Copyright 2009-2010 Ulf Ekstrom and contributors.
See http://admol.org/xcfun for more information. This is free soft-
ware; see the source code for copying conditions. There is ABSOLUTELY
NO WARRANTY; not even for MERCHANTABILITY or FITNESS FOR A PARTICULAR
PURPOSE. For details see the documentation. Scientific users of this 
library should cite U. Ekstrom, L. Visscher, R. Bast, A. J. Thorvald-
sen and K. Ruud; J.Chem.Theor.Comp. 2010, DOI: 10.1021/ct100117s
XCFun Version 0.99 
Your calculation utilizes the basis: 6-31G(d)
   H-He, Li-Ne : W. J. Hehre, R. Ditchfield and J.A. Pople, J. Chem. Phys. 56, 2257 (1972).
                 Note: He and Ne are unpublished basis sets taken from the Gaussian program.
                 Note: Li and B from J. D. Dill and J. A. Pople, J. Chem. Phys. 62, 2921 (1975).
   Na - Ar     : M. M. Francl, W. J. Pietro, W. J. Hehre, J. S. Binkley, M. S. Gordon, 
                 D. J. DeFrees and J. A. Pople, J. Chem. Phys. 77, 3654 (1982).
   K - Zn      : V. A. Rassolov, J. A. Pople, M. A. Ratner, and T. L. Windus, J. Chem. Phys. 109, 1223 (1998).

================================================================================
                                        WARNINGS
                       Please study these warnings very carefully!
================================================================================

Warning: TCutStore was < 0. Adjusted to Thresh (uncritical)

INFO   : the flag for use of LIBINT has been found!

================================================================================
                                       INPUT FILE
================================================================================
NAME = initial1.inp
|  1> ! WB97X-D3 6-31G(d) VerySlowConv
|  2> ! KDIIS NOSOSCF
|  3> %base "Scan_1"
|  4> 
|  5> %scf
|  6> maxiter 999
|  7> end
|  8> 
|  9> * xyz 0 1
| 10> C         -1.564493860276    1.272575119741   -0.000201064644
| 11> C         -0.473264788313    1.278342473669   -0.000239139275
| 12> H         -2.198933131975    0.589118849512   -0.577877179175
| 13> H         -2.206137526788    1.948729246219    0.578091742699
| 14> H          0.168381850685    0.601627040190   -0.577871674561
| 15> H          0.161177456667    1.961237270668    0.578097314956
| 16> **                         ****END OF INPUT****
================================================================================

                       ****************************
                       * Single Point Calculation *
                       ****************************

---------------------------------
CARTESIAN COORDINATES (ANGSTROEM)
---------------------------------
  C     -1.564494    1.272575   -0.000201
  C     -0.473265    1.278342   -0.000239
  H     -2.198933    0.589119   -0.577877
  H     -2.206138    1.948729    0.578092
  H      0.168382    0.601627   -0.577872
  H      0.161177    1.961237    0.578097

----------------------------
CARTESIAN COORDINATES (A.U.)
----------------------------
  NO LB      ZA    FRAG     MASS         X           Y           Z
   0 C     6.0000    0    12.011   -2.956465    2.404818   -0.000380
   1 C     6.0000    0    12.011   -0.894341    2.415717   -0.000452
   2 H     1.0000    0     1.008   -4.155381    1.113273   -1.092030
   3 H     1.0000    0     1.008   -4.168996    3.682565    1.092435
   4 H     1.0000    0     1.008    0.318196    1.136910   -1.092019
   5 H     1.0000    0     1.008    0.304581    3.706201    1.092446

--------------------------------
INTERNAL COORDINATES (ANGSTROEM)
--------------------------------
 C      0   0   0     0.000000000000     0.00000000     0.00000000
 C      1   0   0     1.091244313304     0.00000000     0.00000000
 H      1   2   0     1.096966433438   125.56487284     0.00000000
 H      1   2   3     1.096956502580   125.56902749   179.94881001
 H      2   1   3     1.096956486405   125.56902700     0.00000000
 H      2   1   3     1.096966417114   125.56487235   180.05565496

---------------------------
INTERNAL COORDINATES (A.U.)
---------------------------
 C      0   0   0     0.000000000000     0.00000000     0.00000000
 C      1   0   0     2.062152897343     0.00000000     0.00000000
 H      1   2   0     2.072966137302   125.56487284     0.00000000
 H      1   2   3     2.072947370701   125.56902749   179.94881001
 H      2   1   3     2.072947340135   125.56902700     0.00000000
 H      2   1   3     2.072966106454   125.56487235   180.05565496

---------------------
BASIS SET INFORMATION
---------------------
There are 2 groups of distinct atoms

 Group   1 Type C   : 10s4p1d contracted to 3s2p1d pattern {631/31/1}
 Group   2 Type H   : 4s contracted to 2s pattern {31}

Atom   0C    basis set group =>   1
Atom   1C    basis set group =>   1
Atom   2H    basis set group =>   2
Atom   3H    basis set group =>   2
Atom   4H    basis set group =>   2
Atom   5H    basis set group =>   2
------------------------------------------------------------------------------
                           ORCA GTO INTEGRAL CALCULATION
------------------------------------------------------------------------------

                         BASIS SET STATISTICS AND STARTUP INFO

 # of primitive gaussian shells          ...   46
 # of primitive gaussian functions       ...   70
 # of contracted shells                  ...   20
 # of contracted basis functions         ...   36
 Highest angular momentum                ...    2
 Maximum contraction depth               ...    6
 Integral package used                   ... LIBINT
 Integral threshhold            Thresh   ...  1.000e-10
 Primitive cut-off              TCut     ...  1.000e-11


------------------------------ INTEGRAL EVALUATION ----------------------------


 * One electron integrals 
 Pre-screening matrix                    ... done
 Shell pair data                         ... done (   0.000 sec)

-------------------------------------------------------------------------------
                                 ORCA SCF
-------------------------------------------------------------------------------

------------
SCF SETTINGS
------------
Hamiltonian:
 Density Functional     Method          .... DFT(GTOs)
 Exchange Functional    Exchange        .... WB97X-D3
 Correlation Functional Correlation     .... WB97X-D3
 Gradients option       PostSCFGGA      .... off
 Hybrid DFT is turned on
   Fraction HF Exchange ScalHFX         ....  0.195728
   Scaling of DF-GGA-X  ScalDFX         ....  0.000000
   Scaling of DF-GGA-C  ScalDFC         ....  1.000000
   Scaling of DF-LDA-C  ScalLDAC        ....  1.000000
   Perturbative correction              ....  0.000000
 Long-range corrected/Screened/Range-Separated Hybrid DFT is turned on
   Amount of maximum screened exact exchange              ....  0.804272
   Range separation parameter mu (erf(mu*r12)/r12)        ....  0.250000


General Settings:
 Integral files         IntName         .... Scan_1
 Hartree-Fock type      HFTyp           .... RHF
 Total Charge           Charge          ....    0
 Multiplicity           Mult            ....    1
 Number of Electrons    NEL             ....   16
 Basis Dimension        Dim             ....   36
 Nuclear Repulsion      ENuc            ....     36.9587872499 Eh

Convergence Acceleration:
 DIIS                   CNVDIIS         .... on
   Start iteration      DIISMaxIt       ....     0
   Startup error        DIISStart       ....  0.200000
   # of expansion vecs  DIISMaxEq       ....     5
   Bias factor          DIISBfac        ....   1.050
   Max. coefficient     DIISMaxC        ....  10.000
 Newton-Raphson         CNVNR           .... off
 SOSCF                  CNVSOSCF        .... off
 Level Shifting         CNVShift        .... off
 Zerner damping         CNVZerner       .... off
 Static damping         CNVDamp         .... off
 Fernandez-Rico         CNVRico         .... off

SCF Procedure:
 Maximum # iterations   MaxIter         ....   999
 SCF integral mode      SCFMode         .... Direct
   Integral package                     .... LIBINT
 Reset frequeny         DirectResetFreq ....    20
 Integral Threshold     Thresh          ....  1.000e-10 Eh
 Primitive CutOff       TCut            ....  1.000e-11 Eh

Convergence Tolerance:
 Convergence Check Mode ConvCheckMode   .... All-Criteria
 Convergence forced     ConvForced      .... 0
 Energy Change          TolE            ....  1.000e-06 Eh
 Max Density Change     TolMaxP         ....  1.000e-05
 RMS Density Change     TolRMSP         ....  1.000e-06
 DIIS Error             TolErr          ....  1.000e-06


Diagonalization of the overlap matrix:
Smallest eigenvalue                        ... 3.127e-03
Time for diagonalization                   ...    0.001 sec
Threshold for overlap eigenvalues          ... 1.000e-08
Number of eigenvalues below threshold      ... 0
Time for construction of square roots      ...    0.007 sec
Total time needed                          ...    0.008 sec

-------------------
DFT GRID GENERATION
-------------------

General Integration Accuracy     IntAcc      ...  4.340
Radial Grid Type                 RadialGrid  ... Gauss-Chebyshev
Angular Grid (max. acc.)         AngularGrid ... Lebedev-110
Angular grid pruning method      GridPruning ... 3 (G Style)
Weight generation scheme         WeightScheme... Becke
Basis function cutoff            BFCut       ...    1.0000e-10
Integration weight cutoff        WCut        ...    1.0000e-14
Grids for H and He will be reduced by one unit

# of grid points (after initial pruning)     ...   6488 (   0.0 sec)
# of grid points (after weights+screening)   ...   6232 (   0.0 sec)
nearest neighbour list constructed           ...    0.0 sec
Grid point re-assignment to atoms done       ...    0.0 sec
Grid point division into batches done        ...    0.0 sec
Reduced shell lists constructed in    0.0 sec

Total number of grid points                  ...     6232
Total number of batches                      ...       98
Average number of points per batch           ...       63
Average number of grid points per atom       ...     1039
Average number of shells per batch           ...    18.07 (90.35%)
Average number of basis functions per batch  ...    32.84 (91.22%)
Average number of large shells per batch     ...    16.61 (91.89%)
Average number of large basis fcns per batch ...    30.91 (94.12%)
Maximum spatial batch extension              ...  20.05, 20.89, 31.36 au
Average spatial batch extension              ...   4.86,  5.47,  6.08 au

Time for grid setup =    0.048 sec

------------------------------
INITIAL GUESS: MODEL POTENTIAL
------------------------------
Loading Hartree-Fock densities                     ... done
Calculating cut-offs                               ... done
Setting up the integral package                    ... done
Initializing the effective Hamiltonian             ... done
Starting the Coulomb interaction                   ... done (   0.0 sec)
Reading the grid                                   ... done
Mapping shells                                     ... done
Starting the XC term evaluation                    ... done (   0.0 sec)
  promolecular density results
     # of electrons  =     16.005572105
     EX              =    -11.446367879
     EC              =     -0.497405552
     EX+EC           =    -11.943773430
Transforming the Hamiltonian                       ... done (   0.0 sec)
Diagonalizing the Hamiltonian                      ... done (   0.0 sec)
Back transforming the eigenvectors                 ... done (   0.0 sec)
Now organizing SCF variables                       ... done
                      ------------------
                      INITIAL GUESS DONE (   0.2 sec)
                      ------------------
--------------
SCF ITERATIONS
--------------
ITER       Energy         Delta-E        Max-DP      RMS-DP      [F,P]   Gradient Norm
               ***  Starting incremental Fock matrix formation  ***
                             ****Resetting KDIIS****
                             ****Turning on KDIIS(Cayley)****
  0    -78.2963062654   0.000000000000 0.02898360  0.00256655  0.1504090   0.133134146
  1    -78.3473714983  -0.051065232926 0.02388000  0.00222989  0.1251674   0.108893466
  2    -78.3829741268  -0.035602628488 0.03770477  0.00363122  0.1029496   0.088778934
  3    -78.4253006732  -0.042326546367 0.05815041  0.00581732  0.0651782   0.055686124
  4    -78.4523696112  -0.027068938077 0.00342289  0.00034012  0.0037731   0.002660282
  5    -78.4524368147  -0.000067203430 0.00255740  0.00027150  0.0007655   0.000675770
  6    -78.4524389456  -0.000002130908 0.00064850  0.00006637  0.0009167   0.000634290
  7    -78.4524431499  -0.000004204350 0.00012429  0.00001403  0.0001305   0.000097081
                          ***Energy convergence achieved***
  8    -78.4524432566  -0.000000106621 0.00001341  0.00000159  0.0000080   0.000004740
                           ***RMSP convergence achieved***
                           ***MAXP convergence achieved***
                    *** KDIIS BlockDiag ( 0.000 sec) ***

               *****************************************************
               *                     SUCCESS                       *
               *           SCF CONVERGED AFTER   9 CYCLES          *
               *****************************************************

Setting up the final grid:

General Integration Accuracy     IntAcc      ...  4.670
Radial Grid Type                 RadialGrid  ... Gauss-Chebyshev
Angular Grid (max. acc.)         AngularGrid ... Lebedev-302
Angular grid pruning method      GridPruning ... 3 (G Style)
Weight generation scheme         WeightScheme... Becke
Basis function cutoff            BFCut       ...    1.0000e-10
Integration weight cutoff        WCut        ...    1.0000e-14
Grids for H and He will be reduced by one unit

# of grid points (after initial pruning)     ...  26000 (   0.0 sec)
# of grid points (after weights+screening)   ...  25114 (   0.0 sec)
nearest neighbour list constructed           ...    0.0 sec
Grid point re-assignment to atoms done       ...    0.0 sec
Grid point division into batches done        ...    0.1 sec
Reduced shell lists constructed in    0.2 sec

Total number of grid points                  ...    25114
Total number of batches                      ...      394
Average number of points per batch           ...       63
Average number of grid points per atom       ...     4186
Average number of shells per batch           ...    16.43 (82.16%)
Average number of basis functions per batch  ...    30.03 (83.41%)
Average number of large shells per batch     ...    14.90 (90.66%)
Average number of large basis fcns per batch ...    27.72 (92.31%)
Maximum spatial batch extension              ...  18.37, 19.43, 20.64 au
Average spatial batch extension              ...   3.03,  3.29,  3.26 au

Final grid set up in    0.2 sec
Final integration                            ... done (   0.3 sec)
Change in XC energy                          ...     0.001343663
Integrated number of electrons               ...    16.000007669
Previous integrated no of electrons          ...    16.003502018

----------------
TOTAL SCF ENERGY
----------------

Total Energy       :          -78.45109959 Eh           -2134.76295 eV

Components:
Nuclear Repulsion  :           36.95878725 Eh            1005.69973 eV
Electronic Energy  :         -115.40988684 Eh           -3140.46268 eV
One Electron Energy:         -177.17855787 Eh           -4821.27367 eV
Two Electron Energy:           61.76867103 Eh            1680.81099 eV

Virial components:
Potential Energy   :         -157.54456826 Eh           -4287.00565 eV
Kinetic Energy     :           79.09346867 Eh            2152.24270 eV
Virial Ratio       :            1.99187836


DFT components:
N(Alpha)           :        8.000003834430 electrons
N(Beta)            :        8.000003834430 electrons
N(Total)           :       16.000007668861 electrons
E(XC)              :       -8.425870352451 Eh       

---------------
SCF CONVERGENCE
---------------

  Last Energy change         ...   -8.0091e-10  Tolerance :   1.0000e-06
  Last MAX-Density change    ...    1.8862e-06  Tolerance :   1.0000e-05
  Last RMS-Density change    ...    2.7259e-07  Tolerance :   1.0000e-06
  Last DIIS Error            ...    5.6686e-07  Tolerance :   1.0000e-06

             **** THE GBW FILE WAS UPDATED (Scan_1.gbw) ****
             **** DENSITY FILE WAS UPDATED (Scan_1.scfp.tmp) ****
             **** ENERGY FILE WAS UPDATED (Scan_1.en.tmp) ****
----------------
ORBITAL ENERGIES
----------------

  NO   OCC          E(Eh)            E(eV) 
   0   2.0000     -10.247841      -278.8579 
   1   2.0000     -10.241728      -278.6916 
   2   2.0000      -0.922456       -25.1013 
   3   2.0000      -0.664654       -18.0861 
   4   2.0000      -0.584999       -15.9186 
   5   2.0000      -0.546225       -14.8635 
   6   2.0000      -0.412105       -11.2140 
   7   2.0000      -0.397729       -10.8228 
   8   0.0000       0.168450         4.5838 
   9   0.0000       0.205499         5.5919 
  10   0.0000       0.223926         6.0933 
  11   0.0000       0.262235         7.1358 
  12   0.0000       0.371325        10.1043 
  13   0.0000       0.481505        13.1024 
  14   0.0000       0.515463        14.0265 
  15   0.0000       0.600823        16.3492 
  16   0.0000       0.703860        19.1530 
  17   0.0000       0.777779        21.1644 
  18   0.0000       0.789627        21.4868 
  19   0.0000       0.884087        24.0572 
  20   0.0000       0.961183        26.1551 
  21   0.0000       1.025713        27.9111 
  22   0.0000       1.066796        29.0290 
  23   0.0000       1.088178        29.6108 
  24   0.0000       1.365210        37.1493 
  25   0.0000       1.425327        38.7851 
  26   0.0000       1.562776        42.5253 
  27   0.0000       1.700929        46.2846 
  28   0.0000       1.878810        51.1250 
  29   0.0000       2.048419        55.7403 
  30   0.0000       2.226968        60.5989 
  31   0.0000       2.368085        64.4389 
  32   0.0000       2.497281        67.9545 
  33   0.0000       2.738467        74.5175 
  34   0.0000       3.089926        84.0812 
  35   0.0000       3.424949        93.1976 

                    ********************************
                    * MULLIKEN POPULATION ANALYSIS *
                    ********************************

-----------------------
MULLIKEN ATOMIC CHARGES
-----------------------
   0 C :   -0.305896
   1 C :   -0.305896
   2 H :    0.152932
   3 H :    0.152964
   4 H :    0.152962
   5 H :    0.152934
Sum of atomic charges:   -0.0000000

--------------------------------
MULLIKEN REDUCED ORBITAL CHARGES
--------------------------------
  0 C s       :     3.174911  s :     3.174911
      pz      :     1.015021  p :     3.086910
      px      :     1.047654
      py      :     1.024235
      dz2     :     0.001582  d :     0.044075
      dxz     :     0.015606
      dyz     :     0.004113
      dx2y2   :     0.005060
      dxy     :     0.017715
  1 C s       :     3.174911  s :     3.174911
      pz      :     1.015021  p :     3.086910
      px      :     1.047654
      py      :     1.024235
      dz2     :     0.001582  d :     0.044075
      dxz     :     0.015606
      dyz     :     0.004113
      dx2y2   :     0.005059
      dxy     :     0.017715
  2 H s       :     0.847068  s :     0.847068
  3 H s       :     0.847036  s :     0.847036
  4 H s       :     0.847038  s :     0.847038
  5 H s       :     0.847066  s :     0.847066


                     *******************************
                     * LOEWDIN POPULATION ANALYSIS *
                     *******************************

----------------------
LOEWDIN ATOMIC CHARGES
----------------------
   0 C :   -0.257313
   1 C :   -0.257313
   2 H :    0.128654
   3 H :    0.128659
   4 H :    0.128660
   5 H :    0.128653

-------------------------------
LOEWDIN REDUCED ORBITAL CHARGES
-------------------------------
  0 C s       :     2.911204  s :     2.911204
      pz      :     1.018741  p :     3.234085
      px      :     1.182277
      py      :     1.033067
      dz2     :     0.006274  d :     0.112024
      dxz     :     0.036785
      dyz     :     0.005785
      dx2y2   :     0.019823
      dxy     :     0.043357
  1 C s       :     2.911204  s :     2.911204
      pz      :     1.018741  p :     3.234085
      px      :     1.182277
      py      :     1.033067
      dz2     :     0.006274  d :     0.112024
      dxz     :     0.036785
      dyz     :     0.005785
      dx2y2   :     0.019823
      dxy     :     0.043357
  2 H s       :     0.871346  s :     0.871346
  3 H s       :     0.871341  s :     0.871341
  4 H s       :     0.871340  s :     0.871340
  5 H s       :     0.871347  s :     0.871347


                      *****************************
                      * MAYER POPULATION ANALYSIS *
                      *****************************

  NA   - Mulliken gross atomic population
  ZA   - Total nuclear charge
  QA   - Mulliken gross atomic charge
  VA   - Mayer's total valence
  BVA  - Mayer's bonded valence
  FA   - Mayer's free valence

  ATOM       NA         ZA         QA         VA         BVA        FA
  0 C      6.3059     6.0000    -0.3059     3.9485     3.9485    -0.0000
  1 C      6.3059     6.0000    -0.3059     3.9485     3.9485    -0.0000
  2 H      0.8471     1.0000     0.1529     0.9368     0.9368     0.0000
  3 H      0.8470     1.0000     0.1530     0.9368     0.9368    -0.0000
  4 H      0.8470     1.0000     0.1530     0.9368     0.9368    -0.0000
  5 H      0.8471     1.0000     0.1529     0.9368     0.9368     0.0000

  Mayer bond orders larger than 0.1
B(  0-C ,  1-C ) :   2.0975 B(  0-C ,  2-H ) :   0.9355 B(  0-C ,  3-H ) :   0.9355 
B(  1-C ,  4-H ) :   0.9355 B(  1-C ,  5-H ) :   0.9355 

-------
TIMINGS
-------

Total SCF time: 0 days 0 hours 0 min 4 sec 

Total time                  ....       4.659 sec
Sum of individual times     ....       4.516 sec  ( 96.9%)

Fock matrix formation       ....       4.033 sec  ( 86.6%)
  XC integration            ....       1.035 sec  ( 25.7% of F)
    Basis function eval.    ....       0.411 sec  ( 39.7% of XC)
    Density eval.           ....       0.050 sec  (  4.8% of XC)
    XC-Functional eval.     ....       0.264 sec  ( 25.5% of XC)
    XC-Potential eval.      ....       0.057 sec  (  5.5% of XC)
Diagonalization             ....       0.018 sec  (  0.4%)
Density matrix formation    ....       0.000 sec  (  0.0%)
Population analysis         ....       0.017 sec  (  0.4%)
Initial guess               ....       0.164 sec  (  3.5%)
Orbital Transformation      ....       0.000 sec  (  0.0%)
Orbital Orthonormalization  ....       0.000 sec  (  0.0%)
DIIS solution               ....       0.000 sec  (  0.0%)
Grid generation             ....       0.283 sec  (  6.1%)


-------------------------------------------------------------------------------
                          DFT DISPERSION CORRECTION                            
                                                                               
                              DFTD3 V3.1  Rev 1                                
                              USING zero damping                               
-------------------------------------------------------------------------------
The omegaB97X-D3 functional is recognized. Fit by Chai et al.
Active option DFTDOPT                   ...         3   

molecular C6(AA) [au] = 294.199705 


            DFT-D V3
 parameters
 s6 scaling factor         :     1.0000 
 rs6 scaling factor        :     1.2810 
 s8 scaling factor         :     1.0000 
 rs8 scaling factor        :     1.0940 
 Damping factor alpha6     :    14.0000 
 Damping factor alpha8     :    16.0000 
 ad hoc parameters k1-k3   :    16.0000     1.3333    -4.0000 

 Edisp/kcal,au: -0.139669609494  -0.000222577667 
 E6   /kcal   :  -0.044914411 
 E8   /kcal   :  -0.094755198 
 % E8         :  67.842388026 

-------------------------   ----------------
Dispersion correction           -0.000222578
-------------------------   ----------------


-------------------------   --------------------
FINAL SINGLE POINT ENERGY       -78.451322171682
-------------------------   --------------------


                            ***************************************
                            *     ORCA property calculations      *
                            ***************************************

                                    ---------------------
                                    Active property flags
                                    ---------------------
   (+) Dipole Moment


------------------------------------------------------------------------------
                       ORCA ELECTRIC PROPERTIES CALCULATION
------------------------------------------------------------------------------

Dipole Moment Calculation                       ... on
Quadrupole Moment Calculation                   ... off
Polarizability Calculation                      ... off
GBWName                                         ... Scan_1.gbw
Electron density file                           ... Scan_1.scfp.tmp

-------------
DIPOLE MOMENT
-------------
                                X             Y             Z
Electronic contribution:     -0.00000       0.00062      -0.00074
Nuclear contribution   :      0.00000      -0.00090       0.00106
                        -----------------------------------------
Total Dipole Moment    :      0.00000      -0.00028       0.00032
                        -----------------------------------------
Magnitude (a.u.)       :      0.00042
Magnitude (Debye)      :      0.00108


Timings for individual modules:

Sum of individual times         ...        5.116 sec (=   0.085 min)
GTO integral calculation        ...        0.410 sec (=   0.007 min)   8.0 %
SCF iterations                  ...        4.707 sec (=   0.078 min)  92.0 %
                             ****ORCA TERMINATED NORMALLY****
TOTAL RUN TIME: 0 days 0 hours 0 minutes 5 seconds 493 msec
