
                                 *****************
                                 * O   R   C   A *
                                 *****************

           --- An Ab Initio, DFT and Semiempirical electronic structure package ---

                  #######################################################
                  #                        -***-                        #
                  #  Department of molecular theory and spectroscopy    #
                  #              Directorship: Frank Neese              #
                  # Max Planck Institute for Chemical Energy Conversion #
                  #                  D-45470 Muelheim/Ruhr              #
                  #                       Germany                       #
                  #                                                     #
                  #                  All rights reserved                #
                  #                        -***-                        #
                  #######################################################


                         Program Version 4.0.0.2 - RELEASE -


 With contributions from (in alphabetic order):
   Daniel Aravena         : Magnetic Properties
   Michael Atanasov       : Ab Initio Ligand Field Theory
   Ute Becker             : Parallelization
   Martin Brehm           : Molecular dynamics
   Dmytro Bykov           : SCF Hessian
   Vijay G. Chilkuri      : MRCI spin determinant printing
   Dipayan Datta          : RHF DLPNO-CCSD density
   Achintya Kumar Dutta   : EOM-CC, STEOM-CC
   Dmitry Ganyushin       : Spin-Orbit,Spin-Spin,Magnetic field MRCI
   Yang Guo               : DLPNO-NEVPT2, CIM, IAO-localization
   Andreas Hansen         : Spin unrestricted coupled pair/coupled cluster methods
   Lee Huntington         : MR-EOM, pCC
   Robert Izsak           : Overlap fitted RIJCOSX, COSX-SCS-MP3, EOM
   Christian Kollmar      : KDIIS, OOCD, Brueckner-CCSD(T), CCSD density
   Simone Kossmann        : Meta GGA functionals, TD-DFT gradient, OOMP2, MP2 Hessian
   Martin Krupicka        : AUTO-CI
   Dagmar Lenk            : GEPOL surface
   Dimitrios Liakos       : Extrapolation schemes; parallel MDCI
   Dimitrios Manganas     : ROCIS; embedding schemes
   Dimitrios Pantazis     : SARC Basis sets
   Taras Petrenko         : DFT Hessian,TD-DFT gradient, ASA, ECA, R-Raman, ABS, FL, XAS/XES, NRVS
   Peter Pinski           : DLPNO-MP2
   Christoph Reimann      : Effective Core Potentials
   Marius Retegan         : Local ZFS, SOC
   Christoph Riplinger    : Optimizer, TS searches, QM/MM, DLPNO-CCSD(T), (RO)-DLPNO pert. Triples
   Tobias Risthaus        : Range-separated hybrids, TD-DFT gradient, RPA, STAB
   Michael Roemelt        : Restricted open shell CIS
   Masaaki Saitow         : Open-shell DLPNO
   Barbara Sandhoefer     : DKH picture change effects
   Kantharuban Sivalingam : CASSCF convergence, NEVPT2, FIC-MRCI
   Georgi Stoychev        : AutoAux
   Boris Wezisla          : Elementary symmetry handling
   Frank Wennmohs         : Technical directorship


 We gratefully acknowledge several colleagues who have allowed us to
 interface, adapt or use parts of their codes:
   Stefan Grimme, W. Hujo, H. Kruse,             : VdW corrections, initial TS optimization,
                  C. Bannwarth                     DFT functionals, gCP, sTDA/sTD-DF
   Ed Valeev                                     : LibInt (2-el integral package), F12 methods
   Garnet Chan, S. Sharma, J. Yang, R. Olivares  : DMRG
   Ulf Ekstrom                                   : XCFun DFT Library
   Mihaly Kallay                                 : mrcc  (arbitrary order and MRCC methods)
   Jiri Pittner, Ondrej Demel                    : Mk-CCSD
   Frank Weinhold                                : gennbo (NPA and NBO analysis)
   Christopher J. Cramer and Donald G. Truhlar   : smd solvation model


 Your calculation uses the libint2 library for the computation of 2-el integrals
 For citations please refer to: http://libint.valeyev.net

 This ORCA versions uses:
   CBLAS   interface :  Fast vector & matrix operations
   LAPACKE interface :  Fast linear algebra routines
   SCALAPACK package :  Parallel linear algebra routines


Your calculation utilizes the atom-pairwise dispersion correction
with the zero-damping scheme (D30)
Cite in your paper:
S.Grimme, J.Antony, S.Ehrlich and H.Krieg, J.Chem.Phys., 132, (2010), 154104 
   

XCFun DFT library Copyright 2009-2010 Ulf Ekstrom and contributors.
See http://admol.org/xcfun for more information. This is free soft-
ware; see the source code for copying conditions. There is ABSOLUTELY
NO WARRANTY; not even for MERCHANTABILITY or FITNESS FOR A PARTICULAR
PURPOSE. For details see the documentation. Scientific users of this 
library should cite U. Ekstrom, L. Visscher, R. Bast, A. J. Thorvald-
sen and K. Ruud; J.Chem.Theor.Comp. 2010, DOI: 10.1021/ct100117s
XCFun Version 0.99 
Your calculation utilizes the basis: 6-31G(d)
   H-He, Li-Ne : W. J. Hehre, R. Ditchfield and J.A. Pople, J. Chem. Phys. 56, 2257 (1972).
                 Note: He and Ne are unpublished basis sets taken from the Gaussian program.
                 Note: Li and B from J. D. Dill and J. A. Pople, J. Chem. Phys. 62, 2921 (1975).
   Na - Ar     : M. M. Francl, W. J. Pietro, W. J. Hehre, J. S. Binkley, M. S. Gordon, 
                 D. J. DeFrees and J. A. Pople, J. Chem. Phys. 77, 3654 (1982).
   K - Zn      : V. A. Rassolov, J. A. Pople, M. A. Ratner, and T. L. Windus, J. Chem. Phys. 109, 1223 (1998).

================================================================================
                                        WARNINGS
                       Please study these warnings very carefully!
================================================================================

Warning: TCutStore was < 0. Adjusted to Thresh (uncritical)

INFO   : the flag for use of LIBINT has been found!

================================================================================
                                       INPUT FILE
================================================================================
NAME = initial11.inp
|  1> ! WB97X-D3 6-31G(d) VerySlowConv
|  2> ! KDIIS NOSOSCF
|  3> %base "Scan_11"
|  4> 
|  5> %scf
|  6> maxiter 999
|  7> end
|  8> 
|  9> * xyz 0 1
| 10> C         -1.729552349572    1.271588281993   -0.000085781137
| 11> C         -0.308203534384    1.278973691599    0.000063862034
| 12> H         -2.271426891495    0.564893707430   -0.598276815579
| 13> H         -2.278865915917    1.972314444816    0.598341494977
| 14> H          0.241108860945    0.578219018427   -0.598331005679
| 15> H          0.233669830423    1.985640855736    0.598288245385
| 16> **                         ****END OF INPUT****
================================================================================

                       ****************************
                       * Single Point Calculation *
                       ****************************

---------------------------------
CARTESIAN COORDINATES (ANGSTROEM)
---------------------------------
  C     -1.729552    1.271588   -0.000086
  C     -0.308204    1.278974    0.000064
  H     -2.271427    0.564894   -0.598277
  H     -2.278866    1.972314    0.598341
  H      0.241109    0.578219   -0.598331
  H      0.233670    1.985641    0.598288

----------------------------
CARTESIAN COORDINATES (A.U.)
----------------------------
  NO LB      ZA    FRAG     MASS         X           Y           Z
   0 C     6.0000    0    12.011   -3.268380    2.402954   -0.000162
   1 C     6.0000    0    12.011   -0.582420    2.416910    0.000121
   2 H     1.0000    0     1.008   -4.292375    1.067494   -1.130579
   3 H     1.0000    0     1.008   -4.306432    3.727134    1.130702
   4 H     1.0000    0     1.008    0.455630    1.092676   -1.130682
   5 H     1.0000    0     1.008    0.441572    3.752317    1.130601

--------------------------------
INTERNAL COORDINATES (ANGSTROEM)
--------------------------------
 C      0   0   0     0.000000000000     0.00000000     0.00000000
 C      1   0   0     1.421368010441     0.00000000     0.00000000
 H      1   2   0     1.072789706600   120.56946347     0.00000000
 H      1   2   3     1.072789706435   120.56946365   179.97141187
 H      2   1   3     1.072789651954   120.56938376     0.02591130
 H      2   1   3     1.072789651885   120.56938356   180.00267708

---------------------------
INTERNAL COORDINATES (A.U.)
---------------------------
 C      0   0   0     0.000000000000     0.00000000     0.00000000
 C      1   0   0     2.685996275250     0.00000000     0.00000000
 H      1   2   0     2.027278744765   120.56946347     0.00000000
 H      1   2   3     2.027278744452   120.56946365   179.97141187
 H      2   1   3     2.027278641498   120.56938376     0.02591130
 H      2   1   3     2.027278641368   120.56938356   180.00267708

---------------------
BASIS SET INFORMATION
---------------------
There are 2 groups of distinct atoms

 Group   1 Type C   : 10s4p1d contracted to 3s2p1d pattern {631/31/1}
 Group   2 Type H   : 4s contracted to 2s pattern {31}

Atom   0C    basis set group =>   1
Atom   1C    basis set group =>   1
Atom   2H    basis set group =>   2
Atom   3H    basis set group =>   2
Atom   4H    basis set group =>   2
Atom   5H    basis set group =>   2
------------------------------------------------------------------------------
                           ORCA GTO INTEGRAL CALCULATION
------------------------------------------------------------------------------

                         BASIS SET STATISTICS AND STARTUP INFO

 # of primitive gaussian shells          ...   46
 # of primitive gaussian functions       ...   70
 # of contracted shells                  ...   20
 # of contracted basis functions         ...   36
 Highest angular momentum                ...    2
 Maximum contraction depth               ...    6
 Integral package used                   ... LIBINT
 Integral threshhold            Thresh   ...  1.000e-10
 Primitive cut-off              TCut     ...  1.000e-11


------------------------------ INTEGRAL EVALUATION ----------------------------


 * One electron integrals 
 Pre-screening matrix                    ... done
 Shell pair data                         ... done (   0.000 sec)

-------------------------------------------------------------------------------
                                 ORCA SCF
-------------------------------------------------------------------------------

------------
SCF SETTINGS
------------
Hamiltonian:
 Density Functional     Method          .... DFT(GTOs)
 Exchange Functional    Exchange        .... WB97X-D3
 Correlation Functional Correlation     .... WB97X-D3
 Gradients option       PostSCFGGA      .... off
 Hybrid DFT is turned on
   Fraction HF Exchange ScalHFX         ....  0.195728
   Scaling of DF-GGA-X  ScalDFX         ....  0.000000
   Scaling of DF-GGA-C  ScalDFC         ....  1.000000
   Scaling of DF-LDA-C  ScalLDAC        ....  1.000000
   Perturbative correction              ....  0.000000
 Long-range corrected/Screened/Range-Separated Hybrid DFT is turned on
   Amount of maximum screened exact exchange              ....  0.804272
   Range separation parameter mu (erf(mu*r12)/r12)        ....  0.250000


General Settings:
 Integral files         IntName         .... Scan_11
 Hartree-Fock type      HFTyp           .... RHF
 Total Charge           Charge          ....    0
 Multiplicity           Mult            ....    1
 Number of Electrons    NEL             ....   16
 Basis Dimension        Dim             ....   36
 Nuclear Repulsion      ENuc            ....     32.4192895969 Eh

Convergence Acceleration:
 DIIS                   CNVDIIS         .... on
   Start iteration      DIISMaxIt       ....     0
   Startup error        DIISStart       ....  0.200000
   # of expansion vecs  DIISMaxEq       ....     5
   Bias factor          DIISBfac        ....   1.050
   Max. coefficient     DIISMaxC        ....  10.000
 Newton-Raphson         CNVNR           .... off
 SOSCF                  CNVSOSCF        .... off
 Level Shifting         CNVShift        .... off
 Zerner damping         CNVZerner       .... off
 Static damping         CNVDamp         .... off
 Fernandez-Rico         CNVRico         .... off

SCF Procedure:
 Maximum # iterations   MaxIter         ....   999
 SCF integral mode      SCFMode         .... Direct
   Integral package                     .... LIBINT
 Reset frequeny         DirectResetFreq ....    20
 Integral Threshold     Thresh          ....  1.000e-10 Eh
 Primitive CutOff       TCut            ....  1.000e-11 Eh

Convergence Tolerance:
 Convergence Check Mode ConvCheckMode   .... All-Criteria
 Convergence forced     ConvForced      .... 0
 Energy Change          TolE            ....  1.000e-06 Eh
 Max Density Change     TolMaxP         ....  1.000e-05
 RMS Density Change     TolRMSP         ....  1.000e-06
 DIIS Error             TolErr          ....  1.000e-06


Diagonalization of the overlap matrix:
Smallest eigenvalue                        ... 1.072e-02
Time for diagonalization                   ...    0.001 sec
Threshold for overlap eigenvalues          ... 1.000e-08
Number of eigenvalues below threshold      ... 0
Time for construction of square roots      ...    0.004 sec
Total time needed                          ...    0.005 sec

-------------------
DFT GRID GENERATION
-------------------

General Integration Accuracy     IntAcc      ...  4.340
Radial Grid Type                 RadialGrid  ... Gauss-Chebyshev
Angular Grid (max. acc.)         AngularGrid ... Lebedev-110
Angular grid pruning method      GridPruning ... 3 (G Style)
Weight generation scheme         WeightScheme... Becke
Basis function cutoff            BFCut       ...    1.0000e-10
Integration weight cutoff        WCut        ...    1.0000e-14
Grids for H and He will be reduced by one unit

# of grid points (after initial pruning)     ...   6488 (   0.0 sec)
# of grid points (after weights+screening)   ...   6252 (   0.0 sec)
nearest neighbour list constructed           ...    0.0 sec
Grid point re-assignment to atoms done       ...    0.0 sec
Grid point division into batches done        ...    0.0 sec
Reduced shell lists constructed in    0.0 sec

Total number of grid points                  ...     6252
Total number of batches                      ...      100
Average number of points per batch           ...       62
Average number of grid points per atom       ...     1042
Average number of shells per batch           ...    17.88 (89.41%)
Average number of basis functions per batch  ...    32.63 (90.65%)
Average number of large shells per batch     ...    16.30 (91.14%)
Average number of large basis fcns per batch ...    30.32 (92.90%)
Maximum spatial batch extension              ...  20.05, 20.53, 31.36 au
Average spatial batch extension              ...   4.86,  5.39,  6.20 au

Time for grid setup =    0.046 sec

------------------------------
INITIAL GUESS: MODEL POTENTIAL
------------------------------
Loading Hartree-Fock densities                     ... done
Calculating cut-offs                               ... done
Setting up the integral package                    ... done
Initializing the effective Hamiltonian             ... done
Starting the Coulomb interaction                   ... done (   0.0 sec)
Reading the grid                                   ... done
Mapping shells                                     ... done
Starting the XC term evaluation                    ... done (   0.0 sec)
  promolecular density results
     # of electrons  =     16.005658310
     EX              =    -11.333008489
     EC              =     -0.485500565
     EX+EC           =    -11.818509054
Transforming the Hamiltonian                       ... done (   0.0 sec)
Diagonalizing the Hamiltonian                      ... done (   0.0 sec)
Back transforming the eigenvectors                 ... done (   0.0 sec)
Now organizing SCF variables                       ... done
                      ------------------
                      INITIAL GUESS DONE (   0.2 sec)
                      ------------------
--------------
SCF ITERATIONS
--------------
ITER       Energy         Delta-E        Max-DP      RMS-DP      [F,P]   Gradient Norm
               ***  Starting incremental Fock matrix formation  ***
                             ****Resetting KDIIS****
                             ****Turning on KDIIS(Cayley)****
  0    -78.4904454229   0.000000000000 0.01635196  0.00148956  0.0951786   0.077332240
  1    -78.5074996227  -0.017054199838 0.01566009  0.00157337  0.0807719   0.064711772
  2    -78.5215175887  -0.014017965993 0.02559086  0.00268208  0.0656630   0.052566904
  3    -78.5385364990  -0.017018910311 0.03818441  0.00408336  0.0400211   0.032149288
  4    -78.5486325181  -0.010096019090 0.00134309  0.00016278  0.0010741   0.000885127
  5    -78.5486409109  -0.000008392800 0.00031266  0.00003897  0.0003445   0.000240046
                          ***Energy convergence achieved***
  6    -78.5486412465  -0.000000335518 0.00018863  0.00002326  0.0001995   0.000151281
Warning: badly conditioned DIIS matrix, 1 vectors out of 5 destroyed

            ***Energy convergence in two consecutive cycles with***
                    ***'reasonable' density convergence***
                       *** signaling convergence ***

                    *** KDIIS BlockDiag ( 0.000 sec) ***

               *****************************************************
               *                     SUCCESS                       *
               *           SCF CONVERGED AFTER   7 CYCLES          *
               *****************************************************

Setting up the final grid:

General Integration Accuracy     IntAcc      ...  4.670
Radial Grid Type                 RadialGrid  ... Gauss-Chebyshev
Angular Grid (max. acc.)         AngularGrid ... Lebedev-302
Angular grid pruning method      GridPruning ... 3 (G Style)
Weight generation scheme         WeightScheme... Becke
Basis function cutoff            BFCut       ...    1.0000e-10
Integration weight cutoff        WCut        ...    1.0000e-14
Grids for H and He will be reduced by one unit

# of grid points (after initial pruning)     ...  26000 (   0.0 sec)
# of grid points (after weights+screening)   ...  25202 (   0.0 sec)
nearest neighbour list constructed           ...    0.0 sec
Grid point re-assignment to atoms done       ...    0.0 sec
Grid point division into batches done        ...    0.1 sec
Reduced shell lists constructed in    0.2 sec

Total number of grid points                  ...    25202
Total number of batches                      ...      396
Average number of points per batch           ...       63
Average number of grid points per atom       ...     4200
Average number of shells per batch           ...    16.31 (81.56%)
Average number of basis functions per batch  ...    29.88 (83.01%)
Average number of large shells per batch     ...    14.47 (88.68%)
Average number of large basis fcns per batch ...    27.01 (90.37%)
Maximum spatial batch extension              ...  18.28, 20.64, 18.89 au
Average spatial batch extension              ...   3.07,  3.28,  3.23 au

Final grid set up in    0.2 sec
Final integration                            ... done (   0.2 sec)
Change in XC energy                          ...     0.000904623
Integrated number of electrons               ...    16.000012387
Previous integrated no of electrons          ...    16.004818656

----------------
TOTAL SCF ENERGY
----------------

Total Energy       :          -78.54773686 Eh           -2137.39258 eV

Components:
Nuclear Repulsion  :           32.41928960 Eh             882.17372 eV
Electronic Energy  :         -110.96702646 Eh           -3019.56630 eV
One Electron Energy:         -168.45618075 Eh           -4583.92572 eV
Two Electron Energy:           57.48915429 Eh            1564.35942 eV

Virial components:
Potential Energy   :         -156.42268338 Eh           -4256.47761 eV
Kinetic Energy     :           77.87494652 Eh            2119.08503 eV
Virial Ratio       :            2.00863937


DFT components:
N(Alpha)           :        8.000006193253 electrons
N(Beta)            :        8.000006193253 electrons
N(Total)           :       16.000012386505 electrons
E(XC)              :       -8.251458687076 Eh       

---------------
SCF CONVERGENCE
---------------

  Last Energy change         ...   -2.3675e-07  Tolerance :   1.0000e-06
  Last MAX-Density change    ...    2.2360e-05  Tolerance :   1.0000e-05
  Last RMS-Density change    ...    2.3489e-06  Tolerance :   1.0000e-06
  Last DIIS Error            ...    1.5767e-05  Tolerance :   1.0000e-06

             **** THE GBW FILE WAS UPDATED (Scan_11.gbw) ****
             **** DENSITY FILE WAS UPDATED (Scan_11.scfp.tmp) ****
             **** ENERGY FILE WAS UPDATED (Scan_11.en.tmp) ****
----------------
ORBITAL ENERGIES
----------------

  NO   OCC          E(Eh)            E(eV) 
   0   2.0000     -10.287929      -279.9488 
   1   2.0000     -10.287534      -279.9380 
   2   2.0000      -0.854359       -23.2483 
   3   2.0000      -0.694526       -18.8990 
   4   2.0000      -0.563759       -15.3407 
   5   2.0000      -0.497794       -13.5456 
   6   2.0000      -0.462263       -12.5788 
   7   2.0000      -0.343740        -9.3536 
   8   0.0000       0.086449         2.3524 
   9   0.0000       0.217135         5.9085 
  10   0.0000       0.246496         6.7075 
  11   0.0000       0.253493         6.8979 
  12   0.0000       0.339199         9.2301 
  13   0.0000       0.392351        10.6764 
  14   0.0000       0.602440        16.3932 
  15   0.0000       0.650460        17.6999 
  16   0.0000       0.661924        18.0119 
  17   0.0000       0.736501        20.0412 
  18   0.0000       0.750628        20.4256 
  19   0.0000       0.756526        20.5861 
  20   0.0000       0.988770        26.9058 
  21   0.0000       0.990655        26.9571 
  22   0.0000       1.040011        28.3001 
  23   0.0000       1.058869        28.8133 
  24   0.0000       1.179415        32.0935 
  25   0.0000       1.302196        35.4346 
  26   0.0000       1.539028        41.8791 
  27   0.0000       1.661100        45.2008 
  28   0.0000       1.890537        51.4441 
  29   0.0000       2.013189        54.7817 
  30   0.0000       2.094562        56.9959 
  31   0.0000       2.119321        57.6697 
  32   0.0000       2.369733        64.4837 
  33   0.0000       2.391703        65.0816 
  34   0.0000       2.721326        74.0510 
  35   0.0000       2.734277        74.4035 

                    ********************************
                    * MULLIKEN POPULATION ANALYSIS *
                    ********************************

-----------------------
MULLIKEN ATOMIC CHARGES
-----------------------
   0 C :   -0.347999
   1 C :   -0.348000
   2 H :    0.173978
   3 H :    0.174022
   4 H :    0.174022
   5 H :    0.173978
Sum of atomic charges:   -0.0000000

--------------------------------
MULLIKEN REDUCED ORBITAL CHARGES
--------------------------------
  0 C s       :     3.277269  s :     3.277269
      pz      :     1.022388  p :     3.042969
      px      :     0.988854
      py      :     1.031727
      dz2     :     0.001097  d :     0.027762
      dxz     :     0.008017
      dyz     :     0.005054
      dx2y2   :     0.003942
      dxy     :     0.009652
  1 C s       :     3.277269  s :     3.277269
      pz      :     1.022388  p :     3.042969
      px      :     0.988854
      py      :     1.031727
      dz2     :     0.001097  d :     0.027762
      dxz     :     0.008017
      dyz     :     0.005054
      dx2y2   :     0.003942
      dxy     :     0.009652
  2 H s       :     0.826022  s :     0.826022
  3 H s       :     0.825978  s :     0.825978
  4 H s       :     0.825978  s :     0.825978
  5 H s       :     0.826022  s :     0.826022


                     *******************************
                     * LOEWDIN POPULATION ANALYSIS *
                     *******************************

----------------------
LOEWDIN ATOMIC CHARGES
----------------------
   0 C :   -0.277037
   1 C :   -0.277037
   2 H :    0.138527
   3 H :    0.138509
   4 H :    0.138510
   5 H :    0.138527

-------------------------------
LOEWDIN REDUCED ORBITAL CHARGES
-------------------------------
  0 C s       :     3.008955  s :     3.008955
      pz      :     1.045697  p :     3.211832
      px      :     1.100907
      py      :     1.065228
      dz2     :     0.003165  d :     0.056249
      dxz     :     0.015475
      dyz     :     0.007119
      dx2y2   :     0.011691
      dxy     :     0.018799
  1 C s       :     3.008955  s :     3.008955
      pz      :     1.045697  p :     3.211833
      px      :     1.100908
      py      :     1.065229
      dz2     :     0.003165  d :     0.056249
      dxz     :     0.015475
      dyz     :     0.007120
      dx2y2   :     0.011691
      dxy     :     0.018799
  2 H s       :     0.861473  s :     0.861473
  3 H s       :     0.861491  s :     0.861491
  4 H s       :     0.861490  s :     0.861490
  5 H s       :     0.861473  s :     0.861473


                      *****************************
                      * MAYER POPULATION ANALYSIS *
                      *****************************

  NA   - Mulliken gross atomic population
  ZA   - Total nuclear charge
  QA   - Mulliken gross atomic charge
  VA   - Mayer's total valence
  BVA  - Mayer's bonded valence
  FA   - Mayer's free valence

  ATOM       NA         ZA         QA         VA         BVA        FA
  0 C      6.3480     6.0000    -0.3480     3.8834     3.8834    -0.0000
  1 C      6.3480     6.0000    -0.3480     3.8834     3.8834     0.0000
  2 H      0.8260     1.0000     0.1740     0.9366     0.9366     0.0000
  3 H      0.8260     1.0000     0.1740     0.9366     0.9366    -0.0000
  4 H      0.8260     1.0000     0.1740     0.9366     0.9366    -0.0000
  5 H      0.8260     1.0000     0.1740     0.9366     0.9366     0.0000

  Mayer bond orders larger than 0.1
B(  0-C ,  1-C ) :   2.0087 B(  0-C ,  2-H ) :   0.9451 B(  0-C ,  3-H ) :   0.9451 
B(  1-C ,  4-H ) :   0.9451 B(  1-C ,  5-H ) :   0.9451 

-------
TIMINGS
-------

Total SCF time: 0 days 0 hours 0 min 3 sec 

Total time                  ....       3.164 sec
Sum of individual times     ....       3.032 sec  ( 95.8%)

Fock matrix formation       ....       2.601 sec  ( 82.2%)
  XC integration            ....       0.825 sec  ( 31.7% of F)
    Basis function eval.    ....       0.336 sec  ( 40.7% of XC)
    Density eval.           ....       0.039 sec  (  4.7% of XC)
    XC-Functional eval.     ....       0.218 sec  ( 26.4% of XC)
    XC-Potential eval.      ....       0.045 sec  (  5.4% of XC)
Diagonalization             ....       0.004 sec  (  0.1%)
Density matrix formation    ....       0.000 sec  (  0.0%)
Population analysis         ....       0.019 sec  (  0.6%)
Initial guess               ....       0.140 sec  (  4.4%)
Orbital Transformation      ....       0.000 sec  (  0.0%)
Orbital Orthonormalization  ....       0.000 sec  (  0.0%)
DIIS solution               ....       0.000 sec  (  0.0%)
Grid generation             ....       0.267 sec  (  8.4%)


-------------------------------------------------------------------------------
                          DFT DISPERSION CORRECTION                            
                                                                               
                              DFTD3 V3.1  Rev 1                                
                              USING zero damping                               
-------------------------------------------------------------------------------
The omegaB97X-D3 functional is recognized. Fit by Chai et al.
Active option DFTDOPT                   ...         3   

molecular C6(AA) [au] = 294.503987 


            DFT-D V3
 parameters
 s6 scaling factor         :     1.0000 
 rs6 scaling factor        :     1.2810 
 s8 scaling factor         :     1.0000 
 rs8 scaling factor        :     1.0940 
 Damping factor alpha6     :    14.0000 
 Damping factor alpha8     :    16.0000 
 ad hoc parameters k1-k3   :    16.0000     1.3333    -4.0000 

 Edisp/kcal,au: -0.173618729993  -0.000276679028 
 E6   /kcal   :  -0.058147997 
 E8   /kcal   :  -0.115470733 
 % E8         :  66.508223411 

-------------------------   ----------------
Dispersion correction           -0.000276679
-------------------------   ----------------


-------------------------   --------------------
FINAL SINGLE POINT ENERGY       -78.548013539387
-------------------------   --------------------


                            ***************************************
                            *     ORCA property calculations      *
                            ***************************************

                                    ---------------------
                                    Active property flags
                                    ---------------------
   (+) Dipole Moment


------------------------------------------------------------------------------
                       ORCA ELECTRIC PROPERTIES CALCULATION
------------------------------------------------------------------------------

Dipole Moment Calculation                       ... on
Quadrupole Moment Calculation                   ... off
Polarizability Calculation                      ... off
GBWName                                         ... Scan_11.gbw
Electron density file                           ... Scan_11.scfp.tmp

-------------
DIPOLE MOMENT
-------------
                                X             Y             Z
Electronic contribution:      0.00000       0.00003      -0.00003
Nuclear contribution   :     -0.00000      -0.00004       0.00005
                        -----------------------------------------
Total Dipole Moment    :     -0.00000      -0.00002       0.00002
                        -----------------------------------------
Magnitude (a.u.)       :      0.00002
Magnitude (Debye)      :      0.00006


Timings for individual modules:

Sum of individual times         ...        3.500 sec (=   0.058 min)
GTO integral calculation        ...        0.298 sec (=   0.005 min)   8.5 %
SCF iterations                  ...        3.202 sec (=   0.053 min)  91.5 %
                             ****ORCA TERMINATED NORMALLY****
TOTAL RUN TIME: 0 days 0 hours 0 minutes 3 seconds 864 msec
