
                                 *****************
                                 * O   R   C   A *
                                 *****************

           --- An Ab Initio, DFT and Semiempirical electronic structure package ---

                  #######################################################
                  #                        -***-                        #
                  #  Department of molecular theory and spectroscopy    #
                  #              Directorship: Frank Neese              #
                  # Max Planck Institute for Chemical Energy Conversion #
                  #                  D-45470 Muelheim/Ruhr              #
                  #                       Germany                       #
                  #                                                     #
                  #                  All rights reserved                #
                  #                        -***-                        #
                  #######################################################


                         Program Version 4.0.0.2 - RELEASE -


 With contributions from (in alphabetic order):
   Daniel Aravena         : Magnetic Properties
   Michael Atanasov       : Ab Initio Ligand Field Theory
   Ute Becker             : Parallelization
   Martin Brehm           : Molecular dynamics
   Dmytro Bykov           : SCF Hessian
   Vijay G. Chilkuri      : MRCI spin determinant printing
   Dipayan Datta          : RHF DLPNO-CCSD density
   Achintya Kumar Dutta   : EOM-CC, STEOM-CC
   Dmitry Ganyushin       : Spin-Orbit,Spin-Spin,Magnetic field MRCI
   Yang Guo               : DLPNO-NEVPT2, CIM, IAO-localization
   Andreas Hansen         : Spin unrestricted coupled pair/coupled cluster methods
   Lee Huntington         : MR-EOM, pCC
   Robert Izsak           : Overlap fitted RIJCOSX, COSX-SCS-MP3, EOM
   Christian Kollmar      : KDIIS, OOCD, Brueckner-CCSD(T), CCSD density
   Simone Kossmann        : Meta GGA functionals, TD-DFT gradient, OOMP2, MP2 Hessian
   Martin Krupicka        : AUTO-CI
   Dagmar Lenk            : GEPOL surface
   Dimitrios Liakos       : Extrapolation schemes; parallel MDCI
   Dimitrios Manganas     : ROCIS; embedding schemes
   Dimitrios Pantazis     : SARC Basis sets
   Taras Petrenko         : DFT Hessian,TD-DFT gradient, ASA, ECA, R-Raman, ABS, FL, XAS/XES, NRVS
   Peter Pinski           : DLPNO-MP2
   Christoph Reimann      : Effective Core Potentials
   Marius Retegan         : Local ZFS, SOC
   Christoph Riplinger    : Optimizer, TS searches, QM/MM, DLPNO-CCSD(T), (RO)-DLPNO pert. Triples
   Tobias Risthaus        : Range-separated hybrids, TD-DFT gradient, RPA, STAB
   Michael Roemelt        : Restricted open shell CIS
   Masaaki Saitow         : Open-shell DLPNO
   Barbara Sandhoefer     : DKH picture change effects
   Kantharuban Sivalingam : CASSCF convergence, NEVPT2, FIC-MRCI
   Georgi Stoychev        : AutoAux
   Boris Wezisla          : Elementary symmetry handling
   Frank Wennmohs         : Technical directorship


 We gratefully acknowledge several colleagues who have allowed us to
 interface, adapt or use parts of their codes:
   Stefan Grimme, W. Hujo, H. Kruse,             : VdW corrections, initial TS optimization,
                  C. Bannwarth                     DFT functionals, gCP, sTDA/sTD-DF
   Ed Valeev                                     : LibInt (2-el integral package), F12 methods
   Garnet Chan, S. Sharma, J. Yang, R. Olivares  : DMRG
   Ulf Ekstrom                                   : XCFun DFT Library
   Mihaly Kallay                                 : mrcc  (arbitrary order and MRCC methods)
   Jiri Pittner, Ondrej Demel                    : Mk-CCSD
   Frank Weinhold                                : gennbo (NPA and NBO analysis)
   Christopher J. Cramer and Donald G. Truhlar   : smd solvation model


 Your calculation uses the libint2 library for the computation of 2-el integrals
 For citations please refer to: http://libint.valeyev.net

 This ORCA versions uses:
   CBLAS   interface :  Fast vector & matrix operations
   LAPACKE interface :  Fast linear algebra routines
   SCALAPACK package :  Parallel linear algebra routines


Your calculation utilizes the atom-pairwise dispersion correction
with the zero-damping scheme (D30)
Cite in your paper:
S.Grimme, J.Antony, S.Ehrlich and H.Krieg, J.Chem.Phys., 132, (2010), 154104 
   

XCFun DFT library Copyright 2009-2010 Ulf Ekstrom and contributors.
See http://admol.org/xcfun for more information. This is free soft-
ware; see the source code for copying conditions. There is ABSOLUTELY
NO WARRANTY; not even for MERCHANTABILITY or FITNESS FOR A PARTICULAR
PURPOSE. For details see the documentation. Scientific users of this 
library should cite U. Ekstrom, L. Visscher, R. Bast, A. J. Thorvald-
sen and K. Ruud; J.Chem.Theor.Comp. 2010, DOI: 10.1021/ct100117s
XCFun Version 0.99 
Your calculation utilizes the basis: 6-31G(d)
   H-He, Li-Ne : W. J. Hehre, R. Ditchfield and J.A. Pople, J. Chem. Phys. 56, 2257 (1972).
                 Note: He and Ne are unpublished basis sets taken from the Gaussian program.
                 Note: Li and B from J. D. Dill and J. A. Pople, J. Chem. Phys. 62, 2921 (1975).
   Na - Ar     : M. M. Francl, W. J. Pietro, W. J. Hehre, J. S. Binkley, M. S. Gordon, 
                 D. J. DeFrees and J. A. Pople, J. Chem. Phys. 77, 3654 (1982).
   K - Zn      : V. A. Rassolov, J. A. Pople, M. A. Ratner, and T. L. Windus, J. Chem. Phys. 109, 1223 (1998).

================================================================================
                                        WARNINGS
                       Please study these warnings very carefully!
================================================================================

Warning: TCutStore was < 0. Adjusted to Thresh (uncritical)

INFO   : the flag for use of LIBINT has been found!

================================================================================
                                       INPUT FILE
================================================================================
NAME = initial13.inp
|  1> ! WB97X-D3 6-31G(d) VerySlowConv
|  2> ! KDIIS NOSOSCF
|  3> %base "Scan_13"
|  4> 
|  5> %scf
|  6> maxiter 999
|  7> end
|  8> 
|  9> * xyz 0 1
| 10> C         -1.801355921950    1.271165463797   -0.000034859548
| 11> C         -0.236401082345    1.279377831099    0.000034902703
| 12> H         -2.311594840621    0.555174029634   -0.606395199223
| 13> H         -2.319134548516    1.981643757616    0.606418960865
| 14> H          0.281378049734    0.568899814743   -0.606418795734
| 15> H          0.273838343698    1.995369103110    0.606394990937
| 16> **                         ****END OF INPUT****
================================================================================

                       ****************************
                       * Single Point Calculation *
                       ****************************

---------------------------------
CARTESIAN COORDINATES (ANGSTROEM)
---------------------------------
  C     -1.801356    1.271165   -0.000035
  C     -0.236401    1.279378    0.000035
  H     -2.311595    0.555174   -0.606395
  H     -2.319135    1.981644    0.606419
  H      0.281378    0.568900   -0.606419
  H      0.273838    1.995369    0.606395

----------------------------
CARTESIAN COORDINATES (A.U.)
----------------------------
  NO LB      ZA    FRAG     MASS         X           Y           Z
   0 C     6.0000    0    12.011   -3.404069    2.402155   -0.000066
   1 C     6.0000    0    12.011   -0.446733    2.417674    0.000066
   2 H     1.0000    0     1.008   -4.368281    1.049127   -1.145921
   3 H     1.0000    0     1.008   -4.382529    3.744764    1.145966
   4 H     1.0000    0     1.008    0.531727    1.075065   -1.145965
   5 H     1.0000    0     1.008    0.517479    3.770701    1.145920

--------------------------------
INTERNAL COORDINATES (ANGSTROEM)
--------------------------------
 C      0   0   0     0.000000000000     0.00000000     0.00000000
 C      1   0   0     1.564976388910     0.00000000     0.00000000
 H      1   2   0     1.068017017398   118.76909103     0.00000000
 H      1   2   3     1.068017016910   118.76909106   179.98880923
 H      2   1   3     1.068017008146   118.76912235     0.00000000
 H      2   1   3     1.068017008333   118.76912230   179.99999460

---------------------------
INTERNAL COORDINATES (A.U.)
---------------------------
 C      0   0   0     0.000000000000     0.00000000     0.00000000
 C      1   0   0     2.957376781093     0.00000000     0.00000000
 H      1   2   0     2.018259669250   118.76909103     0.00000000
 H      1   2   3     2.018259668328   118.76909106   179.98880923
 H      2   1   3     2.018259651766   118.76912235     0.00000000
 H      2   1   3     2.018259652119   118.76912230   179.99999460

---------------------
BASIS SET INFORMATION
---------------------
There are 2 groups of distinct atoms

 Group   1 Type C   : 10s4p1d contracted to 3s2p1d pattern {631/31/1}
 Group   2 Type H   : 4s contracted to 2s pattern {31}

Atom   0C    basis set group =>   1
Atom   1C    basis set group =>   1
Atom   2H    basis set group =>   2
Atom   3H    basis set group =>   2
Atom   4H    basis set group =>   2
Atom   5H    basis set group =>   2
------------------------------------------------------------------------------
                           ORCA GTO INTEGRAL CALCULATION
------------------------------------------------------------------------------

                         BASIS SET STATISTICS AND STARTUP INFO

 # of primitive gaussian shells          ...   46
 # of primitive gaussian functions       ...   70
 # of contracted shells                  ...   20
 # of contracted basis functions         ...   36
 Highest angular momentum                ...    2
 Maximum contraction depth               ...    6
 Integral package used                   ... LIBINT
 Integral threshhold            Thresh   ...  1.000e-10
 Primitive cut-off              TCut     ...  1.000e-11


------------------------------ INTEGRAL EVALUATION ----------------------------


 * One electron integrals 
 Pre-screening matrix                    ... done
 Shell pair data                         ... done (   0.000 sec)

-------------------------------------------------------------------------------
                                 ORCA SCF
-------------------------------------------------------------------------------

------------
SCF SETTINGS
------------
Hamiltonian:
 Density Functional     Method          .... DFT(GTOs)
 Exchange Functional    Exchange        .... WB97X-D3
 Correlation Functional Correlation     .... WB97X-D3
 Gradients option       PostSCFGGA      .... off
 Hybrid DFT is turned on
   Fraction HF Exchange ScalHFX         ....  0.195728
   Scaling of DF-GGA-X  ScalDFX         ....  0.000000
   Scaling of DF-GGA-C  ScalDFC         ....  1.000000
   Scaling of DF-LDA-C  ScalLDAC        ....  1.000000
   Perturbative correction              ....  0.000000
 Long-range corrected/Screened/Range-Separated Hybrid DFT is turned on
   Amount of maximum screened exact exchange              ....  0.804272
   Range separation parameter mu (erf(mu*r12)/r12)        ....  0.250000


General Settings:
 Integral files         IntName         .... Scan_13
 Hartree-Fock type      HFTyp           .... RHF
 Total Charge           Charge          ....    0
 Multiplicity           Mult            ....    1
 Number of Electrons    NEL             ....   16
 Basis Dimension        Dim             ....   36
 Nuclear Repulsion      ENuc            ....     30.9388406281 Eh

Convergence Acceleration:
 DIIS                   CNVDIIS         .... on
   Start iteration      DIISMaxIt       ....     0
   Startup error        DIISStart       ....  0.200000
   # of expansion vecs  DIISMaxEq       ....     5
   Bias factor          DIISBfac        ....   1.050
   Max. coefficient     DIISMaxC        ....  10.000
 Newton-Raphson         CNVNR           .... off
 SOSCF                  CNVSOSCF        .... off
 Level Shifting         CNVShift        .... off
 Zerner damping         CNVZerner       .... off
 Static damping         CNVDamp         .... off
 Fernandez-Rico         CNVRico         .... off

SCF Procedure:
 Maximum # iterations   MaxIter         ....   999
 SCF integral mode      SCFMode         .... Direct
   Integral package                     .... LIBINT
 Reset frequeny         DirectResetFreq ....    20
 Integral Threshold     Thresh          ....  1.000e-10 Eh
 Primitive CutOff       TCut            ....  1.000e-11 Eh

Convergence Tolerance:
 Convergence Check Mode ConvCheckMode   .... All-Criteria
 Convergence forced     ConvForced      .... 0
 Energy Change          TolE            ....  1.000e-06 Eh
 Max Density Change     TolMaxP         ....  1.000e-05
 RMS Density Change     TolRMSP         ....  1.000e-06
 DIIS Error             TolErr          ....  1.000e-06


Diagonalization of the overlap matrix:
Smallest eigenvalue                        ... 1.536e-02
Time for diagonalization                   ...    0.001 sec
Threshold for overlap eigenvalues          ... 1.000e-08
Number of eigenvalues below threshold      ... 0
Time for construction of square roots      ...    0.005 sec
Total time needed                          ...    0.005 sec

-------------------
DFT GRID GENERATION
-------------------

General Integration Accuracy     IntAcc      ...  4.340
Radial Grid Type                 RadialGrid  ... Gauss-Chebyshev
Angular Grid (max. acc.)         AngularGrid ... Lebedev-110
Angular grid pruning method      GridPruning ... 3 (G Style)
Weight generation scheme         WeightScheme... Becke
Basis function cutoff            BFCut       ...    1.0000e-10
Integration weight cutoff        WCut        ...    1.0000e-14
Grids for H and He will be reduced by one unit

# of grid points (after initial pruning)     ...   6488 (   0.0 sec)
# of grid points (after weights+screening)   ...   6292 (   0.0 sec)
nearest neighbour list constructed           ...    0.0 sec
Grid point re-assignment to atoms done       ...    0.0 sec
Grid point division into batches done        ...    0.0 sec
Reduced shell lists constructed in    0.0 sec

Total number of grid points                  ...     6292
Total number of batches                      ...      100
Average number of points per batch           ...       62
Average number of grid points per atom       ...     1049
Average number of shells per batch           ...    17.69 (88.47%)
Average number of basis functions per batch  ...    32.35 (89.85%)
Average number of large shells per batch     ...    16.14 (91.21%)
Average number of large basis fcns per batch ...    30.00 (92.75%)
Maximum spatial batch extension              ...  20.05, 20.45, 25.60 au
Average spatial batch extension              ...   4.86,  5.55,  6.06 au

Time for grid setup =    0.047 sec

------------------------------
INITIAL GUESS: MODEL POTENTIAL
------------------------------
Loading Hartree-Fock densities                     ... done
Calculating cut-offs                               ... done
Setting up the integral package                    ... done
Initializing the effective Hamiltonian             ... done
Starting the Coulomb interaction                   ... done (   0.0 sec)
Reading the grid                                   ... done
Mapping shells                                     ... done
Starting the XC term evaluation                    ... done (   0.0 sec)
  promolecular density results
     # of electrons  =     16.004444795
     EX              =    -11.298705827
     EC              =     -0.480040114
     EX+EC           =    -11.778745942
Transforming the Hamiltonian                       ... done (   0.0 sec)
Diagonalizing the Hamiltonian                      ... done (   0.0 sec)
Back transforming the eigenvectors                 ... done (   0.0 sec)
Now organizing SCF variables                       ... done
                      ------------------
                      INITIAL GUESS DONE (   0.2 sec)
                      ------------------
--------------
SCF ITERATIONS
--------------
ITER       Energy         Delta-E        Max-DP      RMS-DP      [F,P]   Gradient Norm
               ***  Starting incremental Fock matrix formation  ***
                             ****Resetting KDIIS****
                             ****Turning on KDIIS(Cayley)****
  0    -78.4682637899   0.000000000000 0.01373478  0.00126757  0.0834326   0.066101302
  1    -78.4805402094  -0.012276419557 0.01372944  0.00143053  0.0713283   0.055794338
  2    -78.4913220431  -0.010781833627 0.02244213  0.00243960  0.0578874   0.045233457
  3    -78.5043563274  -0.013034284364 0.03342083  0.00368591  0.0351635   0.027530046
  4    -78.5119712310  -0.007614903569 0.00141369  0.00012720  0.0007659   0.000628805
  5    -78.5119759814  -0.000004750418 0.00039034  0.00003901  0.0001353   0.000083290
                          ***Energy convergence achieved***
  6    -78.5119760196  -0.000000038148 0.00025707  0.00002167  0.0001263   0.000093572
Warning: badly conditioned DIIS matrix, 1 vectors out of 5 destroyed

            ***Energy convergence in two consecutive cycles with***
                    ***'reasonable' density convergence***
                       *** signaling convergence ***

                    *** KDIIS BlockDiag ( 0.000 sec) ***

               *****************************************************
               *                     SUCCESS                       *
               *           SCF CONVERGED AFTER   7 CYCLES          *
               *****************************************************

Setting up the final grid:

General Integration Accuracy     IntAcc      ...  4.670
Radial Grid Type                 RadialGrid  ... Gauss-Chebyshev
Angular Grid (max. acc.)         AngularGrid ... Lebedev-302
Angular grid pruning method      GridPruning ... 3 (G Style)
Weight generation scheme         WeightScheme... Becke
Basis function cutoff            BFCut       ...    1.0000e-10
Integration weight cutoff        WCut        ...    1.0000e-14
Grids for H and He will be reduced by one unit

# of grid points (after initial pruning)     ...  26000 (   0.0 sec)
# of grid points (after weights+screening)   ...  25264 (   0.0 sec)
nearest neighbour list constructed           ...    0.0 sec
Grid point re-assignment to atoms done       ...    0.0 sec
Grid point division into batches done        ...    0.1 sec
Reduced shell lists constructed in    0.2 sec

Total number of grid points                  ...    25264
Total number of batches                      ...      398
Average number of points per batch           ...       63
Average number of grid points per atom       ...     4211
Average number of shells per batch           ...    16.21 (81.07%)
Average number of basis functions per batch  ...    29.72 (82.55%)
Average number of large shells per batch     ...    14.37 (88.64%)
Average number of large basis fcns per batch ...    26.78 (90.11%)
Maximum spatial batch extension              ...  18.67, 20.64, 20.64 au
Average spatial batch extension              ...   3.09,  3.33,  3.27 au

Final grid set up in    0.2 sec
Final integration                            ... done (   0.2 sec)
Change in XC energy                          ...     0.000272968
Integrated number of electrons               ...    16.000014336
Previous integrated no of electrons          ...    16.004434348

----------------
TOTAL SCF ENERGY
----------------

Total Energy       :          -78.51170315 Eh           -2136.41206 eV

Components:
Nuclear Repulsion  :           30.93884063 Eh             841.88865 eV
Electronic Energy  :         -109.45054378 Eh           -2978.30071 eV
One Electron Energy:         -165.47535997 Eh           -4502.81346 eV
Two Electron Energy:           56.02481619 Eh            1524.51275 eV

Virial components:
Potential Energy   :         -156.16654845 Eh           -4249.50782 eV
Kinetic Energy     :           77.65484530 Eh            2113.09577 eV
Virial Ratio       :            2.01103418


DFT components:
N(Alpha)           :        8.000007167870 electrons
N(Beta)            :        8.000007167870 electrons
N(Total)           :       16.000014335740 electrons
E(XC)              :       -8.202219403996 Eh       

---------------
SCF CONVERGENCE
---------------

  Last Energy change         ...   -9.7204e-08  Tolerance :   1.0000e-06
  Last MAX-Density change    ...    1.1147e-05  Tolerance :   1.0000e-05
  Last RMS-Density change    ...    1.0727e-06  Tolerance :   1.0000e-06
  Last DIIS Error            ...    5.4451e-06  Tolerance :   1.0000e-06

             **** THE GBW FILE WAS UPDATED (Scan_13.gbw) ****
             **** DENSITY FILE WAS UPDATED (Scan_13.scfp.tmp) ****
             **** ENERGY FILE WAS UPDATED (Scan_13.en.tmp) ****
----------------
ORBITAL ENERGIES
----------------

  NO   OCC          E(Eh)            E(eV) 
   0   2.0000     -10.303892      -280.3832 
   1   2.0000     -10.303757      -280.3795 
   2   2.0000      -0.830880       -22.6094 
   3   2.0000      -0.704918       -19.1818 
   4   2.0000      -0.559530       -15.2256 
   5   2.0000      -0.482581       -13.1317 
   6   2.0000      -0.472184       -12.8488 
   7   2.0000      -0.323174        -8.7940 
   8   0.0000       0.059642         1.6230 
   9   0.0000       0.214033         5.8241 
  10   0.0000       0.241672         6.5762 
  11   0.0000       0.257674         7.0117 
  12   0.0000       0.329829         8.9751 
  13   0.0000       0.336919         9.1680 
  14   0.0000       0.630456        17.1556 
  15   0.0000       0.636020        17.3070 
  16   0.0000       0.670714        18.2511 
  17   0.0000       0.681476        18.5439 
  18   0.0000       0.727105        19.7855 
  19   0.0000       0.762761        20.7558 
  20   0.0000       0.985229        26.8094 
  21   0.0000       1.017978        27.7006 
  22   0.0000       1.026260        27.9260 
  23   0.0000       1.054434        28.6926 
  24   0.0000       1.151005        31.3204 
  25   0.0000       1.264949        34.4210 
  26   0.0000       1.546499        42.0824 
  27   0.0000       1.695357        46.1330 
  28   0.0000       1.845261        50.2121 
  29   0.0000       1.894794        51.5600 
  30   0.0000       2.105648        57.2976 
  31   0.0000       2.130957        57.9863 
  32   0.0000       2.255250        61.3685 
  33   0.0000       2.333996        63.5113 
  34   0.0000       2.580150        70.2095 
  35   0.0000       2.653497        72.2053 

                    ********************************
                    * MULLIKEN POPULATION ANALYSIS *
                    ********************************

-----------------------
MULLIKEN ATOMIC CHARGES
-----------------------
   0 C :   -0.363003
   1 C :   -0.363001
   2 H :    0.181478
   3 H :    0.181524
   4 H :    0.181524
   5 H :    0.181478
Sum of atomic charges:   -0.0000000

--------------------------------
MULLIKEN REDUCED ORBITAL CHARGES
--------------------------------
  0 C s       :     3.313600  s :     3.313600
      pz      :     1.022376  p :     3.025358
      px      :     0.971986
      py      :     1.030995
      dz2     :     0.000907  d :     0.024046
      dxz     :     0.006338
      dyz     :     0.005362
      dx2y2   :     0.003485
      dxy     :     0.007953
  1 C s       :     3.313600  s :     3.313600
      pz      :     1.022376  p :     3.025356
      px      :     0.971985
      py      :     1.030995
      dz2     :     0.000907  d :     0.024046
      dxz     :     0.006338
      dyz     :     0.005362
      dx2y2   :     0.003485
      dxy     :     0.007953
  2 H s       :     0.818522  s :     0.818522
  3 H s       :     0.818476  s :     0.818476
  4 H s       :     0.818476  s :     0.818476
  5 H s       :     0.818522  s :     0.818522


                     *******************************
                     * LOEWDIN POPULATION ANALYSIS *
                     *******************************

----------------------
LOEWDIN ATOMIC CHARGES
----------------------
   0 C :   -0.284161
   1 C :   -0.284159
   2 H :    0.142091
   3 H :    0.142069
   4 H :    0.142069
   5 H :    0.142091

-------------------------------
LOEWDIN REDUCED ORBITAL CHARGES
-------------------------------
  0 C s       :     3.048262  s :     3.048262
      pz      :     1.050631  p :     3.190845
      px      :     1.069281
      py      :     1.070933
      dz2     :     0.002374  d :     0.045055
      dxz     :     0.011419
      dyz     :     0.007524
      dx2y2   :     0.009467
      dxy     :     0.014271
  1 C s       :     3.048262  s :     3.048262
      pz      :     1.050630  p :     3.190843
      px      :     1.069281
      py      :     1.070932
      dz2     :     0.002374  d :     0.045055
      dxz     :     0.011419
      dyz     :     0.007524
      dx2y2   :     0.009467
      dxy     :     0.014271
  2 H s       :     0.857909  s :     0.857909
  3 H s       :     0.857931  s :     0.857931
  4 H s       :     0.857931  s :     0.857931
  5 H s       :     0.857909  s :     0.857909


                      *****************************
                      * MAYER POPULATION ANALYSIS *
                      *****************************

  NA   - Mulliken gross atomic population
  ZA   - Total nuclear charge
  QA   - Mulliken gross atomic charge
  VA   - Mayer's total valence
  BVA  - Mayer's bonded valence
  FA   - Mayer's free valence

  ATOM       NA         ZA         QA         VA         BVA        FA
  0 C      6.3630     6.0000    -0.3630     3.8691     3.8691    -0.0000
  1 C      6.3630     6.0000    -0.3630     3.8691     3.8691     0.0000
  2 H      0.8185     1.0000     0.1815     0.9349     0.9349     0.0000
  3 H      0.8185     1.0000     0.1815     0.9349     0.9349    -0.0000
  4 H      0.8185     1.0000     0.1815     0.9349     0.9349    -0.0000
  5 H      0.8185     1.0000     0.1815     0.9349     0.9349     0.0000

  Mayer bond orders larger than 0.1
B(  0-C ,  1-C ) :   1.9972 B(  0-C ,  2-H ) :   0.9403 B(  0-C ,  3-H ) :   0.9403 
B(  1-C ,  4-H ) :   0.9403 B(  1-C ,  5-H ) :   0.9403 

-------
TIMINGS
-------

Total SCF time: 0 days 0 hours 0 min 3 sec 

Total time                  ....       3.237 sec
Sum of individual times     ....       3.103 sec  ( 95.9%)

Fock matrix formation       ....       2.669 sec  ( 82.5%)
  XC integration            ....       0.855 sec  ( 32.0% of F)
    Basis function eval.    ....       0.333 sec  ( 38.9% of XC)
    Density eval.           ....       0.039 sec  (  4.6% of XC)
    XC-Functional eval.     ....       0.220 sec  ( 25.7% of XC)
    XC-Potential eval.      ....       0.046 sec  (  5.4% of XC)
Diagonalization             ....       0.005 sec  (  0.2%)
Density matrix formation    ....       0.000 sec  (  0.0%)
Population analysis         ....       0.018 sec  (  0.6%)
Initial guess               ....       0.142 sec  (  4.4%)
Orbital Transformation      ....       0.000 sec  (  0.0%)
Orbital Orthonormalization  ....       0.000 sec  (  0.0%)
DIIS solution               ....       0.000 sec  (  0.0%)
Grid generation             ....       0.269 sec  (  8.3%)


-------------------------------------------------------------------------------
                          DFT DISPERSION CORRECTION                            
                                                                               
                              DFTD3 V3.1  Rev 1                                
                              USING zero damping                               
-------------------------------------------------------------------------------
The omegaB97X-D3 functional is recognized. Fit by Chai et al.
Active option DFTDOPT                   ...         3   

molecular C6(AA) [au] = 294.671970 


            DFT-D V3
 parameters
 s6 scaling factor         :     1.0000 
 rs6 scaling factor        :     1.2810 
 s8 scaling factor         :     1.0000 
 rs8 scaling factor        :     1.0940 
 Damping factor alpha6     :    14.0000 
 Damping factor alpha8     :    16.0000 
 ad hoc parameters k1-k3   :    16.0000     1.3333    -4.0000 

 Edisp/kcal,au: -0.194664038538  -0.000310216859 
 E6   /kcal   :  -0.064944097 
 E8   /kcal   :  -0.129719941 
 % E8         :  66.637855851 

-------------------------   ----------------
Dispersion correction           -0.000310217
-------------------------   ----------------


-------------------------   --------------------
FINAL SINGLE POINT ENERGY       -78.512013365816
-------------------------   --------------------


                            ***************************************
                            *     ORCA property calculations      *
                            ***************************************

                                    ---------------------
                                    Active property flags
                                    ---------------------
   (+) Dipole Moment


------------------------------------------------------------------------------
                       ORCA ELECTRIC PROPERTIES CALCULATION
------------------------------------------------------------------------------

Dipole Moment Calculation                       ... on
Quadrupole Moment Calculation                   ... off
Polarizability Calculation                      ... off
GBWName                                         ... Scan_13.gbw
Electron density file                           ... Scan_13.scfp.tmp

-------------
DIPOLE MOMENT
-------------
                                X             Y             Z
Electronic contribution:      0.00000      -0.00000       0.00000
Nuclear contribution   :      0.00000       0.00000      -0.00000
                        -----------------------------------------
Total Dipole Moment    :      0.00000       0.00000      -0.00000
                        -----------------------------------------
Magnitude (a.u.)       :      0.00000
Magnitude (Debye)      :      0.00001


Timings for individual modules:

Sum of individual times         ...        3.565 sec (=   0.059 min)
GTO integral calculation        ...        0.293 sec (=   0.005 min)   8.2 %
SCF iterations                  ...        3.272 sec (=   0.055 min)  91.8 %
                             ****ORCA TERMINATED NORMALLY****
TOTAL RUN TIME: 0 days 0 hours 0 minutes 3 seconds 926 msec
