
                                 *****************
                                 * O   R   C   A *
                                 *****************

           --- An Ab Initio, DFT and Semiempirical electronic structure package ---

                  #######################################################
                  #                        -***-                        #
                  #  Department of molecular theory and spectroscopy    #
                  #              Directorship: Frank Neese              #
                  # Max Planck Institute for Chemical Energy Conversion #
                  #                  D-45470 Muelheim/Ruhr              #
                  #                       Germany                       #
                  #                                                     #
                  #                  All rights reserved                #
                  #                        -***-                        #
                  #######################################################


                         Program Version 4.0.0.2 - RELEASE -


 With contributions from (in alphabetic order):
   Daniel Aravena         : Magnetic Properties
   Michael Atanasov       : Ab Initio Ligand Field Theory
   Ute Becker             : Parallelization
   Martin Brehm           : Molecular dynamics
   Dmytro Bykov           : SCF Hessian
   Vijay G. Chilkuri      : MRCI spin determinant printing
   Dipayan Datta          : RHF DLPNO-CCSD density
   Achintya Kumar Dutta   : EOM-CC, STEOM-CC
   Dmitry Ganyushin       : Spin-Orbit,Spin-Spin,Magnetic field MRCI
   Yang Guo               : DLPNO-NEVPT2, CIM, IAO-localization
   Andreas Hansen         : Spin unrestricted coupled pair/coupled cluster methods
   Lee Huntington         : MR-EOM, pCC
   Robert Izsak           : Overlap fitted RIJCOSX, COSX-SCS-MP3, EOM
   Christian Kollmar      : KDIIS, OOCD, Brueckner-CCSD(T), CCSD density
   Simone Kossmann        : Meta GGA functionals, TD-DFT gradient, OOMP2, MP2 Hessian
   Martin Krupicka        : AUTO-CI
   Dagmar Lenk            : GEPOL surface
   Dimitrios Liakos       : Extrapolation schemes; parallel MDCI
   Dimitrios Manganas     : ROCIS; embedding schemes
   Dimitrios Pantazis     : SARC Basis sets
   Taras Petrenko         : DFT Hessian,TD-DFT gradient, ASA, ECA, R-Raman, ABS, FL, XAS/XES, NRVS
   Peter Pinski           : DLPNO-MP2
   Christoph Reimann      : Effective Core Potentials
   Marius Retegan         : Local ZFS, SOC
   Christoph Riplinger    : Optimizer, TS searches, QM/MM, DLPNO-CCSD(T), (RO)-DLPNO pert. Triples
   Tobias Risthaus        : Range-separated hybrids, TD-DFT gradient, RPA, STAB
   Michael Roemelt        : Restricted open shell CIS
   Masaaki Saitow         : Open-shell DLPNO
   Barbara Sandhoefer     : DKH picture change effects
   Kantharuban Sivalingam : CASSCF convergence, NEVPT2, FIC-MRCI
   Georgi Stoychev        : AutoAux
   Boris Wezisla          : Elementary symmetry handling
   Frank Wennmohs         : Technical directorship


 We gratefully acknowledge several colleagues who have allowed us to
 interface, adapt or use parts of their codes:
   Stefan Grimme, W. Hujo, H. Kruse,             : VdW corrections, initial TS optimization,
                  C. Bannwarth                     DFT functionals, gCP, sTDA/sTD-DF
   Ed Valeev                                     : LibInt (2-el integral package), F12 methods
   Garnet Chan, S. Sharma, J. Yang, R. Olivares  : DMRG
   Ulf Ekstrom                                   : XCFun DFT Library
   Mihaly Kallay                                 : mrcc  (arbitrary order and MRCC methods)
   Jiri Pittner, Ondrej Demel                    : Mk-CCSD
   Frank Weinhold                                : gennbo (NPA and NBO analysis)
   Christopher J. Cramer and Donald G. Truhlar   : smd solvation model


 Your calculation uses the libint2 library for the computation of 2-el integrals
 For citations please refer to: http://libint.valeyev.net

 This ORCA versions uses:
   CBLAS   interface :  Fast vector & matrix operations
   LAPACKE interface :  Fast linear algebra routines
   SCALAPACK package :  Parallel linear algebra routines


Your calculation utilizes the atom-pairwise dispersion correction
with the zero-damping scheme (D30)
Cite in your paper:
S.Grimme, J.Antony, S.Ehrlich and H.Krieg, J.Chem.Phys., 132, (2010), 154104 
   

XCFun DFT library Copyright 2009-2010 Ulf Ekstrom and contributors.
See http://admol.org/xcfun for more information. This is free soft-
ware; see the source code for copying conditions. There is ABSOLUTELY
NO WARRANTY; not even for MERCHANTABILITY or FITNESS FOR A PARTICULAR
PURPOSE. For details see the documentation. Scientific users of this 
library should cite U. Ekstrom, L. Visscher, R. Bast, A. J. Thorvald-
sen and K. Ruud; J.Chem.Theor.Comp. 2010, DOI: 10.1021/ct100117s
XCFun Version 0.99 
Your calculation utilizes the basis: 6-31G(d)
   H-He, Li-Ne : W. J. Hehre, R. Ditchfield and J.A. Pople, J. Chem. Phys. 56, 2257 (1972).
                 Note: He and Ne are unpublished basis sets taken from the Gaussian program.
                 Note: Li and B from J. D. Dill and J. A. Pople, J. Chem. Phys. 62, 2921 (1975).
   Na - Ar     : M. M. Francl, W. J. Pietro, W. J. Hehre, J. S. Binkley, M. S. Gordon, 
                 D. J. DeFrees and J. A. Pople, J. Chem. Phys. 77, 3654 (1982).
   K - Zn      : V. A. Rassolov, J. A. Pople, M. A. Ratner, and T. L. Windus, J. Chem. Phys. 109, 1223 (1998).

================================================================================
                                        WARNINGS
                       Please study these warnings very carefully!
================================================================================

Warning: TCutStore was < 0. Adjusted to Thresh (uncritical)

INFO   : the flag for use of LIBINT has been found!

================================================================================
                                       INPUT FILE
================================================================================
NAME = initial14.inp
|  1> ! WB97X-D3 6-31G(d) VerySlowConv
|  2> ! KDIIS NOSOSCF
|  3> %base "Scan_14"
|  4> 
|  5> %scf
|  6> maxiter 999
|  7> end
|  8> 
|  9> * xyz 0 1
| 10> C         -1.846641210240    1.270892359743    0.000004830173
| 11> C         -0.191115225061    1.279650970258   -0.000004825339
| 12> H         -2.338354949992    0.549333550101   -0.611261758087
| 13> H         -2.345955012508    1.987222011401    0.611260846114
| 14> H          0.308198231231    0.563321120392   -0.611261021356
| 15> H          0.300598166570    2.001209988105    0.611261928495
| 16> **                         ****END OF INPUT****
================================================================================

                       ****************************
                       * Single Point Calculation *
                       ****************************

---------------------------------
CARTESIAN COORDINATES (ANGSTROEM)
---------------------------------
  C     -1.846641    1.270892    0.000005
  C     -0.191115    1.279651   -0.000005
  H     -2.338355    0.549334   -0.611262
  H     -2.345955    1.987222    0.611261
  H      0.308198    0.563321   -0.611261
  H      0.300598    2.001210    0.611262

----------------------------
CARTESIAN COORDINATES (A.U.)
----------------------------
  NO LB      ZA    FRAG     MASS         X           Y           Z
   0 C     6.0000    0    12.011   -3.489646    2.401639    0.000009
   1 C     6.0000    0    12.011   -0.361155    2.418190   -0.000009
   2 H     1.0000    0     1.008   -4.418850    1.038090   -1.155117
   3 H     1.0000    0     1.008   -4.433212    3.755305    1.155116
   4 H     1.0000    0     1.008    0.582410    1.064523   -1.155116
   5 H     1.0000    0     1.008    0.568048    3.781739    1.155118

--------------------------------
INTERNAL COORDINATES (ANGSTROEM)
--------------------------------
 C      0   0   0     0.000000000000     0.00000000     0.00000000
 C      1   0   0     1.655549153893     0.00000000     0.00000000
 H      1   2   0     1.065868828494   117.70364419     0.00000000
 H      1   2   3     1.065868828704   117.70364418   180.00130318
 H      2   1   3     1.065868903108   117.70362101     0.00000000
 H      2   1   3     1.065868903800   117.70362099   180.00000000

---------------------------
INTERNAL COORDINATES (A.U.)
---------------------------
 C      0   0   0     0.000000000000     0.00000000     0.00000000
 C      1   0   0     3.128534502102     0.00000000     0.00000000
 H      1   2   0     2.014200180538   117.70364419     0.00000000
 H      1   2   3     2.014200180935   117.70364418   180.00130318
 H      2   1   3     2.014200321537   117.70362101     0.00000000
 H      2   1   3     2.014200322845   117.70362099   180.00000000

---------------------
BASIS SET INFORMATION
---------------------
There are 2 groups of distinct atoms

 Group   1 Type C   : 10s4p1d contracted to 3s2p1d pattern {631/31/1}
 Group   2 Type H   : 4s contracted to 2s pattern {31}

Atom   0C    basis set group =>   1
Atom   1C    basis set group =>   1
Atom   2H    basis set group =>   2
Atom   3H    basis set group =>   2
Atom   4H    basis set group =>   2
Atom   5H    basis set group =>   2
------------------------------------------------------------------------------
                           ORCA GTO INTEGRAL CALCULATION
------------------------------------------------------------------------------

                         BASIS SET STATISTICS AND STARTUP INFO

 # of primitive gaussian shells          ...   46
 # of primitive gaussian functions       ...   70
 # of contracted shells                  ...   20
 # of contracted basis functions         ...   36
 Highest angular momentum                ...    2
 Maximum contraction depth               ...    6
 Integral package used                   ... LIBINT
 Integral threshhold            Thresh   ...  1.000e-10
 Primitive cut-off              TCut     ...  1.000e-11


------------------------------ INTEGRAL EVALUATION ----------------------------


 * One electron integrals 
 Pre-screening matrix                    ... done
 Shell pair data                         ... done (   0.000 sec)

-------------------------------------------------------------------------------
                                 ORCA SCF
-------------------------------------------------------------------------------

------------
SCF SETTINGS
------------
Hamiltonian:
 Density Functional     Method          .... DFT(GTOs)
 Exchange Functional    Exchange        .... WB97X-D3
 Correlation Functional Correlation     .... WB97X-D3
 Gradients option       PostSCFGGA      .... off
 Hybrid DFT is turned on
   Fraction HF Exchange ScalHFX         ....  0.195728
   Scaling of DF-GGA-X  ScalDFX         ....  0.000000
   Scaling of DF-GGA-C  ScalDFC         ....  1.000000
   Scaling of DF-LDA-C  ScalLDAC        ....  1.000000
   Perturbative correction              ....  0.000000
 Long-range corrected/Screened/Range-Separated Hybrid DFT is turned on
   Amount of maximum screened exact exchange              ....  0.804272
   Range separation parameter mu (erf(mu*r12)/r12)        ....  0.250000


General Settings:
 Integral files         IntName         .... Scan_14
 Hartree-Fock type      HFTyp           .... RHF
 Total Charge           Charge          ....    0
 Multiplicity           Mult            ....    1
 Number of Electrons    NEL             ....   16
 Basis Dimension        Dim             ....   36
 Nuclear Repulsion      ENuc            ....     30.1153646748 Eh

Convergence Acceleration:
 DIIS                   CNVDIIS         .... on
   Start iteration      DIISMaxIt       ....     0
   Startup error        DIISStart       ....  0.200000
   # of expansion vecs  DIISMaxEq       ....     5
   Bias factor          DIISBfac        ....   1.050
   Max. coefficient     DIISMaxC        ....  10.000
 Newton-Raphson         CNVNR           .... off
 SOSCF                  CNVSOSCF        .... off
 Level Shifting         CNVShift        .... off
 Zerner damping         CNVZerner       .... off
 Static damping         CNVDamp         .... off
 Fernandez-Rico         CNVRico         .... off

SCF Procedure:
 Maximum # iterations   MaxIter         ....   999
 SCF integral mode      SCFMode         .... Direct
   Integral package                     .... LIBINT
 Reset frequeny         DirectResetFreq ....    20
 Integral Threshold     Thresh          ....  1.000e-10 Eh
 Primitive CutOff       TCut            ....  1.000e-11 Eh

Convergence Tolerance:
 Convergence Check Mode ConvCheckMode   .... All-Criteria
 Convergence forced     ConvForced      .... 0
 Energy Change          TolE            ....  1.000e-06 Eh
 Max Density Change     TolMaxP         ....  1.000e-05
 RMS Density Change     TolRMSP         ....  1.000e-06
 DIIS Error             TolErr          ....  1.000e-06


Diagonalization of the overlap matrix:
Smallest eigenvalue                        ... 1.837e-02
Time for diagonalization                   ...    0.001 sec
Threshold for overlap eigenvalues          ... 1.000e-08
Number of eigenvalues below threshold      ... 0
Time for construction of square roots      ...    0.005 sec
Total time needed                          ...    0.006 sec

-------------------
DFT GRID GENERATION
-------------------

General Integration Accuracy     IntAcc      ...  4.340
Radial Grid Type                 RadialGrid  ... Gauss-Chebyshev
Angular Grid (max. acc.)         AngularGrid ... Lebedev-110
Angular grid pruning method      GridPruning ... 3 (G Style)
Weight generation scheme         WeightScheme... Becke
Basis function cutoff            BFCut       ...    1.0000e-10
Integration weight cutoff        WCut        ...    1.0000e-14
Grids for H and He will be reduced by one unit

# of grid points (after initial pruning)     ...   6488 (   0.0 sec)
# of grid points (after weights+screening)   ...   6302 (   0.0 sec)
nearest neighbour list constructed           ...    0.0 sec
Grid point re-assignment to atoms done       ...    0.0 sec
Grid point division into batches done        ...    0.0 sec
Reduced shell lists constructed in    0.0 sec

Total number of grid points                  ...     6302
Total number of batches                      ...      102
Average number of points per batch           ...       61
Average number of grid points per atom       ...     1050
Average number of shells per batch           ...    17.60 (88.01%)
Average number of basis functions per batch  ...    32.22 (89.51%)
Average number of large shells per batch     ...    15.98 (90.79%)
Average number of large basis fcns per batch ...    29.75 (92.32%)
Maximum spatial batch extension              ...  21.07, 20.41, 23.75 au
Average spatial batch extension              ...   5.19,  5.41,  5.74 au

Time for grid setup =    0.048 sec

------------------------------
INITIAL GUESS: MODEL POTENTIAL
------------------------------
Loading Hartree-Fock densities                     ... done
Calculating cut-offs                               ... done
Setting up the integral package                    ... done
Initializing the effective Hamiltonian             ... done
Starting the Coulomb interaction                   ... done (   0.0 sec)
Reading the grid                                   ... done
Mapping shells                                     ... done
Starting the XC term evaluation                    ... done (   0.0 sec)
  promolecular density results
     # of electrons  =     16.003474751
     EX              =    -11.281222044
     EC              =     -0.476730339
     EX+EC           =    -11.757952384
Transforming the Hamiltonian                       ... done (   0.0 sec)
Diagonalizing the Hamiltonian                      ... done (   0.0 sec)
Back transforming the eigenvectors                 ... done (   0.0 sec)
Now organizing SCF variables                       ... done
                      ------------------
                      INITIAL GUESS DONE (   0.2 sec)
                      ------------------
--------------
SCF ITERATIONS
--------------
ITER       Energy         Delta-E        Max-DP      RMS-DP      [F,P]   Gradient Norm
               ***  Starting incremental Fock matrix formation  ***
                             ****Resetting KDIIS****
                             ****Turning on KDIIS(Cayley)****
  0    -78.4439568581   0.000000000000 0.01261909  0.00117428  0.0785832   0.061401655
  1    -78.4544609154  -0.010504057215 0.01284635  0.00136301  0.0674234   0.052045820
  2    -78.4639808260  -0.009519910680 0.02103131  0.00232664  0.0546938   0.042163684
  3    -78.4754812822  -0.011500456193 0.03127932  0.00350492  0.0331754   0.025606803
  4    -78.4821545654  -0.006673283153 0.00134444  0.00011279  0.0006479   0.000528095
  5    -78.4821579360  -0.000003370631 0.00040945  0.00004445  0.0001578   0.000098922
                          ***Energy convergence achieved***
  6    -78.4821580484  -0.000000112416 0.00026676  0.00002124  0.0001039   0.000076517
Warning: badly conditioned DIIS matrix, 1 vectors out of 5 destroyed

            ***Energy convergence in two consecutive cycles with***
                    ***'reasonable' density convergence***
                       *** signaling convergence ***

                    *** KDIIS BlockDiag ( 0.000 sec) ***

               *****************************************************
               *                     SUCCESS                       *
               *           SCF CONVERGED AFTER   7 CYCLES          *
               *****************************************************

Setting up the final grid:

General Integration Accuracy     IntAcc      ...  4.670
Radial Grid Type                 RadialGrid  ... Gauss-Chebyshev
Angular Grid (max. acc.)         AngularGrid ... Lebedev-302
Angular grid pruning method      GridPruning ... 3 (G Style)
Weight generation scheme         WeightScheme... Becke
Basis function cutoff            BFCut       ...    1.0000e-10
Integration weight cutoff        WCut        ...    1.0000e-14
Grids for H and He will be reduced by one unit

# of grid points (after initial pruning)     ...  26000 (   0.0 sec)
# of grid points (after weights+screening)   ...  25292 (   0.0 sec)
nearest neighbour list constructed           ...    0.0 sec
Grid point re-assignment to atoms done       ...    0.0 sec
Grid point division into batches done        ...    0.1 sec
Reduced shell lists constructed in    0.2 sec

Total number of grid points                  ...    25292
Total number of batches                      ...      398
Average number of points per batch           ...       63
Average number of grid points per atom       ...     4215
Average number of shells per batch           ...    16.09 (80.43%)
Average number of basis functions per batch  ...    29.54 (82.07%)
Average number of large shells per batch     ...    14.19 (88.22%)
Average number of large basis fcns per batch ...    26.42 (89.41%)
Maximum spatial batch extension              ...  18.63, 20.65, 20.64 au
Average spatial batch extension              ...   3.10,  3.33,  3.27 au

Final grid set up in    0.2 sec
Final integration                            ... done (   0.2 sec)
Change in XC energy                          ...    -0.000065139
Integrated number of electrons               ...    16.000015017
Previous integrated no of electrons          ...    16.003902802

----------------
TOTAL SCF ENERGY
----------------

Total Energy       :          -78.48222325 Eh           -2135.60987 eV

Components:
Nuclear Repulsion  :           30.11536467 Eh             819.48073 eV
Electronic Energy  :         -108.59758793 Eh           -2955.09060 eV
One Electron Energy:         -163.79956496 Eh           -4457.21276 eV
Two Electron Energy:           55.20197703 Eh            1502.12216 eV

Virial components:
Potential Energy   :         -156.04731585 Eh           -4246.26334 eV
Kinetic Energy     :           77.56509260 Eh            2110.65347 eV
Virial Ratio       :            2.01182401


DFT components:
N(Alpha)           :        8.000007508608 electrons
N(Beta)            :        8.000007508608 electrons
N(Total)           :       16.000015017215 electrons
E(XC)              :       -8.177128246534 Eh       

---------------
SCF CONVERGENCE
---------------

  Last Energy change         ...   -6.6663e-08  Tolerance :   1.0000e-06
  Last MAX-Density change    ...    1.1851e-05  Tolerance :   1.0000e-05
  Last RMS-Density change    ...    1.1073e-06  Tolerance :   1.0000e-06
  Last DIIS Error            ...    5.2584e-06  Tolerance :   1.0000e-06

             **** THE GBW FILE WAS UPDATED (Scan_14.gbw) ****
             **** DENSITY FILE WAS UPDATED (Scan_14.scfp.tmp) ****
             **** ENERGY FILE WAS UPDATED (Scan_14.en.tmp) ****
----------------
ORBITAL ENERGIES
----------------

  NO   OCC          E(Eh)            E(eV) 
   0   2.0000     -10.312301      -280.6120 
   1   2.0000     -10.312224      -280.6099 
   2   2.0000      -0.818907       -22.2836 
   3   2.0000      -0.710807       -19.3420 
   4   2.0000      -0.557909       -15.1815 
   5   2.0000      -0.493430       -13.4269 
   6   2.0000      -0.455696       -12.4001 
   7   2.0000      -0.312162        -8.4944 
   8   0.0000       0.045127         1.2280 
   9   0.0000       0.212270         5.7762 
  10   0.0000       0.228050         6.2056 
  11   0.0000       0.263540         7.1713 
  12   0.0000       0.305551         8.3145 
  13   0.0000       0.325064         8.8454 
  14   0.0000       0.620036        16.8720 
  15   0.0000       0.650901        17.7119 
  16   0.0000       0.654012        17.7966 
  17   0.0000       0.671464        18.2715 
  18   0.0000       0.723534        19.6884 
  19   0.0000       0.773853        21.0576 
  20   0.0000       0.985459        26.8157 
  21   0.0000       1.005831        27.3700 
  22   0.0000       1.044266        28.4159 
  23   0.0000       1.054063        28.6825 
  24   0.0000       1.139901        31.0183 
  25   0.0000       1.240450        33.7544 
  26   0.0000       1.570299        42.7300 
  27   0.0000       1.712108        46.5888 
  28   0.0000       1.804833        49.1120 
  29   0.0000       1.823141        49.6102 
  30   0.0000       2.126723        57.8711 
  31   0.0000       2.160068        58.7784 
  32   0.0000       2.176410        59.2231 
  33   0.0000       2.317245        63.0554 
  34   0.0000       2.500685        68.0471 
  35   0.0000       2.605764        70.9064 

                    ********************************
                    * MULLIKEN POPULATION ANALYSIS *
                    ********************************

-----------------------
MULLIKEN ATOMIC CHARGES
-----------------------
   0 C :   -0.371489
   1 C :   -0.371501
   2 H :    0.185724
   3 H :    0.185770
   4 H :    0.185772
   5 H :    0.185725
Sum of atomic charges:   -0.0000000

--------------------------------
MULLIKEN REDUCED ORBITAL CHARGES
--------------------------------
  0 C s       :     3.334298  s :     3.334298
      pz      :     1.021822  p :     3.014919
      px      :     0.963207
      py      :     1.029891
      dz2     :     0.000773  d :     0.022272
      dxz     :     0.005602
      dyz     :     0.005537
      dx2y2   :     0.003151
      dxy     :     0.007209
  1 C s       :     3.334299  s :     3.334299
      pz      :     1.021826  p :     3.014930
      px      :     0.963210
      py      :     1.029894
      dz2     :     0.000773  d :     0.022272
      dxz     :     0.005602
      dyz     :     0.005537
      dx2y2   :     0.003151
      dxy     :     0.007209
  2 H s       :     0.814276  s :     0.814276
  3 H s       :     0.814230  s :     0.814230
  4 H s       :     0.814228  s :     0.814228
  5 H s       :     0.814275  s :     0.814275


                     *******************************
                     * LOEWDIN POPULATION ANALYSIS *
                     *******************************

----------------------
LOEWDIN ATOMIC CHARGES
----------------------
   0 C :   -0.288343
   1 C :   -0.288354
   2 H :    0.144185
   3 H :    0.144163
   4 H :    0.144164
   5 H :    0.144186

-------------------------------
LOEWDIN REDUCED ORBITAL CHARGES
-------------------------------
  0 C s       :     3.071801  s :     3.071801
      pz      :     1.052517  p :     3.176547
      px      :     1.050972
      py      :     1.073058
      dz2     :     0.001920  d :     0.039995
      dxz     :     0.009764
      dyz     :     0.007742
      dx2y2   :     0.008126
      dxy     :     0.012443
  1 C s       :     3.071802  s :     3.071802
      pz      :     1.052521  p :     3.176557
      px      :     1.050974
      py      :     1.073061
      dz2     :     0.001920  d :     0.039995
      dxz     :     0.009764
      dyz     :     0.007742
      dx2y2   :     0.008126
      dxy     :     0.012443
  2 H s       :     0.855815  s :     0.855815
  3 H s       :     0.855837  s :     0.855837
  4 H s       :     0.855836  s :     0.855836
  5 H s       :     0.855814  s :     0.855814


                      *****************************
                      * MAYER POPULATION ANALYSIS *
                      *****************************

  NA   - Mulliken gross atomic population
  ZA   - Total nuclear charge
  QA   - Mulliken gross atomic charge
  VA   - Mayer's total valence
  BVA  - Mayer's bonded valence
  FA   - Mayer's free valence

  ATOM       NA         ZA         QA         VA         BVA        FA
  0 C      6.3715     6.0000    -0.3715     3.8609     3.8609    -0.0000
  1 C      6.3715     6.0000    -0.3715     3.8609     3.8609    -0.0000
  2 H      0.8143     1.0000     0.1857     0.9338     0.9338     0.0000
  3 H      0.8142     1.0000     0.1858     0.9337     0.9337    -0.0000
  4 H      0.8142     1.0000     0.1858     0.9337     0.9337    -0.0000
  5 H      0.8143     1.0000     0.1857     0.9338     0.9338     0.0000

  Mayer bond orders larger than 0.1
B(  0-C ,  1-C ) :   1.9923 B(  0-C ,  2-H ) :   0.9366 B(  0-C ,  3-H ) :   0.9366 
B(  1-C ,  4-H ) :   0.9366 B(  1-C ,  5-H ) :   0.9366 

-------
TIMINGS
-------

Total SCF time: 0 days 0 hours 0 min 3 sec 

Total time                  ....       3.227 sec
Sum of individual times     ....       3.094 sec  ( 95.9%)

Fock matrix formation       ....       2.655 sec  ( 82.3%)
  XC integration            ....       0.831 sec  ( 31.3% of F)
    Basis function eval.    ....       0.334 sec  ( 40.2% of XC)
    Density eval.           ....       0.040 sec  (  4.9% of XC)
    XC-Functional eval.     ....       0.230 sec  ( 27.7% of XC)
    XC-Potential eval.      ....       0.044 sec  (  5.3% of XC)
Diagonalization             ....       0.007 sec  (  0.2%)
Density matrix formation    ....       0.000 sec  (  0.0%)
Population analysis         ....       0.009 sec  (  0.3%)
Initial guess               ....       0.145 sec  (  4.5%)
Orbital Transformation      ....       0.000 sec  (  0.0%)
Orbital Orthonormalization  ....       0.000 sec  (  0.0%)
DIIS solution               ....       0.000 sec  (  0.0%)
Grid generation             ....       0.278 sec  (  8.6%)


-------------------------------------------------------------------------------
                          DFT DISPERSION CORRECTION                            
                                                                               
                              DFTD3 V3.1  Rev 1                                
                              USING zero damping                               
-------------------------------------------------------------------------------
The omegaB97X-D3 functional is recognized. Fit by Chai et al.
Active option DFTDOPT                   ...         3   

molecular C6(AA) [au] = 294.952310 


            DFT-D V3
 parameters
 s6 scaling factor         :     1.0000 
 rs6 scaling factor        :     1.2810 
 s8 scaling factor         :     1.0000 
 rs8 scaling factor        :     1.0940 
 Damping factor alpha6     :    14.0000 
 Damping factor alpha8     :    16.0000 
 ad hoc parameters k1-k3   :    16.0000     1.3333    -4.0000 

 Edisp/kcal,au: -0.209661662130  -0.000334117091 
 E6   /kcal   :  -0.069432377 
 E8   /kcal   :  -0.140229285 
 % E8         :  66.883608332 

-------------------------   ----------------
Dispersion correction           -0.000334117
-------------------------   ----------------


-------------------------   --------------------
FINAL SINGLE POINT ENERGY       -78.482557370950
-------------------------   --------------------


                            ***************************************
                            *     ORCA property calculations      *
                            ***************************************

                                    ---------------------
                                    Active property flags
                                    ---------------------
   (+) Dipole Moment


------------------------------------------------------------------------------
                       ORCA ELECTRIC PROPERTIES CALCULATION
------------------------------------------------------------------------------

Dipole Moment Calculation                       ... on
Quadrupole Moment Calculation                   ... off
Polarizability Calculation                      ... off
GBWName                                         ... Scan_14.gbw
Electron density file                           ... Scan_14.scfp.tmp

-------------
DIPOLE MOMENT
-------------
                                X             Y             Z
Electronic contribution:     -0.00001      -0.00000       0.00000
Nuclear contribution   :     -0.00000       0.00000      -0.00000
                        -----------------------------------------
Total Dipole Moment    :     -0.00001      -0.00000      -0.00000
                        -----------------------------------------
Magnitude (a.u.)       :      0.00001
Magnitude (Debye)      :      0.00003


Timings for individual modules:

Sum of individual times         ...        3.569 sec (=   0.059 min)
GTO integral calculation        ...        0.307 sec (=   0.005 min)   8.6 %
SCF iterations                  ...        3.262 sec (=   0.054 min)  91.4 %
                             ****ORCA TERMINATED NORMALLY****
TOTAL RUN TIME: 0 days 0 hours 0 minutes 3 seconds 892 msec
