
                                 *****************
                                 * O   R   C   A *
                                 *****************

           --- An Ab Initio, DFT and Semiempirical electronic structure package ---

                  #######################################################
                  #                        -***-                        #
                  #  Department of molecular theory and spectroscopy    #
                  #              Directorship: Frank Neese              #
                  # Max Planck Institute for Chemical Energy Conversion #
                  #                  D-45470 Muelheim/Ruhr              #
                  #                       Germany                       #
                  #                                                     #
                  #                  All rights reserved                #
                  #                        -***-                        #
                  #######################################################


                         Program Version 4.0.0.2 - RELEASE -


 With contributions from (in alphabetic order):
   Daniel Aravena         : Magnetic Properties
   Michael Atanasov       : Ab Initio Ligand Field Theory
   Ute Becker             : Parallelization
   Martin Brehm           : Molecular dynamics
   Dmytro Bykov           : SCF Hessian
   Vijay G. Chilkuri      : MRCI spin determinant printing
   Dipayan Datta          : RHF DLPNO-CCSD density
   Achintya Kumar Dutta   : EOM-CC, STEOM-CC
   Dmitry Ganyushin       : Spin-Orbit,Spin-Spin,Magnetic field MRCI
   Yang Guo               : DLPNO-NEVPT2, CIM, IAO-localization
   Andreas Hansen         : Spin unrestricted coupled pair/coupled cluster methods
   Lee Huntington         : MR-EOM, pCC
   Robert Izsak           : Overlap fitted RIJCOSX, COSX-SCS-MP3, EOM
   Christian Kollmar      : KDIIS, OOCD, Brueckner-CCSD(T), CCSD density
   Simone Kossmann        : Meta GGA functionals, TD-DFT gradient, OOMP2, MP2 Hessian
   Martin Krupicka        : AUTO-CI
   Dagmar Lenk            : GEPOL surface
   Dimitrios Liakos       : Extrapolation schemes; parallel MDCI
   Dimitrios Manganas     : ROCIS; embedding schemes
   Dimitrios Pantazis     : SARC Basis sets
   Taras Petrenko         : DFT Hessian,TD-DFT gradient, ASA, ECA, R-Raman, ABS, FL, XAS/XES, NRVS
   Peter Pinski           : DLPNO-MP2
   Christoph Reimann      : Effective Core Potentials
   Marius Retegan         : Local ZFS, SOC
   Christoph Riplinger    : Optimizer, TS searches, QM/MM, DLPNO-CCSD(T), (RO)-DLPNO pert. Triples
   Tobias Risthaus        : Range-separated hybrids, TD-DFT gradient, RPA, STAB
   Michael Roemelt        : Restricted open shell CIS
   Masaaki Saitow         : Open-shell DLPNO
   Barbara Sandhoefer     : DKH picture change effects
   Kantharuban Sivalingam : CASSCF convergence, NEVPT2, FIC-MRCI
   Georgi Stoychev        : AutoAux
   Boris Wezisla          : Elementary symmetry handling
   Frank Wennmohs         : Technical directorship


 We gratefully acknowledge several colleagues who have allowed us to
 interface, adapt or use parts of their codes:
   Stefan Grimme, W. Hujo, H. Kruse,             : VdW corrections, initial TS optimization,
                  C. Bannwarth                     DFT functionals, gCP, sTDA/sTD-DF
   Ed Valeev                                     : LibInt (2-el integral package), F12 methods
   Garnet Chan, S. Sharma, J. Yang, R. Olivares  : DMRG
   Ulf Ekstrom                                   : XCFun DFT Library
   Mihaly Kallay                                 : mrcc  (arbitrary order and MRCC methods)
   Jiri Pittner, Ondrej Demel                    : Mk-CCSD
   Frank Weinhold                                : gennbo (NPA and NBO analysis)
   Christopher J. Cramer and Donald G. Truhlar   : smd solvation model


 Your calculation uses the libint2 library for the computation of 2-el integrals
 For citations please refer to: http://libint.valeyev.net

 This ORCA versions uses:
   CBLAS   interface :  Fast vector & matrix operations
   LAPACKE interface :  Fast linear algebra routines
   SCALAPACK package :  Parallel linear algebra routines


Your calculation utilizes the atom-pairwise dispersion correction
with the zero-damping scheme (D30)
Cite in your paper:
S.Grimme, J.Antony, S.Ehrlich and H.Krieg, J.Chem.Phys., 132, (2010), 154104 
   

XCFun DFT library Copyright 2009-2010 Ulf Ekstrom and contributors.
See http://admol.org/xcfun for more information. This is free soft-
ware; see the source code for copying conditions. There is ABSOLUTELY
NO WARRANTY; not even for MERCHANTABILITY or FITNESS FOR A PARTICULAR
PURPOSE. For details see the documentation. Scientific users of this 
library should cite U. Ekstrom, L. Visscher, R. Bast, A. J. Thorvald-
sen and K. Ruud; J.Chem.Theor.Comp. 2010, DOI: 10.1021/ct100117s
XCFun Version 0.99 
Your calculation utilizes the basis: 6-31G(d)
   H-He, Li-Ne : W. J. Hehre, R. Ditchfield and J.A. Pople, J. Chem. Phys. 56, 2257 (1972).
                 Note: He and Ne are unpublished basis sets taken from the Gaussian program.
                 Note: Li and B from J. D. Dill and J. A. Pople, J. Chem. Phys. 62, 2921 (1975).
   Na - Ar     : M. M. Francl, W. J. Pietro, W. J. Hehre, J. S. Binkley, M. S. Gordon, 
                 D. J. DeFrees and J. A. Pople, J. Chem. Phys. 77, 3654 (1982).
   K - Zn      : V. A. Rassolov, J. A. Pople, M. A. Ratner, and T. L. Windus, J. Chem. Phys. 109, 1223 (1998).

================================================================================
                                        WARNINGS
                       Please study these warnings very carefully!
================================================================================

Warning: TCutStore was < 0. Adjusted to Thresh (uncritical)

INFO   : the flag for use of LIBINT has been found!

================================================================================
                                       INPUT FILE
================================================================================
NAME = initial16.inp
|  1> ! WB97X-D3 6-31G(d) VerySlowConv
|  2> ! KDIIS NOSOSCF
|  3> %base "Scan_16"
|  4> 
|  5> %scf
|  6> maxiter 999
|  7> end
|  8> 
|  9> * xyz 0 1
| 10> C         -1.954586255272    1.270033620448    0.000342784047
| 11> C         -0.083170148640    1.280509802120   -0.000342887422
| 12> H         -2.409927872537    0.537870367403   -0.620858469134
| 13> H         -2.417645765084    1.998097527146    0.620656972413
| 14> H          0.379888967071    0.552445719730   -0.620656956165
| 15> H          0.372171074462    2.012672963152    0.620858556261
| 16> **                         ****END OF INPUT****
================================================================================

                       ****************************
                       * Single Point Calculation *
                       ****************************

---------------------------------
CARTESIAN COORDINATES (ANGSTROEM)
---------------------------------
  C     -1.954586    1.270034    0.000343
  C     -0.083170    1.280510   -0.000343
  H     -2.409928    0.537870   -0.620858
  H     -2.417646    1.998098    0.620657
  H      0.379889    0.552446   -0.620657
  H      0.372171    2.012673    0.620859

----------------------------
CARTESIAN COORDINATES (A.U.)
----------------------------
  NO LB      ZA    FRAG     MASS         X           Y           Z
   0 C     6.0000    0    12.011   -3.693633    2.400016    0.000648
   1 C     6.0000    0    12.011   -0.157169    2.419813   -0.000648
   2 H     1.0000    0     1.008   -4.554104    1.016428   -1.173252
   3 H     1.0000    0     1.008   -4.568688    3.775857    1.172872
   4 H     1.0000    0     1.008    0.717886    1.043971   -1.172872
   5 H     1.0000    0     1.008    0.703301    3.803401    1.173253

--------------------------------
INTERNAL COORDINATES (ANGSTROEM)
--------------------------------
 C      0   0   0     0.000000000000     0.00000000     0.00000000
 C      1   0   0     1.871445554829     0.00000000     0.00000000
 H      1   2   0     1.062680579702   115.60217034     0.00000000
 H      1   2   3     1.062680974776   115.60206605   180.09607808
 H      2   1   3     1.062680853591   115.60204556   359.90390976
 H      2   1   3     1.062680458775   115.60214986   180.00001219

---------------------------
INTERNAL COORDINATES (A.U.)
---------------------------
 C      0   0   0     0.000000000000     0.00000000     0.00000000
 C      1   0   0     3.536519573171     0.00000000     0.00000000
 H      1   2   0     2.008175263474   115.60217034     0.00000000
 H      1   2   3     2.008176010056   115.60206605   180.09607808
 H      2   1   3     2.008175781050   115.60204556   359.90390976
 H      2   1   3     2.008175034955   115.60214986   180.00001219

---------------------
BASIS SET INFORMATION
---------------------
There are 2 groups of distinct atoms

 Group   1 Type C   : 10s4p1d contracted to 3s2p1d pattern {631/31/1}
 Group   2 Type H   : 4s contracted to 2s pattern {31}

Atom   0C    basis set group =>   1
Atom   1C    basis set group =>   1
Atom   2H    basis set group =>   2
Atom   3H    basis set group =>   2
Atom   4H    basis set group =>   2
Atom   5H    basis set group =>   2
------------------------------------------------------------------------------
                           ORCA GTO INTEGRAL CALCULATION
------------------------------------------------------------------------------

                         BASIS SET STATISTICS AND STARTUP INFO

 # of primitive gaussian shells          ...   46
 # of primitive gaussian functions       ...   70
 # of contracted shells                  ...   20
 # of contracted basis functions         ...   36
 Highest angular momentum                ...    2
 Maximum contraction depth               ...    6
 Integral package used                   ... LIBINT
 Integral threshhold            Thresh   ...  1.000e-10
 Primitive cut-off              TCut     ...  1.000e-11


------------------------------ INTEGRAL EVALUATION ----------------------------


 * One electron integrals 
 Pre-screening matrix                    ... done
 Shell pair data                         ... done (   0.000 sec)

-------------------------------------------------------------------------------
                                 ORCA SCF
-------------------------------------------------------------------------------

------------
SCF SETTINGS
------------
Hamiltonian:
 Density Functional     Method          .... DFT(GTOs)
 Exchange Functional    Exchange        .... WB97X-D3
 Correlation Functional Correlation     .... WB97X-D3
 Gradients option       PostSCFGGA      .... off
 Hybrid DFT is turned on
   Fraction HF Exchange ScalHFX         ....  0.195728
   Scaling of DF-GGA-X  ScalDFX         ....  0.000000
   Scaling of DF-GGA-C  ScalDFC         ....  1.000000
   Scaling of DF-LDA-C  ScalLDAC        ....  1.000000
   Perturbative correction              ....  0.000000
 Long-range corrected/Screened/Range-Separated Hybrid DFT is turned on
   Amount of maximum screened exact exchange              ....  0.804272
   Range separation parameter mu (erf(mu*r12)/r12)        ....  0.250000


General Settings:
 Integral files         IntName         .... Scan_16
 Hartree-Fock type      HFTyp           .... RHF
 Total Charge           Charge          ....    0
 Multiplicity           Mult            ....    1
 Number of Electrons    NEL             ....   16
 Basis Dimension        Dim             ....   36
 Nuclear Repulsion      ENuc            ....     28.4146634963 Eh

Convergence Acceleration:
 DIIS                   CNVDIIS         .... on
   Start iteration      DIISMaxIt       ....     0
   Startup error        DIISStart       ....  0.200000
   # of expansion vecs  DIISMaxEq       ....     5
   Bias factor          DIISBfac        ....   1.050
   Max. coefficient     DIISMaxC        ....  10.000
 Newton-Raphson         CNVNR           .... off
 SOSCF                  CNVSOSCF        .... off
 Level Shifting         CNVShift        .... off
 Zerner damping         CNVZerner       .... off
 Static damping         CNVDamp         .... off
 Fernandez-Rico         CNVRico         .... off

SCF Procedure:
 Maximum # iterations   MaxIter         ....   999
 SCF integral mode      SCFMode         .... Direct
   Integral package                     .... LIBINT
 Reset frequeny         DirectResetFreq ....    20
 Integral Threshold     Thresh          ....  1.000e-10 Eh
 Primitive CutOff       TCut            ....  1.000e-11 Eh

Convergence Tolerance:
 Convergence Check Mode ConvCheckMode   .... All-Criteria
 Convergence forced     ConvForced      .... 0
 Energy Change          TolE            ....  1.000e-06 Eh
 Max Density Change     TolMaxP         ....  1.000e-05
 RMS Density Change     TolRMSP         ....  1.000e-06
 DIIS Error             TolErr          ....  1.000e-06


Diagonalization of the overlap matrix:
Smallest eigenvalue                        ... 2.468e-02
Time for diagonalization                   ...    0.001 sec
Threshold for overlap eigenvalues          ... 1.000e-08
Number of eigenvalues below threshold      ... 0
Time for construction of square roots      ...    0.007 sec
Total time needed                          ...    0.008 sec

-------------------
DFT GRID GENERATION
-------------------

General Integration Accuracy     IntAcc      ...  4.340
Radial Grid Type                 RadialGrid  ... Gauss-Chebyshev
Angular Grid (max. acc.)         AngularGrid ... Lebedev-110
Angular grid pruning method      GridPruning ... 3 (G Style)
Weight generation scheme         WeightScheme... Becke
Basis function cutoff            BFCut       ...    1.0000e-10
Integration weight cutoff        WCut        ...    1.0000e-14
Grids for H and He will be reduced by one unit

# of grid points (after initial pruning)     ...   6488 (   0.0 sec)
# of grid points (after weights+screening)   ...   6310 (   0.0 sec)
nearest neighbour list constructed           ...    0.0 sec
Grid point re-assignment to atoms done       ...    0.0 sec
Grid point division into batches done        ...    0.0 sec
Reduced shell lists constructed in    0.0 sec

Total number of grid points                  ...     6310
Total number of batches                      ...      100
Average number of points per batch           ...       63
Average number of grid points per atom       ...     1052
Average number of shells per batch           ...    17.38 (86.88%)
Average number of basis functions per batch  ...    31.85 (88.48%)
Average number of large shells per batch     ...    15.64 (90.03%)
Average number of large basis fcns per batch ...    28.99 (91.02%)
Maximum spatial batch extension              ...  21.48, 20.48, 23.77 au
Average spatial batch extension              ...   5.30,  5.49,  5.80 au

Time for grid setup =    0.047 sec

------------------------------
INITIAL GUESS: MODEL POTENTIAL
------------------------------
Loading Hartree-Fock densities                     ... done
Calculating cut-offs                               ... done
Setting up the integral package                    ... done
Initializing the effective Hamiltonian             ... done
Starting the Coulomb interaction                   ... done (   0.0 sec)
Reading the grid                                   ... done
Mapping shells                                     ... done
Starting the XC term evaluation                    ... done (   0.0 sec)
  promolecular density results
     # of electrons  =     16.001129691
     EX              =    -11.250100318
     EC              =     -0.469545187
     EX+EC           =    -11.719645505
Transforming the Hamiltonian                       ... done (   0.0 sec)
Diagonalizing the Hamiltonian                      ... done (   0.0 sec)
Back transforming the eigenvectors                 ... done (   0.0 sec)
Now organizing SCF variables                       ... done
                      ------------------
                      INITIAL GUESS DONE (   0.2 sec)
                      ------------------
--------------
SCF ITERATIONS
--------------
ITER       Energy         Delta-E        Max-DP      RMS-DP      [F,P]   Gradient Norm
               ***  Starting incremental Fock matrix formation  ***
                             ****Resetting KDIIS****
                             ****Turning on KDIIS(Cayley)****
  0    -78.3750834506   0.000000000000 0.01100224  0.00104521  0.0716826   0.054738394
  1    -78.3833385199  -0.008255069377 0.01162770  0.00125607  0.0618304   0.046697110
  2    -78.3911786268  -0.007840106817 0.01916197  0.00214071  0.0501484   0.037800231
  3    -78.4006455002  -0.009466873483 0.02843186  0.00322733  0.0303800   0.022904107
  4    -78.4061044183  -0.005458918106 0.00084572  0.00007411  0.0004718   0.000360806
  5    -78.4061059411  -0.000001522789 0.00017166  0.00002012  0.0000797   0.000042719
                          ***Energy convergence achieved***
  6    -78.4061059695  -0.000000028361 0.00009956  0.00000911  0.0000538   0.000037999
                           ***RMSP convergence achieved***
                           ***MAXP convergence achieved***
                    *** KDIIS BlockDiag ( 0.000 sec) ***

               *****************************************************
               *                     SUCCESS                       *
               *           SCF CONVERGED AFTER   7 CYCLES          *
               *****************************************************

Setting up the final grid:

General Integration Accuracy     IntAcc      ...  4.670
Radial Grid Type                 RadialGrid  ... Gauss-Chebyshev
Angular Grid (max. acc.)         AngularGrid ... Lebedev-302
Angular grid pruning method      GridPruning ... 3 (G Style)
Weight generation scheme         WeightScheme... Becke
Basis function cutoff            BFCut       ...    1.0000e-10
Integration weight cutoff        WCut        ...    1.0000e-14
Grids for H and He will be reduced by one unit

# of grid points (after initial pruning)     ...  26000 (   0.0 sec)
# of grid points (after weights+screening)   ...  25332 (   0.0 sec)
nearest neighbour list constructed           ...    0.0 sec
Grid point re-assignment to atoms done       ...    0.0 sec
Grid point division into batches done        ...    0.1 sec
Reduced shell lists constructed in    0.2 sec

Total number of grid points                  ...    25332
Total number of batches                      ...      400
Average number of points per batch           ...       63
Average number of grid points per atom       ...     4222
Average number of shells per batch           ...    15.88 (79.41%)
Average number of basis functions per batch  ...    29.28 (81.33%)
Average number of large shells per batch     ...    13.85 (87.20%)
Average number of large basis fcns per batch ...    25.64 (87.56%)
Maximum spatial batch extension              ...  18.97, 20.66, 20.64 au
Average spatial batch extension              ...   3.12,  3.30,  3.32 au

Final grid set up in    0.2 sec
Final integration                            ... done (   0.4 sec)
Change in XC energy                          ...    -0.000582200
Integrated number of electrons               ...    16.000008318
Previous integrated no of electrons          ...    16.002112039

----------------
TOTAL SCF ENERGY
----------------

Total Energy       :          -78.40668818 Eh           -2133.55445 eV

Components:
Nuclear Repulsion  :           28.41466350 Eh             773.20230 eV
Electronic Energy  :         -106.82135168 Eh           -2906.75676 eV
One Electron Energy:         -160.31072968 Eh           -4362.27673 eV
Two Electron Energy:           53.48937800 Eh            1455.51997 eV

Virial components:
Potential Energy   :         -155.84632618 Eh           -4240.79413 eV
Kinetic Energy     :           77.43963800 Eh            2107.23968 eV
Virial Ratio       :            2.01248779


DFT components:
N(Alpha)           :        8.000004159005 electrons
N(Beta)            :        8.000004159005 electrons
N(Total)           :       16.000008318010 electrons
E(XC)              :       -8.130828050120 Eh       

---------------
SCF CONVERGENCE
---------------

  Last Energy change         ...   -1.5057e-08  Tolerance :   1.0000e-06
  Last MAX-Density change    ...    5.9836e-06  Tolerance :   1.0000e-05
  Last RMS-Density change    ...    6.1929e-07  Tolerance :   1.0000e-06
  Last DIIS Error            ...    6.6879e-06  Tolerance :   1.0000e-06

             **** THE GBW FILE WAS UPDATED (Scan_16.gbw) ****
             **** DENSITY FILE WAS UPDATED (Scan_16.scfp.tmp) ****
             **** ENERGY FILE WAS UPDATED (Scan_16.en.tmp) ****
----------------
ORBITAL ENERGIES
----------------

  NO   OCC          E(Eh)            E(eV) 
   0   2.0000     -10.327820      -281.0343 
   1   2.0000     -10.327767      -281.0328 
   2   2.0000      -0.797936       -21.7129 
   3   2.0000      -0.723286       -19.6816 
   4   2.0000      -0.555694       -15.1212 
   5   2.0000      -0.513762       -13.9802 
   6   2.0000      -0.418785       -11.3957 
   7   2.0000      -0.290638        -7.9087 
   8   0.0000       0.016528         0.4498 
   9   0.0000       0.169382         4.6091 
  10   0.0000       0.209313         5.6957 
  11   0.0000       0.266391         7.2489 
  12   0.0000       0.274434         7.4677 
  13   0.0000       0.316421         8.6103 
  14   0.0000       0.601037        16.3550 
  15   0.0000       0.621532        16.9127 
  16   0.0000       0.664014        18.0687 
  17   0.0000       0.667080        18.1522 
  18   0.0000       0.719322        19.5737 
  19   0.0000       0.810116        22.0444 
  20   0.0000       0.983077        26.7509 
  21   0.0000       0.990422        26.9508 
  22   0.0000       1.061969        28.8976 
  23   0.0000       1.072588        29.1866 
  24   0.0000       1.121978        30.5306 
  25   0.0000       1.176551        32.0156 
  26   0.0000       1.654381        45.0180 
  27   0.0000       1.660184        45.1759 
  28   0.0000       1.737655        47.2840 
  29   0.0000       1.787091        48.6292 
  30   0.0000       2.020167        54.9715 
  31   0.0000       2.186823        59.5065 
  32   0.0000       2.216811        60.3225 
  33   0.0000       2.283583        62.1395 
  34   0.0000       2.354293        64.0636 
  35   0.0000       2.468576        67.1734 

                    ********************************
                    * MULLIKEN POPULATION ANALYSIS *
                    ********************************

-----------------------
MULLIKEN ATOMIC CHARGES
-----------------------
   0 C :   -0.388257
   1 C :   -0.388204
   2 H :    0.194093
   3 H :    0.194141
   4 H :    0.194137
   5 H :    0.194089
Sum of atomic charges:    0.0000000

--------------------------------
MULLIKEN REDUCED ORBITAL CHARGES
--------------------------------
  0 C s       :     3.375745  s :     3.375745
      pz      :     1.019688  p :     2.993269
      px      :     0.947229
      py      :     1.026352
      dz2     :     0.000459  d :     0.019243
      dxz     :     0.004517
      dyz     :     0.005853
      dx2y2   :     0.002322
      dxy     :     0.006093
  1 C s       :     3.375738  s :     3.375738
      pz      :     1.019670  p :     2.993222
      px      :     0.947214
      py      :     1.026338
      dz2     :     0.000459  d :     0.019243
      dxz     :     0.004517
      dyz     :     0.005853
      dx2y2   :     0.002322
      dxy     :     0.006093
  2 H s       :     0.805907  s :     0.805907
  3 H s       :     0.805859  s :     0.805859
  4 H s       :     0.805863  s :     0.805863
  5 H s       :     0.805911  s :     0.805911


                     *******************************
                     * LOEWDIN POPULATION ANALYSIS *
                     *******************************

----------------------
LOEWDIN ATOMIC CHARGES
----------------------
   0 C :   -0.297116
   1 C :   -0.297069
   2 H :    0.148555
   3 H :    0.148540
   4 H :    0.148537
   5 H :    0.148552

-------------------------------
LOEWDIN REDUCED ORBITAL CHARGES
-------------------------------
  0 C s       :     3.120976  s :     3.120976
      pz      :     1.054785  p :     3.144110
      px      :     1.013865
      py      :     1.075459
      dz2     :     0.001060  d :     0.032030
      dxz     :     0.007486
      dyz     :     0.008098
      dx2y2   :     0.005444
      dxy     :     0.009942
  1 C s       :     3.120972  s :     3.120972
      pz      :     1.054768  p :     3.144067
      px      :     1.013853
      py      :     1.075446
      dz2     :     0.001060  d :     0.032030
      dxz     :     0.007486
      dyz     :     0.008098
      dx2y2   :     0.005444
      dxy     :     0.009942
  2 H s       :     0.851445  s :     0.851445
  3 H s       :     0.851460  s :     0.851460
  4 H s       :     0.851463  s :     0.851463
  5 H s       :     0.851448  s :     0.851448


                      *****************************
                      * MAYER POPULATION ANALYSIS *
                      *****************************

  NA   - Mulliken gross atomic population
  ZA   - Total nuclear charge
  QA   - Mulliken gross atomic charge
  VA   - Mayer's total valence
  BVA  - Mayer's bonded valence
  FA   - Mayer's free valence

  ATOM       NA         ZA         QA         VA         BVA        FA
  0 C      6.3883     6.0000    -0.3883     3.8425     3.8425    -0.0000
  1 C      6.3882     6.0000    -0.3882     3.8425     3.8425     0.0000
  2 H      0.8059     1.0000     0.1941     0.9313     0.9313    -0.0000
  3 H      0.8059     1.0000     0.1941     0.9313     0.9313    -0.0000
  4 H      0.8059     1.0000     0.1941     0.9313     0.9313     0.0000
  5 H      0.8059     1.0000     0.1941     0.9313     0.9313     0.0000

  Mayer bond orders larger than 0.1
B(  0-C ,  1-C ) :   1.9830 B(  0-C ,  2-H ) :   0.9278 B(  0-C ,  3-H ) :   0.9277 
B(  1-C ,  4-H ) :   0.9277 B(  1-C ,  5-H ) :   0.9278 

-------
TIMINGS
-------

Total SCF time: 0 days 0 hours 0 min 3 sec 

Total time                  ....       3.271 sec
Sum of individual times     ....       3.167 sec  ( 96.8%)

Fock matrix formation       ....       2.738 sec  ( 83.7%)
  XC integration            ....       0.997 sec  ( 36.4% of F)
    Basis function eval.    ....       0.317 sec  ( 31.8% of XC)
    Density eval.           ....       0.039 sec  (  3.9% of XC)
    XC-Functional eval.     ....       0.217 sec  ( 21.8% of XC)
    XC-Potential eval.      ....       0.041 sec  (  4.1% of XC)
Diagonalization             ....       0.005 sec  (  0.1%)
Density matrix formation    ....       0.000 sec  (  0.0%)
Population analysis         ....       0.010 sec  (  0.3%)
Initial guess               ....       0.141 sec  (  4.3%)
Orbital Transformation      ....       0.000 sec  (  0.0%)
Orbital Orthonormalization  ....       0.000 sec  (  0.0%)
DIIS solution               ....       0.000 sec  (  0.0%)
Grid generation             ....       0.273 sec  (  8.3%)


-------------------------------------------------------------------------------
                          DFT DISPERSION CORRECTION                            
                                                                               
                              DFTD3 V3.1  Rev 1                                
                              USING zero damping                               
-------------------------------------------------------------------------------
The omegaB97X-D3 functional is recognized. Fit by Chai et al.
Active option DFTDOPT                   ...         3   

molecular C6(AA) [au] = 298.001159 


            DFT-D V3
 parameters
 s6 scaling factor         :     1.0000 
 rs6 scaling factor        :     1.2810 
 s8 scaling factor         :     1.0000 
 rs8 scaling factor        :     1.0940 
 Damping factor alpha6     :    14.0000 
 Damping factor alpha8     :    16.0000 
 ad hoc parameters k1-k3   :    16.0000     1.3333    -4.0000 

 Edisp/kcal,au: -0.252969551761  -0.000403132598 
 E6   /kcal   :  -0.081749857 
 E8   /kcal   :  -0.171219694 
 % E8         :  67.683914204 

-------------------------   ----------------
Dispersion correction           -0.000403133
-------------------------   ----------------


-------------------------   --------------------
FINAL SINGLE POINT ENERGY       -78.407091317230
-------------------------   --------------------


                            ***************************************
                            *     ORCA property calculations      *
                            ***************************************

                                    ---------------------
                                    Active property flags
                                    ---------------------
   (+) Dipole Moment


------------------------------------------------------------------------------
                       ORCA ELECTRIC PROPERTIES CALCULATION
------------------------------------------------------------------------------

Dipole Moment Calculation                       ... on
Quadrupole Moment Calculation                   ... off
Polarizability Calculation                      ... off
GBWName                                         ... Scan_16.gbw
Electron density file                           ... Scan_16.scfp.tmp

-------------
DIPOLE MOMENT
-------------
                                X             Y             Z
Electronic contribution:      0.00007       0.00000      -0.00000
Nuclear contribution   :     -0.00000      -0.00000       0.00000
                        -----------------------------------------
Total Dipole Moment    :      0.00007       0.00000       0.00000
                        -----------------------------------------
Magnitude (a.u.)       :      0.00007
Magnitude (Debye)      :      0.00017


Timings for individual modules:

Sum of individual times         ...        3.610 sec (=   0.060 min)
GTO integral calculation        ...        0.301 sec (=   0.005 min)   8.3 %
SCF iterations                  ...        3.309 sec (=   0.055 min)  91.7 %
                             ****ORCA TERMINATED NORMALLY****
TOTAL RUN TIME: 0 days 0 hours 0 minutes 3 seconds 951 msec
