
                                 *****************
                                 * O   R   C   A *
                                 *****************

           --- An Ab Initio, DFT and Semiempirical electronic structure package ---

                  #######################################################
                  #                        -***-                        #
                  #  Department of molecular theory and spectroscopy    #
                  #              Directorship: Frank Neese              #
                  # Max Planck Institute for Chemical Energy Conversion #
                  #                  D-45470 Muelheim/Ruhr              #
                  #                       Germany                       #
                  #                                                     #
                  #                  All rights reserved                #
                  #                        -***-                        #
                  #######################################################


                         Program Version 4.0.0.2 - RELEASE -


 With contributions from (in alphabetic order):
   Daniel Aravena         : Magnetic Properties
   Michael Atanasov       : Ab Initio Ligand Field Theory
   Ute Becker             : Parallelization
   Martin Brehm           : Molecular dynamics
   Dmytro Bykov           : SCF Hessian
   Vijay G. Chilkuri      : MRCI spin determinant printing
   Dipayan Datta          : RHF DLPNO-CCSD density
   Achintya Kumar Dutta   : EOM-CC, STEOM-CC
   Dmitry Ganyushin       : Spin-Orbit,Spin-Spin,Magnetic field MRCI
   Yang Guo               : DLPNO-NEVPT2, CIM, IAO-localization
   Andreas Hansen         : Spin unrestricted coupled pair/coupled cluster methods
   Lee Huntington         : MR-EOM, pCC
   Robert Izsak           : Overlap fitted RIJCOSX, COSX-SCS-MP3, EOM
   Christian Kollmar      : KDIIS, OOCD, Brueckner-CCSD(T), CCSD density
   Simone Kossmann        : Meta GGA functionals, TD-DFT gradient, OOMP2, MP2 Hessian
   Martin Krupicka        : AUTO-CI
   Dagmar Lenk            : GEPOL surface
   Dimitrios Liakos       : Extrapolation schemes; parallel MDCI
   Dimitrios Manganas     : ROCIS; embedding schemes
   Dimitrios Pantazis     : SARC Basis sets
   Taras Petrenko         : DFT Hessian,TD-DFT gradient, ASA, ECA, R-Raman, ABS, FL, XAS/XES, NRVS
   Peter Pinski           : DLPNO-MP2
   Christoph Reimann      : Effective Core Potentials
   Marius Retegan         : Local ZFS, SOC
   Christoph Riplinger    : Optimizer, TS searches, QM/MM, DLPNO-CCSD(T), (RO)-DLPNO pert. Triples
   Tobias Risthaus        : Range-separated hybrids, TD-DFT gradient, RPA, STAB
   Michael Roemelt        : Restricted open shell CIS
   Masaaki Saitow         : Open-shell DLPNO
   Barbara Sandhoefer     : DKH picture change effects
   Kantharuban Sivalingam : CASSCF convergence, NEVPT2, FIC-MRCI
   Georgi Stoychev        : AutoAux
   Boris Wezisla          : Elementary symmetry handling
   Frank Wennmohs         : Technical directorship


 We gratefully acknowledge several colleagues who have allowed us to
 interface, adapt or use parts of their codes:
   Stefan Grimme, W. Hujo, H. Kruse,             : VdW corrections, initial TS optimization,
                  C. Bannwarth                     DFT functionals, gCP, sTDA/sTD-DF
   Ed Valeev                                     : LibInt (2-el integral package), F12 methods
   Garnet Chan, S. Sharma, J. Yang, R. Olivares  : DMRG
   Ulf Ekstrom                                   : XCFun DFT Library
   Mihaly Kallay                                 : mrcc  (arbitrary order and MRCC methods)
   Jiri Pittner, Ondrej Demel                    : Mk-CCSD
   Frank Weinhold                                : gennbo (NPA and NBO analysis)
   Christopher J. Cramer and Donald G. Truhlar   : smd solvation model


 Your calculation uses the libint2 library for the computation of 2-el integrals
 For citations please refer to: http://libint.valeyev.net

 This ORCA versions uses:
   CBLAS   interface :  Fast vector & matrix operations
   LAPACKE interface :  Fast linear algebra routines
   SCALAPACK package :  Parallel linear algebra routines


Your calculation utilizes the atom-pairwise dispersion correction
with the zero-damping scheme (D30)
Cite in your paper:
S.Grimme, J.Antony, S.Ehrlich and H.Krieg, J.Chem.Phys., 132, (2010), 154104 
   

XCFun DFT library Copyright 2009-2010 Ulf Ekstrom and contributors.
See http://admol.org/xcfun for more information. This is free soft-
ware; see the source code for copying conditions. There is ABSOLUTELY
NO WARRANTY; not even for MERCHANTABILITY or FITNESS FOR A PARTICULAR
PURPOSE. For details see the documentation. Scientific users of this 
library should cite U. Ekstrom, L. Visscher, R. Bast, A. J. Thorvald-
sen and K. Ruud; J.Chem.Theor.Comp. 2010, DOI: 10.1021/ct100117s
XCFun Version 0.99 
Your calculation utilizes the basis: 6-31G(d)
   H-He, Li-Ne : W. J. Hehre, R. Ditchfield and J.A. Pople, J. Chem. Phys. 56, 2257 (1972).
                 Note: He and Ne are unpublished basis sets taken from the Gaussian program.
                 Note: Li and B from J. D. Dill and J. A. Pople, J. Chem. Phys. 62, 2921 (1975).
   Na - Ar     : M. M. Francl, W. J. Pietro, W. J. Hehre, J. S. Binkley, M. S. Gordon, 
                 D. J. DeFrees and J. A. Pople, J. Chem. Phys. 77, 3654 (1982).
   K - Zn      : V. A. Rassolov, J. A. Pople, M. A. Ratner, and T. L. Windus, J. Chem. Phys. 109, 1223 (1998).

================================================================================
                                        WARNINGS
                       Please study these warnings very carefully!
================================================================================

Warning: TCutStore was < 0. Adjusted to Thresh (uncritical)

INFO   : the flag for use of LIBINT has been found!

================================================================================
                                       INPUT FILE
================================================================================
NAME = initial17.inp
|  1> ! WB97X-D3 6-31G(d) VerySlowConv
|  2> ! KDIIS NOSOSCF
|  3> %base "Scan_17"
|  4> 
|  5> %scf
|  6> maxiter 999
|  7> end
|  8> 
|  9> * xyz 0 1
| 10> C         -2.006628990581    1.175270491592    0.111476998435
| 11> C         -0.031119651245    1.375234223752   -0.111431525073
| 12> H         -2.444419167811    0.575729906886   -0.652733638464
| 13> H         -2.452070588361    2.023256570954    0.577983636133
| 14> H          0.414309928774    0.527302455192   -0.578009472191
| 15> H          0.406658469224    1.974836351623    0.652714001160
| 16> **                         ****END OF INPUT****
================================================================================

                       ****************************
                       * Single Point Calculation *
                       ****************************

---------------------------------
CARTESIAN COORDINATES (ANGSTROEM)
---------------------------------
  C     -2.006629    1.175270    0.111477
  C     -0.031120    1.375234   -0.111432
  H     -2.444419    0.575730   -0.652734
  H     -2.452071    2.023257    0.577984
  H      0.414310    0.527302   -0.578009
  H      0.406658    1.974836    0.652714

----------------------------
CARTESIAN COORDINATES (A.U.)
----------------------------
  NO LB      ZA    FRAG     MASS         X           Y           Z
   0 C     6.0000    0    12.011   -3.791979    2.220939    0.210661
   1 C     6.0000    0    12.011   -0.058808    2.598816   -0.210575
   2 H     1.0000    0     1.008   -4.619283    1.087972   -1.233488
   3 H     1.0000    0     1.008   -4.633742    3.823401    1.092231
   4 H     1.0000    0     1.008    0.782932    0.996457   -1.092280
   5 H     1.0000    0     1.008    0.768473    3.731900    1.233451

--------------------------------
INTERNAL COORDINATES (ANGSTROEM)
--------------------------------
 C      0   0   0     0.000000000000     0.00000000     0.00000000
 C      1   0   0     1.998076788774     0.00000000     0.00000000
 H      1   2   0     1.065423413267   112.49243301     0.00000000
 H      1   2   3     1.065423413879   112.49243268   210.36991678
 H      2   1   3     1.065406389894   112.49289957   329.63522839
 H      2   1   3     1.065406391839   112.49289948   179.99485699

---------------------------
INTERNAL COORDINATES (A.U.)
---------------------------
 C      0   0   0     0.000000000000     0.00000000     0.00000000
 C      1   0   0     3.775817925327     0.00000000     0.00000000
 H      1   2   0     2.013358467743   112.49243301     0.00000000
 H      1   2   3     2.013358468898   112.49243268   210.36991678
 H      2   1   3     2.013326298229   112.49289957   329.63522839
 H      2   1   3     2.013326301904   112.49289948   179.99485699

---------------------
BASIS SET INFORMATION
---------------------
There are 2 groups of distinct atoms

 Group   1 Type C   : 10s4p1d contracted to 3s2p1d pattern {631/31/1}
 Group   2 Type H   : 4s contracted to 2s pattern {31}

Atom   0C    basis set group =>   1
Atom   1C    basis set group =>   1
Atom   2H    basis set group =>   2
Atom   3H    basis set group =>   2
Atom   4H    basis set group =>   2
Atom   5H    basis set group =>   2
------------------------------------------------------------------------------
                           ORCA GTO INTEGRAL CALCULATION
------------------------------------------------------------------------------

                         BASIS SET STATISTICS AND STARTUP INFO

 # of primitive gaussian shells          ...   46
 # of primitive gaussian functions       ...   70
 # of contracted shells                  ...   20
 # of contracted basis functions         ...   36
 Highest angular momentum                ...    2
 Maximum contraction depth               ...    6
 Integral package used                   ... LIBINT
 Integral threshhold            Thresh   ...  1.000e-10
 Primitive cut-off              TCut     ...  1.000e-11


------------------------------ INTEGRAL EVALUATION ----------------------------


 * One electron integrals 
 Pre-screening matrix                    ... done
 Shell pair data                         ... done (   0.000 sec)

-------------------------------------------------------------------------------
                                 ORCA SCF
-------------------------------------------------------------------------------

------------
SCF SETTINGS
------------
Hamiltonian:
 Density Functional     Method          .... DFT(GTOs)
 Exchange Functional    Exchange        .... WB97X-D3
 Correlation Functional Correlation     .... WB97X-D3
 Gradients option       PostSCFGGA      .... off
 Hybrid DFT is turned on
   Fraction HF Exchange ScalHFX         ....  0.195728
   Scaling of DF-GGA-X  ScalDFX         ....  0.000000
   Scaling of DF-GGA-C  ScalDFC         ....  1.000000
   Scaling of DF-LDA-C  ScalLDAC        ....  1.000000
   Perturbative correction              ....  0.000000
 Long-range corrected/Screened/Range-Separated Hybrid DFT is turned on
   Amount of maximum screened exact exchange              ....  0.804272
   Range separation parameter mu (erf(mu*r12)/r12)        ....  0.250000


General Settings:
 Integral files         IntName         .... Scan_17
 Hartree-Fock type      HFTyp           .... RHF
 Total Charge           Charge          ....    0
 Multiplicity           Mult            ....    1
 Number of Electrons    NEL             ....   16
 Basis Dimension        Dim             ....   36
 Nuclear Repulsion      ENuc            ....     27.5762021989 Eh

Convergence Acceleration:
 DIIS                   CNVDIIS         .... on
   Start iteration      DIISMaxIt       ....     0
   Startup error        DIISStart       ....  0.200000
   # of expansion vecs  DIISMaxEq       ....     5
   Bias factor          DIISBfac        ....   1.050
   Max. coefficient     DIISMaxC        ....  10.000
 Newton-Raphson         CNVNR           .... off
 SOSCF                  CNVSOSCF        .... off
 Level Shifting         CNVShift        .... off
 Zerner damping         CNVZerner       .... off
 Static damping         CNVDamp         .... off
 Fernandez-Rico         CNVRico         .... off

SCF Procedure:
 Maximum # iterations   MaxIter         ....   999
 SCF integral mode      SCFMode         .... Direct
   Integral package                     .... LIBINT
 Reset frequeny         DirectResetFreq ....    20
 Integral Threshold     Thresh          ....  1.000e-10 Eh
 Primitive CutOff       TCut            ....  1.000e-11 Eh

Convergence Tolerance:
 Convergence Check Mode ConvCheckMode   .... All-Criteria
 Convergence forced     ConvForced      .... 0
 Energy Change          TolE            ....  1.000e-06 Eh
 Max Density Change     TolMaxP         ....  1.000e-05
 RMS Density Change     TolRMSP         ....  1.000e-06
 DIIS Error             TolErr          ....  1.000e-06


Diagonalization of the overlap matrix:
Smallest eigenvalue                        ... 2.642e-02
Time for diagonalization                   ...    0.001 sec
Threshold for overlap eigenvalues          ... 1.000e-08
Number of eigenvalues below threshold      ... 0
Time for construction of square roots      ...    0.005 sec
Total time needed                          ...    0.006 sec

-------------------
DFT GRID GENERATION
-------------------

General Integration Accuracy     IntAcc      ...  4.340
Radial Grid Type                 RadialGrid  ... Gauss-Chebyshev
Angular Grid (max. acc.)         AngularGrid ... Lebedev-110
Angular grid pruning method      GridPruning ... 3 (G Style)
Weight generation scheme         WeightScheme... Becke
Basis function cutoff            BFCut       ...    1.0000e-10
Integration weight cutoff        WCut        ...    1.0000e-14
Grids for H and He will be reduced by one unit

# of grid points (after initial pruning)     ...   6488 (   0.0 sec)
# of grid points (after weights+screening)   ...   6320 (   0.0 sec)
nearest neighbour list constructed           ...    0.0 sec
Grid point re-assignment to atoms done       ...    0.0 sec
Grid point division into batches done        ...    0.0 sec
Reduced shell lists constructed in    0.0 sec

Total number of grid points                  ...     6320
Total number of batches                      ...      102
Average number of points per batch           ...       61
Average number of grid points per atom       ...     1053
Average number of shells per batch           ...    17.39 (86.94%)
Average number of basis functions per batch  ...    31.89 (88.59%)
Average number of large shells per batch     ...    15.31 (88.05%)
Average number of large basis fcns per batch ...    28.40 (89.04%)
Maximum spatial batch extension              ...  21.68, 22.36, 23.60 au
Average spatial batch extension              ...   5.21,  5.34,  5.63 au

Time for grid setup =    0.049 sec

------------------------------
INITIAL GUESS: MODEL POTENTIAL
------------------------------
Loading Hartree-Fock densities                     ... done
Calculating cut-offs                               ... done
Setting up the integral package                    ... done
Initializing the effective Hamiltonian             ... done
Starting the Coulomb interaction                   ... done (   0.0 sec)
Reading the grid                                   ... done
Mapping shells                                     ... done
Starting the XC term evaluation                    ... done (   0.0 sec)
  promolecular density results
     # of electrons  =     15.999102267
     EX              =    -11.235893632
     EC              =     -0.466044583
     EX+EC           =    -11.701938214
Transforming the Hamiltonian                       ... done (   0.0 sec)
Diagonalizing the Hamiltonian                      ... done (   0.0 sec)
Back transforming the eigenvectors                 ... done (   0.0 sec)
Now organizing SCF variables                       ... done
                      ------------------
                      INITIAL GUESS DONE (   0.2 sec)
                      ------------------
--------------
SCF ITERATIONS
--------------
ITER       Energy         Delta-E        Max-DP      RMS-DP      [F,P]   Gradient Norm
               ***  Starting incremental Fock matrix formation  ***
                             ****Resetting KDIIS****
                             ****Turning on KDIIS(Cayley)****
  0    -78.3354501381   0.000000000000 0.01018488  0.00099071  0.0647171   0.051640002
  1    -78.3428336804  -0.007383542300 0.01084361  0.00121098  0.0558911   0.044172671
  2    -78.3500294340  -0.007195753628 0.01804824  0.00208945  0.0453477   0.035777672
  3    -78.3588274032  -0.008797969191 0.02704176  0.00321493  0.0273841   0.021629437
  4    -78.3639238492  -0.005096446029 0.00154521  0.00013929  0.0003973   0.000341950
  5    -78.3639271360  -0.000003286816 0.00033070  0.00003572  0.0003965   0.000294088
                          ***Energy convergence achieved***
  6    -78.3639279680  -0.000000831993 0.00011753  0.00001660  0.0001115   0.000107973

            ***Energy convergence in two consecutive cycles with***
                    ***'reasonable' density convergence***
                       *** signaling convergence ***

                    *** KDIIS BlockDiag ( 0.000 sec) ***

               *****************************************************
               *                     SUCCESS                       *
               *           SCF CONVERGED AFTER   7 CYCLES          *
               *****************************************************

Setting up the final grid:

General Integration Accuracy     IntAcc      ...  4.670
Radial Grid Type                 RadialGrid  ... Gauss-Chebyshev
Angular Grid (max. acc.)         AngularGrid ... Lebedev-302
Angular grid pruning method      GridPruning ... 3 (G Style)
Weight generation scheme         WeightScheme... Becke
Basis function cutoff            BFCut       ...    1.0000e-10
Integration weight cutoff        WCut        ...    1.0000e-14
Grids for H and He will be reduced by one unit

# of grid points (after initial pruning)     ...  26000 (   0.0 sec)
# of grid points (after weights+screening)   ...  25304 (   0.0 sec)
nearest neighbour list constructed           ...    0.0 sec
Grid point re-assignment to atoms done       ...    0.0 sec
Grid point division into batches done        ...    0.1 sec
Reduced shell lists constructed in    0.2 sec

Total number of grid points                  ...    25304
Total number of batches                      ...      398
Average number of points per batch           ...       63
Average number of grid points per atom       ...     4217
Average number of shells per batch           ...    15.77 (78.83%)
Average number of basis functions per batch  ...    29.10 (80.82%)
Average number of large shells per batch     ...    13.59 (86.19%)
Average number of large basis fcns per batch ...    25.05 (86.11%)
Maximum spatial batch extension              ...  21.22, 21.01, 20.64 au
Average spatial batch extension              ...   3.20,  3.38,  3.33 au

Final grid set up in    0.2 sec
Final integration                            ... done (   0.2 sec)
Change in XC energy                          ...    -0.000402560
Integrated number of electrons               ...    16.000021362
Previous integrated no of electrons          ...    16.001323209

----------------
TOTAL SCF ENERGY
----------------

Total Energy       :          -78.36433066 Eh           -2132.40185 eV

Components:
Nuclear Repulsion  :           27.57620220 Eh             750.38661 eV
Electronic Energy  :         -105.94053286 Eh           -2882.78846 eV
One Electron Energy:         -158.58211741 Eh           -4315.23880 eV
Two Electron Energy:           52.64158455 Eh            1432.45034 eV

Virial components:
Potential Energy   :         -155.81439738 Eh           -4239.92531 eV
Kinetic Energy     :           77.45006672 Eh            2107.52346 eV
Virial Ratio       :            2.01180456


DFT components:
N(Alpha)           :        8.000010680771 electrons
N(Beta)            :        8.000010680771 electrons
N(Total)           :       16.000021361542 electrons
E(XC)              :       -8.114288557809 Eh       

---------------
SCF CONVERGENCE
---------------

  Last Energy change         ...   -1.3451e-07  Tolerance :   1.0000e-06
  Last MAX-Density change    ...    4.7666e-05  Tolerance :   1.0000e-05
  Last RMS-Density change    ...    7.3428e-06  Tolerance :   1.0000e-06
  Last DIIS Error            ...    2.4714e-05  Tolerance :   1.0000e-06

             **** THE GBW FILE WAS UPDATED (Scan_17.gbw) ****
             **** DENSITY FILE WAS UPDATED (Scan_17.scfp.tmp) ****
             **** ENERGY FILE WAS UPDATED (Scan_17.en.tmp) ****
----------------
ORBITAL ENERGIES
----------------

  NO   OCC          E(Eh)            E(eV) 
   0   2.0000     -10.334357      -281.2121 
   1   2.0000     -10.334314      -281.2110 
   2   2.0000      -0.791697       -21.5432 
   3   2.0000      -0.730676       -19.8827 
   4   2.0000      -0.549863       -14.9625 
   5   2.0000      -0.515920       -14.0389 
   6   2.0000      -0.397864       -10.8264 
   7   2.0000      -0.289357        -7.8738 
   8   0.0000      -0.006731        -0.1832 
   9   0.0000       0.136641         3.7182 
  10   0.0000       0.210199         5.7198 
  11   0.0000       0.256786         6.9875 
  12   0.0000       0.279966         7.6183 
  13   0.0000       0.304000         8.2723 
  14   0.0000       0.594311        16.1720 
  15   0.0000       0.621133        16.9019 
  16   0.0000       0.655714        17.8429 
  17   0.0000       0.685255        18.6467 
  18   0.0000       0.718899        19.5622 
  19   0.0000       0.831439        22.6246 
  20   0.0000       0.903449        24.5841 
  21   0.0000       0.994717        27.0676 
  22   0.0000       1.057277        28.7700 
  23   0.0000       1.068114        29.0649 
  24   0.0000       1.071734        29.1634 
  25   0.0000       1.118425        30.4339 
  26   0.0000       1.647137        44.8209 
  27   0.0000       1.703457        46.3534 
  28   0.0000       1.748887        47.5896 
  29   0.0000       1.831582        49.8399 
  30   0.0000       1.940165        52.7946 
  31   0.0000       2.201867        59.9159 
  32   0.0000       2.205906        60.0258 
  33   0.0000       2.264912        61.6314 
  34   0.0000       2.326064        63.2954 
  35   0.0000       2.388916        65.0057 

                    ********************************
                    * MULLIKEN POPULATION ANALYSIS *
                    ********************************

-----------------------
MULLIKEN ATOMIC CHARGES
-----------------------
   0 C :   -0.388293
   1 C :   -0.388312
   2 H :    0.193890
   3 H :    0.194403
   4 H :    0.194412
   5 H :    0.193899
Sum of atomic charges:    0.0000000

--------------------------------
MULLIKEN REDUCED ORBITAL CHARGES
--------------------------------
  0 C s       :     3.430590  s :     3.430590
      pz      :     0.989185  p :     2.938447
      px      :     0.947407
      py      :     1.001855
      dz2     :     0.001585  d :     0.019256
      dxz     :     0.004583
      dyz     :     0.005022
      dx2y2   :     0.002057
      dxy     :     0.006008
  1 C s       :     3.430581  s :     3.430581
      pz      :     0.989172  p :     2.938476
      px      :     0.947457
      py      :     1.001848
      dz2     :     0.001584  d :     0.019255
      dxz     :     0.004583
      dyz     :     0.005023
      dx2y2   :     0.002057
      dxy     :     0.006008
  2 H s       :     0.806110  s :     0.806110
  3 H s       :     0.805597  s :     0.805597
  4 H s       :     0.805588  s :     0.805588
  5 H s       :     0.806101  s :     0.806101


                     *******************************
                     * LOEWDIN POPULATION ANALYSIS *
                     *******************************

----------------------
LOEWDIN ATOMIC CHARGES
----------------------
   0 C :   -0.293365
   1 C :   -0.293369
   2 H :    0.146573
   3 H :    0.146788
   4 H :    0.146793
   5 H :    0.146579

-------------------------------
LOEWDIN REDUCED ORBITAL CHARGES
-------------------------------
  0 C s       :     3.173767  s :     3.173767
      pz      :     1.030347  p :     3.088676
      px      :     1.001882
      py      :     1.056446
      dz2     :     0.002717  d :     0.030922
      dxz     :     0.007205
      dyz     :     0.007045
      dx2y2   :     0.004546
      dxy     :     0.009410
  1 C s       :     3.173755  s :     3.173755
      pz      :     1.030331  p :     3.088692
      px      :     1.001925
      py      :     1.056436
      dz2     :     0.002715  d :     0.030921
      dxz     :     0.007205
      dyz     :     0.007046
      dx2y2   :     0.004546
      dxy     :     0.009410
  2 H s       :     0.853427  s :     0.853427
  3 H s       :     0.853212  s :     0.853212
  4 H s       :     0.853207  s :     0.853207
  5 H s       :     0.853421  s :     0.853421


                      *****************************
                      * MAYER POPULATION ANALYSIS *
                      *****************************

  NA   - Mulliken gross atomic population
  ZA   - Total nuclear charge
  QA   - Mulliken gross atomic charge
  VA   - Mayer's total valence
  BVA  - Mayer's bonded valence
  FA   - Mayer's free valence

  ATOM       NA         ZA         QA         VA         BVA        FA
  0 C      6.3883     6.0000    -0.3883     3.7334     3.7334     0.0000
  1 C      6.3883     6.0000    -0.3883     3.7334     3.7334    -0.0000
  2 H      0.8061     1.0000     0.1939     0.9290     0.9290     0.0000
  3 H      0.8056     1.0000     0.1944     0.9288     0.9288     0.0000
  4 H      0.8056     1.0000     0.1944     0.9288     0.9288    -0.0000
  5 H      0.8061     1.0000     0.1939     0.9290     0.9290    -0.0000

  Mayer bond orders larger than 0.1
B(  0-C ,  1-C ) :   1.8775 B(  0-C ,  2-H ) :   0.9228 B(  0-C ,  3-H ) :   0.9225 
B(  1-C ,  4-H ) :   0.9225 B(  1-C ,  5-H ) :   0.9228 

-------
TIMINGS
-------

Total SCF time: 0 days 0 hours 0 min 3 sec 

Total time                  ....       3.094 sec
Sum of individual times     ....       2.979 sec  ( 96.3%)

Fock matrix formation       ....       2.546 sec  ( 82.3%)
  XC integration            ....       0.802 sec  ( 31.5% of F)
    Basis function eval.    ....       0.320 sec  ( 39.9% of XC)
    Density eval.           ....       0.039 sec  (  4.9% of XC)
    XC-Functional eval.     ....       0.220 sec  ( 27.5% of XC)
    XC-Potential eval.      ....       0.040 sec  (  5.0% of XC)
Diagonalization             ....       0.005 sec  (  0.2%)
Density matrix formation    ....       0.000 sec  (  0.0%)
Population analysis         ....       0.012 sec  (  0.4%)
Initial guess               ....       0.142 sec  (  4.6%)
Orbital Transformation      ....       0.000 sec  (  0.0%)
Orbital Orthonormalization  ....       0.000 sec  (  0.0%)
DIIS solution               ....       0.000 sec  (  0.0%)
Grid generation             ....       0.275 sec  (  8.9%)


-------------------------------------------------------------------------------
                          DFT DISPERSION CORRECTION                            
                                                                               
                              DFTD3 V3.1  Rev 1                                
                              USING zero damping                               
-------------------------------------------------------------------------------
The omegaB97X-D3 functional is recognized. Fit by Chai et al.
Active option DFTDOPT                   ...         3   

molecular C6(AA) [au] = 307.227348 


            DFT-D V3
 parameters
 s6 scaling factor         :     1.0000 
 rs6 scaling factor        :     1.2810 
 s8 scaling factor         :     1.0000 
 rs8 scaling factor        :     1.0940 
 Damping factor alpha6     :    14.0000 
 Damping factor alpha8     :    16.0000 
 ad hoc parameters k1-k3   :    16.0000     1.3333    -4.0000 

 Edisp/kcal,au: -0.279257853609  -0.000445025670 
 E6   /kcal   :  -0.088944348 
 E8   /kcal   :  -0.190313505 
 % E8         :  68.149741529 

-------------------------   ----------------
Dispersion correction           -0.000445026
-------------------------   ----------------


-------------------------   --------------------
FINAL SINGLE POINT ENERGY       -78.364775688005
-------------------------   --------------------


                            ***************************************
                            *     ORCA property calculations      *
                            ***************************************

                                    ---------------------
                                    Active property flags
                                    ---------------------
   (+) Dipole Moment


------------------------------------------------------------------------------
                       ORCA ELECTRIC PROPERTIES CALCULATION
------------------------------------------------------------------------------

Dipole Moment Calculation                       ... on
Quadrupole Moment Calculation                   ... off
Polarizability Calculation                      ... off
GBWName                                         ... Scan_17.gbw
Electron density file                           ... Scan_17.scfp.tmp

-------------
DIPOLE MOMENT
-------------
                                X             Y             Z
Electronic contribution:      0.00004      -0.00006       0.00007
Nuclear contribution   :     -0.00002       0.00009      -0.00011
                        -----------------------------------------
Total Dipole Moment    :      0.00003       0.00004      -0.00004
                        -----------------------------------------
Magnitude (a.u.)       :      0.00006
Magnitude (Debye)      :      0.00016


Timings for individual modules:

Sum of individual times         ...        3.429 sec (=   0.057 min)
GTO integral calculation        ...        0.302 sec (=   0.005 min)   8.8 %
SCF iterations                  ...        3.127 sec (=   0.052 min)  91.2 %
                             ****ORCA TERMINATED NORMALLY****
TOTAL RUN TIME: 0 days 0 hours 0 minutes 3 seconds 763 msec
