
                                 *****************
                                 * O   R   C   A *
                                 *****************

           --- An Ab Initio, DFT and Semiempirical electronic structure package ---

                  #######################################################
                  #                        -***-                        #
                  #  Department of molecular theory and spectroscopy    #
                  #              Directorship: Frank Neese              #
                  # Max Planck Institute for Chemical Energy Conversion #
                  #                  D-45470 Muelheim/Ruhr              #
                  #                       Germany                       #
                  #                                                     #
                  #                  All rights reserved                #
                  #                        -***-                        #
                  #######################################################


                         Program Version 4.0.0.2 - RELEASE -


 With contributions from (in alphabetic order):
   Daniel Aravena         : Magnetic Properties
   Michael Atanasov       : Ab Initio Ligand Field Theory
   Ute Becker             : Parallelization
   Martin Brehm           : Molecular dynamics
   Dmytro Bykov           : SCF Hessian
   Vijay G. Chilkuri      : MRCI spin determinant printing
   Dipayan Datta          : RHF DLPNO-CCSD density
   Achintya Kumar Dutta   : EOM-CC, STEOM-CC
   Dmitry Ganyushin       : Spin-Orbit,Spin-Spin,Magnetic field MRCI
   Yang Guo               : DLPNO-NEVPT2, CIM, IAO-localization
   Andreas Hansen         : Spin unrestricted coupled pair/coupled cluster methods
   Lee Huntington         : MR-EOM, pCC
   Robert Izsak           : Overlap fitted RIJCOSX, COSX-SCS-MP3, EOM
   Christian Kollmar      : KDIIS, OOCD, Brueckner-CCSD(T), CCSD density
   Simone Kossmann        : Meta GGA functionals, TD-DFT gradient, OOMP2, MP2 Hessian
   Martin Krupicka        : AUTO-CI
   Dagmar Lenk            : GEPOL surface
   Dimitrios Liakos       : Extrapolation schemes; parallel MDCI
   Dimitrios Manganas     : ROCIS; embedding schemes
   Dimitrios Pantazis     : SARC Basis sets
   Taras Petrenko         : DFT Hessian,TD-DFT gradient, ASA, ECA, R-Raman, ABS, FL, XAS/XES, NRVS
   Peter Pinski           : DLPNO-MP2
   Christoph Reimann      : Effective Core Potentials
   Marius Retegan         : Local ZFS, SOC
   Christoph Riplinger    : Optimizer, TS searches, QM/MM, DLPNO-CCSD(T), (RO)-DLPNO pert. Triples
   Tobias Risthaus        : Range-separated hybrids, TD-DFT gradient, RPA, STAB
   Michael Roemelt        : Restricted open shell CIS
   Masaaki Saitow         : Open-shell DLPNO
   Barbara Sandhoefer     : DKH picture change effects
   Kantharuban Sivalingam : CASSCF convergence, NEVPT2, FIC-MRCI
   Georgi Stoychev        : AutoAux
   Boris Wezisla          : Elementary symmetry handling
   Frank Wennmohs         : Technical directorship


 We gratefully acknowledge several colleagues who have allowed us to
 interface, adapt or use parts of their codes:
   Stefan Grimme, W. Hujo, H. Kruse,             : VdW corrections, initial TS optimization,
                  C. Bannwarth                     DFT functionals, gCP, sTDA/sTD-DF
   Ed Valeev                                     : LibInt (2-el integral package), F12 methods
   Garnet Chan, S. Sharma, J. Yang, R. Olivares  : DMRG
   Ulf Ekstrom                                   : XCFun DFT Library
   Mihaly Kallay                                 : mrcc  (arbitrary order and MRCC methods)
   Jiri Pittner, Ondrej Demel                    : Mk-CCSD
   Frank Weinhold                                : gennbo (NPA and NBO analysis)
   Christopher J. Cramer and Donald G. Truhlar   : smd solvation model


 Your calculation uses the libint2 library for the computation of 2-el integrals
 For citations please refer to: http://libint.valeyev.net

 This ORCA versions uses:
   CBLAS   interface :  Fast vector & matrix operations
   LAPACKE interface :  Fast linear algebra routines
   SCALAPACK package :  Parallel linear algebra routines


Your calculation utilizes the atom-pairwise dispersion correction
with the zero-damping scheme (D30)
Cite in your paper:
S.Grimme, J.Antony, S.Ehrlich and H.Krieg, J.Chem.Phys., 132, (2010), 154104 
   

XCFun DFT library Copyright 2009-2010 Ulf Ekstrom and contributors.
See http://admol.org/xcfun for more information. This is free soft-
ware; see the source code for copying conditions. There is ABSOLUTELY
NO WARRANTY; not even for MERCHANTABILITY or FITNESS FOR A PARTICULAR
PURPOSE. For details see the documentation. Scientific users of this 
library should cite U. Ekstrom, L. Visscher, R. Bast, A. J. Thorvald-
sen and K. Ruud; J.Chem.Theor.Comp. 2010, DOI: 10.1021/ct100117s
XCFun Version 0.99 
Your calculation utilizes the basis: 6-31G(d)
   H-He, Li-Ne : W. J. Hehre, R. Ditchfield and J.A. Pople, J. Chem. Phys. 56, 2257 (1972).
                 Note: He and Ne are unpublished basis sets taken from the Gaussian program.
                 Note: Li and B from J. D. Dill and J. A. Pople, J. Chem. Phys. 62, 2921 (1975).
   Na - Ar     : M. M. Francl, W. J. Pietro, W. J. Hehre, J. S. Binkley, M. S. Gordon, 
                 D. J. DeFrees and J. A. Pople, J. Chem. Phys. 77, 3654 (1982).
   K - Zn      : V. A. Rassolov, J. A. Pople, M. A. Ratner, and T. L. Windus, J. Chem. Phys. 109, 1223 (1998).

================================================================================
                                        WARNINGS
                       Please study these warnings very carefully!
================================================================================

Warning: TCutStore was < 0. Adjusted to Thresh (uncritical)

INFO   : the flag for use of LIBINT has been found!

================================================================================
                                       INPUT FILE
================================================================================
NAME = initial18.inp
|  1> ! WB97X-D3 6-31G(d) VerySlowConv
|  2> ! KDIIS NOSOSCF
|  3> %base "Scan_18"
|  4> 
|  5> %scf
|  6> maxiter 999
|  7> end
|  8> 
|  9> * xyz 0 1
| 10> C         -2.061714537846    1.149592614236    0.141335952488
| 11> C          0.023958024028    1.400950806373   -0.141336050526
| 12> H         -2.481702215084    0.584425357300   -0.660920840667
| 13> H         -2.489341787430    2.029709763375    0.567890028189
| 14> H          0.451585043087    0.520833493236   -0.567890023515
| 15> H          0.443945473246    1.966117965480    0.660920934031
| 16> **                         ****END OF INPUT****
================================================================================

                       ****************************
                       * Single Point Calculation *
                       ****************************

---------------------------------
CARTESIAN COORDINATES (ANGSTROEM)
---------------------------------
  C     -2.061715    1.149593    0.141336
  C      0.023958    1.400951   -0.141336
  H     -2.481702    0.584425   -0.660921
  H     -2.489342    2.029710    0.567890
  H      0.451585    0.520833   -0.567890
  H      0.443945    1.966118    0.660921

----------------------------
CARTESIAN COORDINATES (A.U.)
----------------------------
  NO LB      ZA    FRAG     MASS         X           Y           Z
   0 C     6.0000    0    12.011   -3.896076    2.172415    0.267086
   1 C     6.0000    0    12.011    0.045274    2.647413   -0.267086
   2 H     1.0000    0     1.008   -4.689738    1.104404   -1.248959
   3 H     1.0000    0     1.008   -4.704174    3.835596    1.073157
   4 H     1.0000    0     1.008    0.853372    0.984233   -1.073157
   5 H     1.0000    0     1.008    0.838935    3.715425    1.248960

--------------------------------
INTERNAL COORDINATES (ANGSTROEM)
--------------------------------
 C      0   0   0     0.000000000000     0.00000000     0.00000000
 C      1   0   0     2.119696779588     0.00000000     0.00000000
 H      1   2   0     1.067436011903   110.46883755     0.00000000
 H      1   2   3     1.067436012271   110.46883756   216.93726750
 H      2   1   3     1.067436014094   110.46882263   323.06272591
 H      2   1   3     1.067436014244   110.46882252   180.00000810

---------------------------
INTERNAL COORDINATES (A.U.)
---------------------------
 C      0   0   0     0.000000000000     0.00000000     0.00000000
 C      1   0   0     4.005646400376     0.00000000     0.00000000
 H      1   2   0     2.017161727982   110.46883755     0.00000000
 H      1   2   3     2.017161728677   110.46883756   216.93726750
 H      2   1   3     2.017161732123   110.46882263   323.06272591
 H      2   1   3     2.017161732405   110.46882252   180.00000810

---------------------
BASIS SET INFORMATION
---------------------
There are 2 groups of distinct atoms

 Group   1 Type C   : 10s4p1d contracted to 3s2p1d pattern {631/31/1}
 Group   2 Type H   : 4s contracted to 2s pattern {31}

Atom   0C    basis set group =>   1
Atom   1C    basis set group =>   1
Atom   2H    basis set group =>   2
Atom   3H    basis set group =>   2
Atom   4H    basis set group =>   2
Atom   5H    basis set group =>   2
------------------------------------------------------------------------------
                           ORCA GTO INTEGRAL CALCULATION
------------------------------------------------------------------------------

                         BASIS SET STATISTICS AND STARTUP INFO

 # of primitive gaussian shells          ...   46
 # of primitive gaussian functions       ...   70
 # of contracted shells                  ...   20
 # of contracted basis functions         ...   36
 Highest angular momentum                ...    2
 Maximum contraction depth               ...    6
 Integral package used                   ... LIBINT
 Integral threshhold            Thresh   ...  1.000e-10
 Primitive cut-off              TCut     ...  1.000e-11


------------------------------ INTEGRAL EVALUATION ----------------------------


 * One electron integrals 
 Pre-screening matrix                    ... done
 Shell pair data                         ... done (   0.000 sec)

-------------------------------------------------------------------------------
                                 ORCA SCF
-------------------------------------------------------------------------------

------------
SCF SETTINGS
------------
Hamiltonian:
 Density Functional     Method          .... DFT(GTOs)
 Exchange Functional    Exchange        .... WB97X-D3
 Correlation Functional Correlation     .... WB97X-D3
 Gradients option       PostSCFGGA      .... off
 Hybrid DFT is turned on
   Fraction HF Exchange ScalHFX         ....  0.195728
   Scaling of DF-GGA-X  ScalDFX         ....  0.000000
   Scaling of DF-GGA-C  ScalDFC         ....  1.000000
   Scaling of DF-LDA-C  ScalLDAC        ....  1.000000
   Perturbative correction              ....  0.000000
 Long-range corrected/Screened/Range-Separated Hybrid DFT is turned on
   Amount of maximum screened exact exchange              ....  0.804272
   Range separation parameter mu (erf(mu*r12)/r12)        ....  0.250000


General Settings:
 Integral files         IntName         .... Scan_18
 Hartree-Fock type      HFTyp           .... RHF
 Total Charge           Charge          ....    0
 Multiplicity           Mult            ....    1
 Number of Electrons    NEL             ....   16
 Basis Dimension        Dim             ....   36
 Nuclear Repulsion      ENuc            ....     26.8346378235 Eh

Convergence Acceleration:
 DIIS                   CNVDIIS         .... on
   Start iteration      DIISMaxIt       ....     0
   Startup error        DIISStart       ....  0.200000
   # of expansion vecs  DIISMaxEq       ....     5
   Bias factor          DIISBfac        ....   1.050
   Max. coefficient     DIISMaxC        ....  10.000
 Newton-Raphson         CNVNR           .... off
 SOSCF                  CNVSOSCF        .... off
 Level Shifting         CNVShift        .... off
 Zerner damping         CNVZerner       .... off
 Static damping         CNVDamp         .... off
 Fernandez-Rico         CNVRico         .... off

SCF Procedure:
 Maximum # iterations   MaxIter         ....   999
 SCF integral mode      SCFMode         .... Direct
   Integral package                     .... LIBINT
 Reset frequeny         DirectResetFreq ....    20
 Integral Threshold     Thresh          ....  1.000e-10 Eh
 Primitive CutOff       TCut            ....  1.000e-11 Eh

Convergence Tolerance:
 Convergence Check Mode ConvCheckMode   .... All-Criteria
 Convergence forced     ConvForced      .... 0
 Energy Change          TolE            ....  1.000e-06 Eh
 Max Density Change     TolMaxP         ....  1.000e-05
 RMS Density Change     TolRMSP         ....  1.000e-06
 DIIS Error             TolErr          ....  1.000e-06


Diagonalization of the overlap matrix:
Smallest eigenvalue                        ... 2.799e-02
Time for diagonalization                   ...    0.001 sec
Threshold for overlap eigenvalues          ... 1.000e-08
Number of eigenvalues below threshold      ... 0
Time for construction of square roots      ...    0.005 sec
Total time needed                          ...    0.005 sec

-------------------
DFT GRID GENERATION
-------------------

General Integration Accuracy     IntAcc      ...  4.340
Radial Grid Type                 RadialGrid  ... Gauss-Chebyshev
Angular Grid (max. acc.)         AngularGrid ... Lebedev-110
Angular grid pruning method      GridPruning ... 3 (G Style)
Weight generation scheme         WeightScheme... Becke
Basis function cutoff            BFCut       ...    1.0000e-10
Integration weight cutoff        WCut        ...    1.0000e-14
Grids for H and He will be reduced by one unit

# of grid points (after initial pruning)     ...   6488 (   0.0 sec)
# of grid points (after weights+screening)   ...   6320 (   0.0 sec)
nearest neighbour list constructed           ...    0.0 sec
Grid point re-assignment to atoms done       ...    0.0 sec
Grid point division into batches done        ...    0.0 sec
Reduced shell lists constructed in    0.0 sec

Total number of grid points                  ...     6320
Total number of batches                      ...      102
Average number of points per batch           ...       61
Average number of grid points per atom       ...     1053
Average number of shells per batch           ...    17.31 (86.55%)
Average number of basis functions per batch  ...    31.80 (88.32%)
Average number of large shells per batch     ...    15.14 (87.44%)
Average number of large basis fcns per batch ...    27.89 (87.73%)
Maximum spatial batch extension              ...  21.88, 22.36, 23.60 au
Average spatial batch extension              ...   5.30,  5.41,  5.73 au

Time for grid setup =    0.048 sec

------------------------------
INITIAL GUESS: MODEL POTENTIAL
------------------------------
Loading Hartree-Fock densities                     ... done
Calculating cut-offs                               ... done
Setting up the integral package                    ... done
Initializing the effective Hamiltonian             ... done
Starting the Coulomb interaction                   ... done (   0.0 sec)
Reading the grid                                   ... done
Mapping shells                                     ... done
Starting the XC term evaluation                    ... done (   0.0 sec)
  promolecular density results
     # of electrons  =     15.997765831
     EX              =    -11.225353826
     EC              =     -0.462991833
     EX+EC           =    -11.688345659
Transforming the Hamiltonian                       ... done (   0.0 sec)
Diagonalizing the Hamiltonian                      ... done (   0.0 sec)
Back transforming the eigenvectors                 ... done (   0.0 sec)
Now organizing SCF variables                       ... done
                      ------------------
                      INITIAL GUESS DONE (   0.2 sec)
                      ------------------
--------------
SCF ITERATIONS
--------------
ITER       Energy         Delta-E        Max-DP      RMS-DP      [F,P]   Gradient Norm
               ***  Starting incremental Fock matrix formation  ***
                             ****Resetting KDIIS****
                             ****Turning on KDIIS(Cayley)****
  0    -78.3018873559   0.000000000000 0.00971801  0.00096172  0.0552936   0.049724621
  1    -78.3088014112  -0.006914055263 0.01030765  0.00118897  0.0477034   0.042601558
  2    -78.3156644675  -0.006863056356 0.01728102  0.00209548  0.0386951   0.034534687
  3    -78.3242171157  -0.008552648236 0.02573765  0.00338250  0.0232790   0.020836376
  4    -78.3292769571  -0.005059841403 0.00188600  0.00016898  0.0003614   0.000404858
  5    -78.3292822186  -0.000005261403 0.00030406  0.00003295  0.0000841   0.000078035
                          ***Energy convergence achieved***
  6    -78.3292823707  -0.000000152152 0.00004485  0.00000666  0.0000234   0.000019496

            ***Energy convergence in two consecutive cycles with***
                    ***'reasonable' density convergence***
                       *** signaling convergence ***

                    *** KDIIS BlockDiag ( 0.001 sec) ***

               *****************************************************
               *                     SUCCESS                       *
               *           SCF CONVERGED AFTER   7 CYCLES          *
               *****************************************************

Setting up the final grid:

General Integration Accuracy     IntAcc      ...  4.670
Radial Grid Type                 RadialGrid  ... Gauss-Chebyshev
Angular Grid (max. acc.)         AngularGrid ... Lebedev-302
Angular grid pruning method      GridPruning ... 3 (G Style)
Weight generation scheme         WeightScheme... Becke
Basis function cutoff            BFCut       ...    1.0000e-10
Integration weight cutoff        WCut        ...    1.0000e-14
Grids for H and He will be reduced by one unit

# of grid points (after initial pruning)     ...  26000 (   0.0 sec)
# of grid points (after weights+screening)   ...  25310 (   0.0 sec)
nearest neighbour list constructed           ...    0.0 sec
Grid point re-assignment to atoms done       ...    0.0 sec
Grid point division into batches done        ...    0.1 sec
Reduced shell lists constructed in    0.2 sec

Total number of grid points                  ...    25310
Total number of batches                      ...      398
Average number of points per batch           ...       63
Average number of grid points per atom       ...     4218
Average number of shells per batch           ...    15.72 (78.60%)
Average number of basis functions per batch  ...    29.07 (80.76%)
Average number of large shells per batch     ...    13.45 (85.57%)
Average number of large basis fcns per batch ...    24.74 (85.11%)
Maximum spatial batch extension              ...  21.42, 21.11, 20.64 au
Average spatial batch extension              ...   3.25,  3.31,  3.30 au

Final grid set up in    0.2 sec
Final integration                            ... done (   0.2 sec)
Change in XC energy                          ...    -0.000123533
Integrated number of electrons               ...    16.000020208
Previous integrated no of electrons          ...    16.000287392

----------------
TOTAL SCF ENERGY
----------------

Total Energy       :          -78.32940591 Eh           -2131.45150 eV

Components:
Nuclear Repulsion  :           26.83463782 Eh             730.20762 eV
Electronic Energy  :         -105.16404373 Eh           -2861.65911 eV
One Electron Energy:         -157.06033977 Eh           -4273.82912 eV
Two Electron Energy:           51.89629604 Eh            1412.17001 eV

Virial components:
Potential Energy   :         -155.79772421 Eh           -4239.47161 eV
Kinetic Energy     :           77.46831830 Eh            2108.02011 eV
Virial Ratio       :            2.01111535


DFT components:
N(Alpha)           :        8.000010103793 electrons
N(Beta)            :        8.000010103793 electrons
N(Total)           :       16.000020207586 electrons
E(XC)              :       -8.103300451512 Eh       

---------------
SCF CONVERGENCE
---------------

  Last Energy change         ...   -3.0581e-09  Tolerance :   1.0000e-06
  Last MAX-Density change    ...    2.2298e-05  Tolerance :   1.0000e-05
  Last RMS-Density change    ...    2.4618e-06  Tolerance :   1.0000e-06
  Last DIIS Error            ...    2.8561e-05  Tolerance :   1.0000e-06

             **** THE GBW FILE WAS UPDATED (Scan_18.gbw) ****
             **** DENSITY FILE WAS UPDATED (Scan_18.scfp.tmp) ****
             **** ENERGY FILE WAS UPDATED (Scan_18.en.tmp) ****
----------------
ORBITAL ENERGIES
----------------

  NO   OCC          E(Eh)            E(eV) 
   0   2.0000     -10.338346      -281.3207 
   1   2.0000     -10.338215      -281.3171 
   2   2.0000      -0.786141       -21.3920 
   3   2.0000      -0.736372       -20.0377 
   4   2.0000      -0.546540       -14.8721 
   5   2.0000      -0.519286       -14.1305 
   6   2.0000      -0.380224       -10.3464 
   7   2.0000      -0.286369        -7.7925 
   8   0.0000      -0.020334        -0.5533 
   9   0.0000       0.108012         2.9392 
  10   0.0000       0.209923         5.7123 
  11   0.0000       0.251092         6.8325 
  12   0.0000       0.283794         7.7224 
  13   0.0000       0.297793         8.1034 
  14   0.0000       0.590916        16.0796 
  15   0.0000       0.619974        16.8704 
  16   0.0000       0.651347        17.7240 
  17   0.0000       0.695507        18.9257 
  18   0.0000       0.719697        19.5839 
  19   0.0000       0.826997        22.5037 
  20   0.0000       0.862869        23.4798 
  21   0.0000       0.997596        27.1460 
  22   0.0000       1.038301        28.2536 
  23   0.0000       1.064659        28.9709 
  24   0.0000       1.070393        29.1269 
  25   0.0000       1.117533        30.4096 
  26   0.0000       1.670580        45.4588 
  27   0.0000       1.738039        47.2944 
  28   0.0000       1.745525        47.4982 
  29   0.0000       1.824451        49.6458 
  30   0.0000       1.891962        51.4829 
  31   0.0000       2.147616        58.4396 
  32   0.0000       2.197236        59.7898 
  33   0.0000       2.284925        62.1760 
  34   0.0000       2.319718        63.1227 
  35   0.0000       2.321692        63.1764 

                    ********************************
                    * MULLIKEN POPULATION ANALYSIS *
                    ********************************

-----------------------
MULLIKEN ATOMIC CHARGES
-----------------------
   0 C :   -0.387997
   1 C :   -0.387776
   2 H :    0.193627
   3 H :    0.194276
   4 H :    0.194260
   5 H :    0.193611
Sum of atomic charges:    0.0000000

--------------------------------
MULLIKEN REDUCED ORBITAL CHARGES
--------------------------------
  0 C s       :     3.470308  s :     3.470308
      pz      :     0.969715  p :     2.898627
      px      :     0.942907
      py      :     0.986005
      dz2     :     0.002260  d :     0.019062
      dxz     :     0.004507
      dyz     :     0.004563
      dx2y2   :     0.001921
      dxy     :     0.005812
  1 C s       :     3.470282  s :     3.470282
      pz      :     0.969641  p :     2.898433
      px      :     0.942845
      py      :     0.985947
      dz2     :     0.002260  d :     0.019062
      dxz     :     0.004506
      dyz     :     0.004563
      dx2y2   :     0.001921
      dxy     :     0.005811
  2 H s       :     0.806373  s :     0.806373
  3 H s       :     0.805724  s :     0.805724
  4 H s       :     0.805740  s :     0.805740
  5 H s       :     0.806389  s :     0.806389


                     *******************************
                     * LOEWDIN POPULATION ANALYSIS *
                     *******************************

----------------------
LOEWDIN ATOMIC CHARGES
----------------------
   0 C :   -0.291034
   1 C :   -0.290829
   2 H :    0.145409
   3 H :    0.145533
   4 H :    0.145523
   5 H :    0.145398

-------------------------------
LOEWDIN REDUCED ORBITAL CHARGES
-------------------------------
  0 C s       :     3.214336  s :     3.214336
      pz      :     1.014786  p :     3.046764
      px      :     0.987848
      py      :     1.044131
      dz2     :     0.003717  d :     0.029933
      dxz     :     0.006816
      dyz     :     0.006487
      dx2y2   :     0.004081
      dxy     :     0.008833
  1 C s       :     3.214315  s :     3.214315
      pz      :     1.014714  p :     3.046581
      px      :     0.987792
      py      :     1.044075
      dz2     :     0.003717  d :     0.029934
      dxz     :     0.006816
      dyz     :     0.006487
      dx2y2   :     0.004081
      dxy     :     0.008833
  2 H s       :     0.854591  s :     0.854591
  3 H s       :     0.854467  s :     0.854467
  4 H s       :     0.854477  s :     0.854477
  5 H s       :     0.854602  s :     0.854602


                      *****************************
                      * MAYER POPULATION ANALYSIS *
                      *****************************

  NA   - Mulliken gross atomic population
  ZA   - Total nuclear charge
  QA   - Mulliken gross atomic charge
  VA   - Mayer's total valence
  BVA  - Mayer's bonded valence
  FA   - Mayer's free valence

  ATOM       NA         ZA         QA         VA         BVA        FA
  0 C      6.3880     6.0000    -0.3880     3.6081     3.6081     0.0000
  1 C      6.3878     6.0000    -0.3878     3.6081     3.6081    -0.0000
  2 H      0.8064     1.0000     0.1936     0.9280     0.9280     0.0000
  3 H      0.8057     1.0000     0.1943     0.9277     0.9277    -0.0000
  4 H      0.8057     1.0000     0.1943     0.9277     0.9277     0.0000
  5 H      0.8064     1.0000     0.1936     0.9280     0.9280     0.0000

  Mayer bond orders larger than 0.1
B(  0-C ,  1-C ) :   1.7547 B(  0-C ,  2-H ) :   0.9199 B(  0-C ,  3-H ) :   0.9196 
B(  1-C ,  4-H ) :   0.9196 B(  1-C ,  5-H ) :   0.9199 

-------
TIMINGS
-------

Total SCF time: 0 days 0 hours 0 min 3 sec 

Total time                  ....       3.168 sec
Sum of individual times     ....       3.058 sec  ( 96.5%)

Fock matrix formation       ....       2.616 sec  ( 82.6%)
  XC integration            ....       0.833 sec  ( 31.8% of F)
    Basis function eval.    ....       0.330 sec  ( 39.6% of XC)
    Density eval.           ....       0.041 sec  (  4.9% of XC)
    XC-Functional eval.     ....       0.230 sec  ( 27.7% of XC)
    XC-Potential eval.      ....       0.043 sec  (  5.2% of XC)
Diagonalization             ....       0.005 sec  (  0.2%)
Density matrix formation    ....       0.000 sec  (  0.0%)
Population analysis         ....       0.012 sec  (  0.4%)
Initial guess               ....       0.146 sec  (  4.6%)
Orbital Transformation      ....       0.000 sec  (  0.0%)
Orbital Orthonormalization  ....       0.000 sec  (  0.0%)
DIIS solution               ....       0.000 sec  (  0.0%)
Grid generation             ....       0.279 sec  (  8.8%)


-------------------------------------------------------------------------------
                          DFT DISPERSION CORRECTION                            
                                                                               
                              DFTD3 V3.1  Rev 1                                
                              USING zero damping                               
-------------------------------------------------------------------------------
The omegaB97X-D3 functional is recognized. Fit by Chai et al.
Active option DFTDOPT                   ...         3   

molecular C6(AA) [au] = 315.763344 


            DFT-D V3
 parameters
 s6 scaling factor         :     1.0000 
 rs6 scaling factor        :     1.2810 
 s8 scaling factor         :     1.0000 
 rs8 scaling factor        :     1.0940 
 Damping factor alpha6     :    14.0000 
 Damping factor alpha8     :    16.0000 
 ad hoc parameters k1-k3   :    16.0000     1.3333    -4.0000 

 Edisp/kcal,au: -0.310891769287  -0.000495437518 
 E6   /kcal   :  -0.097442685 
 E8   /kcal   :  -0.213449084 
 % E8         :  68.657039231 

-------------------------   ----------------
Dispersion correction           -0.000495438
-------------------------   ----------------


-------------------------   --------------------
FINAL SINGLE POINT ENERGY       -78.329901343875
-------------------------   --------------------


                            ***************************************
                            *     ORCA property calculations      *
                            ***************************************

                                    ---------------------
                                    Active property flags
                                    ---------------------
   (+) Dipole Moment


------------------------------------------------------------------------------
                       ORCA ELECTRIC PROPERTIES CALCULATION
------------------------------------------------------------------------------

Dipole Moment Calculation                       ... on
Quadrupole Moment Calculation                   ... off
Polarizability Calculation                      ... off
GBWName                                         ... Scan_18.gbw
Electron density file                           ... Scan_18.scfp.tmp

-------------
DIPOLE MOMENT
-------------
                                X             Y             Z
Electronic contribution:      0.00033       0.00008      -0.00009
Nuclear contribution   :     -0.00000      -0.00000       0.00000
                        -----------------------------------------
Total Dipole Moment    :      0.00033       0.00008      -0.00009
                        -----------------------------------------
Magnitude (a.u.)       :      0.00035
Magnitude (Debye)      :      0.00089


Timings for individual modules:

Sum of individual times         ...        3.514 sec (=   0.059 min)
GTO integral calculation        ...        0.309 sec (=   0.005 min)   8.8 %
SCF iterations                  ...        3.205 sec (=   0.053 min)  91.2 %
                             ****ORCA TERMINATED NORMALLY****
TOTAL RUN TIME: 0 days 0 hours 0 minutes 3 seconds 841 msec
