
                                 *****************
                                 * O   R   C   A *
                                 *****************

           --- An Ab Initio, DFT and Semiempirical electronic structure package ---

                  #######################################################
                  #                        -***-                        #
                  #  Department of molecular theory and spectroscopy    #
                  #              Directorship: Frank Neese              #
                  # Max Planck Institute for Chemical Energy Conversion #
                  #                  D-45470 Muelheim/Ruhr              #
                  #                       Germany                       #
                  #                                                     #
                  #                  All rights reserved                #
                  #                        -***-                        #
                  #######################################################


                         Program Version 4.0.0.2 - RELEASE -


 With contributions from (in alphabetic order):
   Daniel Aravena         : Magnetic Properties
   Michael Atanasov       : Ab Initio Ligand Field Theory
   Ute Becker             : Parallelization
   Martin Brehm           : Molecular dynamics
   Dmytro Bykov           : SCF Hessian
   Vijay G. Chilkuri      : MRCI spin determinant printing
   Dipayan Datta          : RHF DLPNO-CCSD density
   Achintya Kumar Dutta   : EOM-CC, STEOM-CC
   Dmitry Ganyushin       : Spin-Orbit,Spin-Spin,Magnetic field MRCI
   Yang Guo               : DLPNO-NEVPT2, CIM, IAO-localization
   Andreas Hansen         : Spin unrestricted coupled pair/coupled cluster methods
   Lee Huntington         : MR-EOM, pCC
   Robert Izsak           : Overlap fitted RIJCOSX, COSX-SCS-MP3, EOM
   Christian Kollmar      : KDIIS, OOCD, Brueckner-CCSD(T), CCSD density
   Simone Kossmann        : Meta GGA functionals, TD-DFT gradient, OOMP2, MP2 Hessian
   Martin Krupicka        : AUTO-CI
   Dagmar Lenk            : GEPOL surface
   Dimitrios Liakos       : Extrapolation schemes; parallel MDCI
   Dimitrios Manganas     : ROCIS; embedding schemes
   Dimitrios Pantazis     : SARC Basis sets
   Taras Petrenko         : DFT Hessian,TD-DFT gradient, ASA, ECA, R-Raman, ABS, FL, XAS/XES, NRVS
   Peter Pinski           : DLPNO-MP2
   Christoph Reimann      : Effective Core Potentials
   Marius Retegan         : Local ZFS, SOC
   Christoph Riplinger    : Optimizer, TS searches, QM/MM, DLPNO-CCSD(T), (RO)-DLPNO pert. Triples
   Tobias Risthaus        : Range-separated hybrids, TD-DFT gradient, RPA, STAB
   Michael Roemelt        : Restricted open shell CIS
   Masaaki Saitow         : Open-shell DLPNO
   Barbara Sandhoefer     : DKH picture change effects
   Kantharuban Sivalingam : CASSCF convergence, NEVPT2, FIC-MRCI
   Georgi Stoychev        : AutoAux
   Boris Wezisla          : Elementary symmetry handling
   Frank Wennmohs         : Technical directorship


 We gratefully acknowledge several colleagues who have allowed us to
 interface, adapt or use parts of their codes:
   Stefan Grimme, W. Hujo, H. Kruse,             : VdW corrections, initial TS optimization,
                  C. Bannwarth                     DFT functionals, gCP, sTDA/sTD-DF
   Ed Valeev                                     : LibInt (2-el integral package), F12 methods
   Garnet Chan, S. Sharma, J. Yang, R. Olivares  : DMRG
   Ulf Ekstrom                                   : XCFun DFT Library
   Mihaly Kallay                                 : mrcc  (arbitrary order and MRCC methods)
   Jiri Pittner, Ondrej Demel                    : Mk-CCSD
   Frank Weinhold                                : gennbo (NPA and NBO analysis)
   Christopher J. Cramer and Donald G. Truhlar   : smd solvation model


 Your calculation uses the libint2 library for the computation of 2-el integrals
 For citations please refer to: http://libint.valeyev.net

 This ORCA versions uses:
   CBLAS   interface :  Fast vector & matrix operations
   LAPACKE interface :  Fast linear algebra routines
   SCALAPACK package :  Parallel linear algebra routines


Your calculation utilizes the atom-pairwise dispersion correction
with the zero-damping scheme (D30)
Cite in your paper:
S.Grimme, J.Antony, S.Ehrlich and H.Krieg, J.Chem.Phys., 132, (2010), 154104 
   

XCFun DFT library Copyright 2009-2010 Ulf Ekstrom and contributors.
See http://admol.org/xcfun for more information. This is free soft-
ware; see the source code for copying conditions. There is ABSOLUTELY
NO WARRANTY; not even for MERCHANTABILITY or FITNESS FOR A PARTICULAR
PURPOSE. For details see the documentation. Scientific users of this 
library should cite U. Ekstrom, L. Visscher, R. Bast, A. J. Thorvald-
sen and K. Ruud; J.Chem.Theor.Comp. 2010, DOI: 10.1021/ct100117s
XCFun Version 0.99 
Your calculation utilizes the basis: 6-31G(d)
   H-He, Li-Ne : W. J. Hehre, R. Ditchfield and J.A. Pople, J. Chem. Phys. 56, 2257 (1972).
                 Note: He and Ne are unpublished basis sets taken from the Gaussian program.
                 Note: Li and B from J. D. Dill and J. A. Pople, J. Chem. Phys. 62, 2921 (1975).
   Na - Ar     : M. M. Francl, W. J. Pietro, W. J. Hehre, J. S. Binkley, M. S. Gordon, 
                 D. J. DeFrees and J. A. Pople, J. Chem. Phys. 77, 3654 (1982).
   K - Zn      : V. A. Rassolov, J. A. Pople, M. A. Ratner, and T. L. Windus, J. Chem. Phys. 109, 1223 (1998).

================================================================================
                                        WARNINGS
                       Please study these warnings very carefully!
================================================================================

Warning: TCutStore was < 0. Adjusted to Thresh (uncritical)

INFO   : the flag for use of LIBINT has been found!

================================================================================
                                       INPUT FILE
================================================================================
NAME = initial19.inp
|  1> ! WB97X-D3 6-31G(d) VerySlowConv
|  2> ! KDIIS NOSOSCF
|  3> %base "Scan_19"
|  4> 
|  5> %scf
|  6> maxiter 999
|  7> end
|  8> 
|  9> * xyz 0 1
| 10> C         -2.117833675299    1.129604064884    0.164496888110
| 11> C          0.080076700386    1.420939363695   -0.164497001805
| 12> H         -2.522209014936    0.591692365213   -0.666300886515
| 13> H         -2.529830748527    2.033602351377    0.559640994426
| 14> H          0.492074235018    0.516941043223   -0.559640847011
| 15> H          0.484452503358    1.958850811608    0.666300852795
| 16> **                         ****END OF INPUT****
================================================================================

                       ****************************
                       * Single Point Calculation *
                       ****************************

---------------------------------
CARTESIAN COORDINATES (ANGSTROEM)
---------------------------------
  C     -2.117834    1.129604    0.164497
  C      0.080077    1.420939   -0.164497
  H     -2.522209    0.591692   -0.666301
  H     -2.529831    2.033602    0.559641
  H      0.492074    0.516941   -0.559641
  H      0.484453    1.958851    0.666301

----------------------------
CARTESIAN COORDINATES (A.U.)
----------------------------
  NO LB      ZA    FRAG     MASS         X           Y           Z
   0 C     6.0000    0    12.011   -4.002126    2.134642    0.310854
   1 C     6.0000    0    12.011    0.151323    2.685186   -0.310854
   2 H     1.0000    0     1.008   -4.766284    1.118137   -1.259126
   3 H     1.0000    0     1.008   -4.780687    3.842952    1.057568
   4 H     1.0000    0     1.008    0.929886    0.976877   -1.057568
   5 H     1.0000    0     1.008    0.915483    3.701692    1.259126

--------------------------------
INTERNAL COORDINATES (ANGSTROEM)
--------------------------------
 C      0   0   0     0.000000000000     0.00000000     0.00000000
 C      1   0   0     2.241410996555     0.00000000     0.00000000
 H      1   2   0     1.069155439715   108.79704795     0.00000000
 H      1   2   3     1.069155440096   108.79704792   221.55105751
 H      2   1   3     1.069155550125   108.79706910   318.44892339
 H      2   1   3     1.069155550438   108.79706913   180.00001932

---------------------------
INTERNAL COORDINATES (A.U.)
---------------------------
 C      0   0   0     0.000000000000     0.00000000     0.00000000
 C      1   0   0     4.235652937049     0.00000000     0.00000000
 H      1   2   0     2.020410975653   108.79704795     0.00000000
 H      1   2   3     2.020410976374   108.79704792   221.55105751
 H      2   1   3     2.020411184298   108.79706910   318.44892339
 H      2   1   3     2.020411184890   108.79706913   180.00001932

---------------------
BASIS SET INFORMATION
---------------------
There are 2 groups of distinct atoms

 Group   1 Type C   : 10s4p1d contracted to 3s2p1d pattern {631/31/1}
 Group   2 Type H   : 4s contracted to 2s pattern {31}

Atom   0C    basis set group =>   1
Atom   1C    basis set group =>   1
Atom   2H    basis set group =>   2
Atom   3H    basis set group =>   2
Atom   4H    basis set group =>   2
Atom   5H    basis set group =>   2
------------------------------------------------------------------------------
                           ORCA GTO INTEGRAL CALCULATION
------------------------------------------------------------------------------

                         BASIS SET STATISTICS AND STARTUP INFO

 # of primitive gaussian shells          ...   46
 # of primitive gaussian functions       ...   70
 # of contracted shells                  ...   20
 # of contracted basis functions         ...   36
 Highest angular momentum                ...    2
 Maximum contraction depth               ...    6
 Integral package used                   ... LIBINT
 Integral threshhold            Thresh   ...  1.000e-10
 Primitive cut-off              TCut     ...  1.000e-11


------------------------------ INTEGRAL EVALUATION ----------------------------


 * One electron integrals 
 Pre-screening matrix                    ... done
 Shell pair data                         ... done (   0.000 sec)

-------------------------------------------------------------------------------
                                 ORCA SCF
-------------------------------------------------------------------------------

------------
SCF SETTINGS
------------
Hamiltonian:
 Density Functional     Method          .... DFT(GTOs)
 Exchange Functional    Exchange        .... WB97X-D3
 Correlation Functional Correlation     .... WB97X-D3
 Gradients option       PostSCFGGA      .... off
 Hybrid DFT is turned on
   Fraction HF Exchange ScalHFX         ....  0.195728
   Scaling of DF-GGA-X  ScalDFX         ....  0.000000
   Scaling of DF-GGA-C  ScalDFC         ....  1.000000
   Scaling of DF-LDA-C  ScalLDAC        ....  1.000000
   Perturbative correction              ....  0.000000
 Long-range corrected/Screened/Range-Separated Hybrid DFT is turned on
   Amount of maximum screened exact exchange              ....  0.804272
   Range separation parameter mu (erf(mu*r12)/r12)        ....  0.250000


General Settings:
 Integral files         IntName         .... Scan_19
 Hartree-Fock type      HFTyp           .... RHF
 Total Charge           Charge          ....    0
 Multiplicity           Mult            ....    1
 Number of Electrons    NEL             ....   16
 Basis Dimension        Dim             ....   36
 Nuclear Repulsion      ENuc            ....     26.1586720030 Eh

Convergence Acceleration:
 DIIS                   CNVDIIS         .... on
   Start iteration      DIISMaxIt       ....     0
   Startup error        DIISStart       ....  0.200000
   # of expansion vecs  DIISMaxEq       ....     5
   Bias factor          DIISBfac        ....   1.050
   Max. coefficient     DIISMaxC        ....  10.000
 Newton-Raphson         CNVNR           .... off
 SOSCF                  CNVSOSCF        .... off
 Level Shifting         CNVShift        .... off
 Zerner damping         CNVZerner       .... off
 Static damping         CNVDamp         .... off
 Fernandez-Rico         CNVRico         .... off

SCF Procedure:
 Maximum # iterations   MaxIter         ....   999
 SCF integral mode      SCFMode         .... Direct
   Integral package                     .... LIBINT
 Reset frequeny         DirectResetFreq ....    20
 Integral Threshold     Thresh          ....  1.000e-10 Eh
 Primitive CutOff       TCut            ....  1.000e-11 Eh

Convergence Tolerance:
 Convergence Check Mode ConvCheckMode   .... All-Criteria
 Convergence forced     ConvForced      .... 0
 Energy Change          TolE            ....  1.000e-06 Eh
 Max Density Change     TolMaxP         ....  1.000e-05
 RMS Density Change     TolRMSP         ....  1.000e-06
 DIIS Error             TolErr          ....  1.000e-06


Diagonalization of the overlap matrix:
Smallest eigenvalue                        ... 2.927e-02
Time for diagonalization                   ...    0.001 sec
Threshold for overlap eigenvalues          ... 1.000e-08
Number of eigenvalues below threshold      ... 0
Time for construction of square roots      ...    0.004 sec
Total time needed                          ...    0.005 sec

-------------------
DFT GRID GENERATION
-------------------

General Integration Accuracy     IntAcc      ...  4.340
Radial Grid Type                 RadialGrid  ... Gauss-Chebyshev
Angular Grid (max. acc.)         AngularGrid ... Lebedev-110
Angular grid pruning method      GridPruning ... 3 (G Style)
Weight generation scheme         WeightScheme... Becke
Basis function cutoff            BFCut       ...    1.0000e-10
Integration weight cutoff        WCut        ...    1.0000e-14
Grids for H and He will be reduced by one unit

# of grid points (after initial pruning)     ...   6488 (   0.0 sec)
# of grid points (after weights+screening)   ...   6316 (   0.0 sec)
nearest neighbour list constructed           ...    0.0 sec
Grid point re-assignment to atoms done       ...    0.0 sec
Grid point division into batches done        ...    0.0 sec
Reduced shell lists constructed in    0.0 sec

Total number of grid points                  ...     6316
Total number of batches                      ...      102
Average number of points per batch           ...       61
Average number of grid points per atom       ...     1053
Average number of shells per batch           ...    17.22 (86.12%)
Average number of basis functions per batch  ...    31.63 (87.86%)
Average number of large shells per batch     ...    14.84 (86.19%)
Average number of large basis fcns per batch ...    27.21 (86.03%)
Maximum spatial batch extension              ...  22.10, 22.36, 23.60 au
Average spatial batch extension              ...   5.36,  5.29,  5.59 au

Time for grid setup =    0.046 sec

------------------------------
INITIAL GUESS: MODEL POTENTIAL
------------------------------
Loading Hartree-Fock densities                     ... done
Calculating cut-offs                               ... done
Setting up the integral package                    ... done
Initializing the effective Hamiltonian             ... done
Starting the Coulomb interaction                   ... done (   0.0 sec)
Reading the grid                                   ... done
Mapping shells                                     ... done
Starting the XC term evaluation                    ... done (   0.0 sec)
  promolecular density results
     # of electrons  =     15.996729228
     EX              =    -11.217332824
     EC              =     -0.460343214
     EX+EC           =    -11.677676038
Transforming the Hamiltonian                       ... done (   0.0 sec)
Diagonalizing the Hamiltonian                      ... done (   0.0 sec)
Back transforming the eigenvectors                 ... done (   0.0 sec)
Now organizing SCF variables                       ... done
                      ------------------
                      INITIAL GUESS DONE (   0.2 sec)
                      ------------------
--------------
SCF ITERATIONS
--------------
ITER       Energy         Delta-E        Max-DP      RMS-DP      [F,P]   Gradient Norm
               ***  Starting incremental Fock matrix formation  ***
                             ****Resetting KDIIS****
                             ****Turning on KDIIS(Cayley)****
  0    -78.2727164997   0.000000000000 0.00938016  0.00094563  0.0456360   0.048354381
  1    -78.2793500219  -0.006633522222 0.00982990  0.00118482  0.0390107   0.041479341
  2    -78.2860691073  -0.006719085329 0.01699506  0.00218004  0.0315695   0.033673486
  3    -78.2947436301  -0.008674522854 0.03119415  0.00389271  0.0188241   0.020267605
  4    -78.3001219689  -0.005378338810 0.00182289  0.00016307  0.0006485   0.000499047
  5    -78.3001275411  -0.000005572126 0.00042798  0.00004389  0.0000951   0.000096799
                          ***Energy convergence achieved***
  6    -78.3001277953  -0.000000254235 0.00007846  0.00000750  0.0000150   0.000018362

            ***Energy convergence in two consecutive cycles with***
                    ***'reasonable' density convergence***
                       *** signaling convergence ***

                    *** KDIIS BlockDiag ( 0.000 sec) ***

               *****************************************************
               *                     SUCCESS                       *
               *           SCF CONVERGED AFTER   7 CYCLES          *
               *****************************************************

Setting up the final grid:

General Integration Accuracy     IntAcc      ...  4.670
Radial Grid Type                 RadialGrid  ... Gauss-Chebyshev
Angular Grid (max. acc.)         AngularGrid ... Lebedev-302
Angular grid pruning method      GridPruning ... 3 (G Style)
Weight generation scheme         WeightScheme... Becke
Basis function cutoff            BFCut       ...    1.0000e-10
Integration weight cutoff        WCut        ...    1.0000e-14
Grids for H and He will be reduced by one unit

# of grid points (after initial pruning)     ...  26000 (   0.0 sec)
# of grid points (after weights+screening)   ...  25330 (   0.0 sec)
nearest neighbour list constructed           ...    0.0 sec
Grid point re-assignment to atoms done       ...    0.0 sec
Grid point division into batches done        ...    0.1 sec
Reduced shell lists constructed in    0.2 sec

Total number of grid points                  ...    25330
Total number of batches                      ...      400
Average number of points per batch           ...       63
Average number of grid points per atom       ...     4222
Average number of shells per batch           ...    15.65 (78.27%)
Average number of basis functions per batch  ...    28.87 (80.18%)
Average number of large shells per batch     ...    13.25 (84.66%)
Average number of large basis fcns per batch ...    24.25 (84.03%)
Maximum spatial batch extension              ...  20.41, 21.19, 20.64 au
Average spatial batch extension              ...   3.23,  3.29,  3.33 au

Final grid set up in    0.2 sec
Final integration                            ... done (   0.2 sec)
Change in XC energy                          ...     0.000131599
Integrated number of electrons               ...    16.000016742
Previous integrated no of electrons          ...    15.999323794

----------------
TOTAL SCF ENERGY
----------------

Total Energy       :          -78.29999620 Eh           -2130.65122 eV

Components:
Nuclear Repulsion  :           26.15867200 Eh             711.81365 eV
Electronic Energy  :         -104.45866820 Eh           -2842.46487 eV
One Electron Energy:         -155.67652368 Eh           -4236.17357 eV
Two Electron Energy:           51.21785547 Eh            1393.70870 eV

Virial components:
Potential Energy   :         -155.81110528 Eh           -4239.83572 eV
Kinetic Energy     :           77.51110908 Eh            2109.18451 eV
Virial Ratio       :            2.01017773


DFT components:
N(Alpha)           :        8.000008370963 electrons
N(Beta)            :        8.000008370963 electrons
N(Total)           :       16.000016741926 electrons
E(XC)              :       -8.098936815399 Eh       

---------------
SCF CONVERGENCE
---------------

  Last Energy change         ...   -4.8976e-09  Tolerance :   1.0000e-06
  Last MAX-Density change    ...    1.9749e-05  Tolerance :   1.0000e-05
  Last RMS-Density change    ...    2.1885e-06  Tolerance :   1.0000e-06
  Last DIIS Error            ...    2.1750e-05  Tolerance :   1.0000e-06

             **** THE GBW FILE WAS UPDATED (Scan_19.gbw) ****
             **** DENSITY FILE WAS UPDATED (Scan_19.scfp.tmp) ****
             **** ENERGY FILE WAS UPDATED (Scan_19.en.tmp) ****
----------------
ORBITAL ENERGIES
----------------

  NO   OCC          E(Eh)            E(eV) 
   0   2.0000     -10.340203      -281.3712 
   1   2.0000     -10.340101      -281.3684 
   2   2.0000      -0.781776       -21.2732 
   3   2.0000      -0.741560       -20.1789 
   4   2.0000      -0.543550       -14.7907 
   5   2.0000      -0.521765       -14.1979 
   6   2.0000      -0.365114        -9.9353 
   7   2.0000      -0.284564        -7.7434 
   8   0.0000      -0.029567        -0.8046 
   9   0.0000       0.084739         2.3059 
  10   0.0000       0.210088         5.7168 
  11   0.0000       0.247117         6.7244 
  12   0.0000       0.286610         7.7990 
  13   0.0000       0.293429         7.9846 
  14   0.0000       0.589069        16.0294 
  15   0.0000       0.619554        16.8589 
  16   0.0000       0.650892        17.7117 
  17   0.0000       0.704778        19.1780 
  18   0.0000       0.721060        19.6210 
  19   0.0000       0.809594        22.0302 
  20   0.0000       0.833899        22.6916 
  21   0.0000       0.998722        27.1766 
  22   0.0000       1.028884        27.9974 
  23   0.0000       1.060263        28.8512 
  24   0.0000       1.062399        28.9094 
  25   0.0000       1.120177        30.4816 
  26   0.0000       1.709370        46.5143 
  27   0.0000       1.747802        47.5601 
  28   0.0000       1.762156        47.9507 
  29   0.0000       1.806794        49.1654 
  30   0.0000       1.858498        50.5723 
  31   0.0000       2.082733        56.6740 
  32   0.0000       2.196659        59.7741 
  33   0.0000       2.272687        61.8429 
  34   0.0000       2.292616        62.3852 
  35   0.0000       2.324817        63.2615 

                    ********************************
                    * MULLIKEN POPULATION ANALYSIS *
                    ********************************

-----------------------
MULLIKEN ATOMIC CHARGES
-----------------------
   0 C :   -0.384648
   1 C :   -0.384477
   2 H :    0.191979
   3 H :    0.192596
   4 H :    0.192583
   5 H :    0.191966
Sum of atomic charges:    0.0000000

--------------------------------
MULLIKEN REDUCED ORBITAL CHARGES
--------------------------------
  0 C s       :     3.508460  s :     3.508460
      pz      :     0.953399  p :     2.857002
      px      :     0.931321
      py      :     0.972282
      dz2     :     0.002964  d :     0.019185
      dxz     :     0.004494
      dyz     :     0.004115
      dx2y2   :     0.001919
      dxy     :     0.005694
  1 C s       :     3.508439  s :     3.508439
      pz      :     0.953342  p :     2.856852
      px      :     0.931274
      py      :     0.972236
      dz2     :     0.002964  d :     0.019185
      dxz     :     0.004494
      dyz     :     0.004115
      dx2y2   :     0.001919
      dxy     :     0.005694
  2 H s       :     0.808021  s :     0.808021
  3 H s       :     0.807404  s :     0.807404
  4 H s       :     0.807417  s :     0.807417
  5 H s       :     0.808034  s :     0.808034


                     *******************************
                     * LOEWDIN POPULATION ANALYSIS *
                     *******************************

----------------------
LOEWDIN ATOMIC CHARGES
----------------------
   0 C :   -0.286939
   1 C :   -0.286780
   2 H :    0.143446
   3 H :    0.143423
   4 H :    0.143414
   5 H :    0.143437

-------------------------------
LOEWDIN REDUCED ORBITAL CHARGES
-------------------------------
  0 C s       :     3.253317  s :     3.253317
      pz      :     1.001919  p :     3.004053
      px      :     0.968642
      py      :     1.033492
      dz2     :     0.004744  d :     0.029569
      dxz     :     0.006554
      dyz     :     0.005969
      dx2y2   :     0.003888
      dxy     :     0.008414
  1 C s       :     3.253300  s :     3.253300
      pz      :     1.001864  p :     3.003911
      px      :     0.968598
      py      :     1.033449
      dz2     :     0.004744  d :     0.029569
      dxz     :     0.006554
      dyz     :     0.005969
      dx2y2   :     0.003888
      dxy     :     0.008414
  2 H s       :     0.856554  s :     0.856554
  3 H s       :     0.856577  s :     0.856577
  4 H s       :     0.856586  s :     0.856586
  5 H s       :     0.856563  s :     0.856563


                      *****************************
                      * MAYER POPULATION ANALYSIS *
                      *****************************

  NA   - Mulliken gross atomic population
  ZA   - Total nuclear charge
  QA   - Mulliken gross atomic charge
  VA   - Mayer's total valence
  BVA  - Mayer's bonded valence
  FA   - Mayer's free valence

  ATOM       NA         ZA         QA         VA         BVA        FA
  0 C      6.3846     6.0000    -0.3846     3.4221     3.4221     0.0000
  1 C      6.3845     6.0000    -0.3845     3.4221     3.4221    -0.0000
  2 H      0.8080     1.0000     0.1920     0.9276     0.9276     0.0000
  3 H      0.8074     1.0000     0.1926     0.9273     0.9273     0.0000
  4 H      0.8074     1.0000     0.1926     0.9273     0.9273    -0.0000
  5 H      0.8080     1.0000     0.1920     0.9276     0.9276    -0.0000

  Mayer bond orders larger than 0.1
B(  0-C ,  1-C ) :   1.5697 B(  0-C ,  2-H ) :   0.9188 B(  0-C ,  3-H ) :   0.9185 
B(  1-C ,  4-H ) :   0.9185 B(  1-C ,  5-H ) :   0.9188 

-------
TIMINGS
-------

Total SCF time: 0 days 0 hours 0 min 3 sec 

Total time                  ....       3.091 sec
Sum of individual times     ....       2.956 sec  ( 95.6%)

Fock matrix formation       ....       2.517 sec  ( 81.4%)
  XC integration            ....       0.798 sec  ( 31.7% of F)
    Basis function eval.    ....       0.309 sec  ( 38.7% of XC)
    Density eval.           ....       0.039 sec  (  4.9% of XC)
    XC-Functional eval.     ....       0.217 sec  ( 27.1% of XC)
    XC-Potential eval.      ....       0.038 sec  (  4.7% of XC)
Diagonalization             ....       0.020 sec  (  0.6%)
Density matrix formation    ....       0.000 sec  (  0.0%)
Population analysis         ....       0.013 sec  (  0.4%)
Initial guess               ....       0.140 sec  (  4.5%)
Orbital Transformation      ....       0.000 sec  (  0.0%)
Orbital Orthonormalization  ....       0.000 sec  (  0.0%)
DIIS solution               ....       0.000 sec  (  0.0%)
Grid generation             ....       0.267 sec  (  8.6%)


-------------------------------------------------------------------------------
                          DFT DISPERSION CORRECTION                            
                                                                               
                              DFTD3 V3.1  Rev 1                                
                              USING zero damping                               
-------------------------------------------------------------------------------
The omegaB97X-D3 functional is recognized. Fit by Chai et al.
Active option DFTDOPT                   ...         3   

molecular C6(AA) [au] = 318.335907 


            DFT-D V3
 parameters
 s6 scaling factor         :     1.0000 
 rs6 scaling factor        :     1.2810 
 s8 scaling factor         :     1.0000 
 rs8 scaling factor        :     1.0940 
 Damping factor alpha6     :    14.0000 
 Damping factor alpha8     :    16.0000 
 ad hoc parameters k1-k3   :    16.0000     1.3333    -4.0000 

 Edisp/kcal,au: -0.341683858518  -0.000544507830 
 E6   /kcal   :  -0.106833288 
 E8   /kcal   :  -0.234850570 
 % E8         :  68.733293757 

-------------------------   ----------------
Dispersion correction           -0.000544508
-------------------------   ----------------


-------------------------   --------------------
FINAL SINGLE POINT ENERGY       -78.300540709390
-------------------------   --------------------


                            ***************************************
                            *     ORCA property calculations      *
                            ***************************************

                                    ---------------------
                                    Active property flags
                                    ---------------------
   (+) Dipole Moment


------------------------------------------------------------------------------
                       ORCA ELECTRIC PROPERTIES CALCULATION
------------------------------------------------------------------------------

Dipole Moment Calculation                       ... on
Quadrupole Moment Calculation                   ... off
Polarizability Calculation                      ... off
GBWName                                         ... Scan_19.gbw
Electron density file                           ... Scan_19.scfp.tmp

-------------
DIPOLE MOMENT
-------------
                                X             Y             Z
Electronic contribution:      0.00027       0.00007      -0.00008
Nuclear contribution   :      0.00000      -0.00000       0.00000
                        -----------------------------------------
Total Dipole Moment    :      0.00027       0.00007      -0.00008
                        -----------------------------------------
Magnitude (a.u.)       :      0.00029
Magnitude (Debye)      :      0.00074


Timings for individual modules:

Sum of individual times         ...        3.429 sec (=   0.057 min)
GTO integral calculation        ...        0.301 sec (=   0.005 min)   8.8 %
SCF iterations                  ...        3.127 sec (=   0.052 min)  91.2 %
                             ****ORCA TERMINATED NORMALLY****
TOTAL RUN TIME: 0 days 0 hours 0 minutes 3 seconds 751 msec
