
                                 *****************
                                 * O   R   C   A *
                                 *****************

           --- An Ab Initio, DFT and Semiempirical electronic structure package ---

                  #######################################################
                  #                        -***-                        #
                  #  Department of molecular theory and spectroscopy    #
                  #              Directorship: Frank Neese              #
                  # Max Planck Institute for Chemical Energy Conversion #
                  #                  D-45470 Muelheim/Ruhr              #
                  #                       Germany                       #
                  #                                                     #
                  #                  All rights reserved                #
                  #                        -***-                        #
                  #######################################################


                         Program Version 4.0.0.2 - RELEASE -


 With contributions from (in alphabetic order):
   Daniel Aravena         : Magnetic Properties
   Michael Atanasov       : Ab Initio Ligand Field Theory
   Ute Becker             : Parallelization
   Martin Brehm           : Molecular dynamics
   Dmytro Bykov           : SCF Hessian
   Vijay G. Chilkuri      : MRCI spin determinant printing
   Dipayan Datta          : RHF DLPNO-CCSD density
   Achintya Kumar Dutta   : EOM-CC, STEOM-CC
   Dmitry Ganyushin       : Spin-Orbit,Spin-Spin,Magnetic field MRCI
   Yang Guo               : DLPNO-NEVPT2, CIM, IAO-localization
   Andreas Hansen         : Spin unrestricted coupled pair/coupled cluster methods
   Lee Huntington         : MR-EOM, pCC
   Robert Izsak           : Overlap fitted RIJCOSX, COSX-SCS-MP3, EOM
   Christian Kollmar      : KDIIS, OOCD, Brueckner-CCSD(T), CCSD density
   Simone Kossmann        : Meta GGA functionals, TD-DFT gradient, OOMP2, MP2 Hessian
   Martin Krupicka        : AUTO-CI
   Dagmar Lenk            : GEPOL surface
   Dimitrios Liakos       : Extrapolation schemes; parallel MDCI
   Dimitrios Manganas     : ROCIS; embedding schemes
   Dimitrios Pantazis     : SARC Basis sets
   Taras Petrenko         : DFT Hessian,TD-DFT gradient, ASA, ECA, R-Raman, ABS, FL, XAS/XES, NRVS
   Peter Pinski           : DLPNO-MP2
   Christoph Reimann      : Effective Core Potentials
   Marius Retegan         : Local ZFS, SOC
   Christoph Riplinger    : Optimizer, TS searches, QM/MM, DLPNO-CCSD(T), (RO)-DLPNO pert. Triples
   Tobias Risthaus        : Range-separated hybrids, TD-DFT gradient, RPA, STAB
   Michael Roemelt        : Restricted open shell CIS
   Masaaki Saitow         : Open-shell DLPNO
   Barbara Sandhoefer     : DKH picture change effects
   Kantharuban Sivalingam : CASSCF convergence, NEVPT2, FIC-MRCI
   Georgi Stoychev        : AutoAux
   Boris Wezisla          : Elementary symmetry handling
   Frank Wennmohs         : Technical directorship


 We gratefully acknowledge several colleagues who have allowed us to
 interface, adapt or use parts of their codes:
   Stefan Grimme, W. Hujo, H. Kruse,             : VdW corrections, initial TS optimization,
                  C. Bannwarth                     DFT functionals, gCP, sTDA/sTD-DF
   Ed Valeev                                     : LibInt (2-el integral package), F12 methods
   Garnet Chan, S. Sharma, J. Yang, R. Olivares  : DMRG
   Ulf Ekstrom                                   : XCFun DFT Library
   Mihaly Kallay                                 : mrcc  (arbitrary order and MRCC methods)
   Jiri Pittner, Ondrej Demel                    : Mk-CCSD
   Frank Weinhold                                : gennbo (NPA and NBO analysis)
   Christopher J. Cramer and Donald G. Truhlar   : smd solvation model


 Your calculation uses the libint2 library for the computation of 2-el integrals
 For citations please refer to: http://libint.valeyev.net

 This ORCA versions uses:
   CBLAS   interface :  Fast vector & matrix operations
   LAPACKE interface :  Fast linear algebra routines
   SCALAPACK package :  Parallel linear algebra routines


Your calculation utilizes the atom-pairwise dispersion correction
with the zero-damping scheme (D30)
Cite in your paper:
S.Grimme, J.Antony, S.Ehrlich and H.Krieg, J.Chem.Phys., 132, (2010), 154104 
   

XCFun DFT library Copyright 2009-2010 Ulf Ekstrom and contributors.
See http://admol.org/xcfun for more information. This is free soft-
ware; see the source code for copying conditions. There is ABSOLUTELY
NO WARRANTY; not even for MERCHANTABILITY or FITNESS FOR A PARTICULAR
PURPOSE. For details see the documentation. Scientific users of this 
library should cite U. Ekstrom, L. Visscher, R. Bast, A. J. Thorvald-
sen and K. Ruud; J.Chem.Theor.Comp. 2010, DOI: 10.1021/ct100117s
XCFun Version 0.99 
Your calculation utilizes the basis: 6-31G(d)
   H-He, Li-Ne : W. J. Hehre, R. Ditchfield and J.A. Pople, J. Chem. Phys. 56, 2257 (1972).
                 Note: He and Ne are unpublished basis sets taken from the Gaussian program.
                 Note: Li and B from J. D. Dill and J. A. Pople, J. Chem. Phys. 62, 2921 (1975).
   Na - Ar     : M. M. Francl, W. J. Pietro, W. J. Hehre, J. S. Binkley, M. S. Gordon, 
                 D. J. DeFrees and J. A. Pople, J. Chem. Phys. 77, 3654 (1982).
   K - Zn      : V. A. Rassolov, J. A. Pople, M. A. Ratner, and T. L. Windus, J. Chem. Phys. 109, 1223 (1998).

================================================================================
                                        WARNINGS
                       Please study these warnings very carefully!
================================================================================

Warning: TCutStore was < 0. Adjusted to Thresh (uncritical)

INFO   : the flag for use of LIBINT has been found!

================================================================================
                                       INPUT FILE
================================================================================
NAME = initial2.inp
|  1> ! WB97X-D3 6-31G(d) VerySlowConv
|  2> ! KDIIS NOSOSCF
|  3> %base "Scan_2"
|  4> 
|  5> %scf
|  6> maxiter 999
|  7> end
|  8> 
|  9> * xyz 0 1
| 10> C         -1.574074520092    1.272799831445   -0.000344049898
| 11> C         -0.463688627905    1.278927326109   -0.001048362637
| 12> H         -2.201627778267    0.587533812214   -0.578903437742
| 13> H         -2.208979002864    1.950015497595    0.579504959488
| 14> H          0.171225573434    0.599936500336   -0.578810708814
| 15> H          0.163874355695    1.962417032301    0.579601599603
| 16> **                         ****END OF INPUT****
================================================================================

                       ****************************
                       * Single Point Calculation *
                       ****************************

---------------------------------
CARTESIAN COORDINATES (ANGSTROEM)
---------------------------------
  C     -1.574075    1.272800   -0.000344
  C     -0.463689    1.278927   -0.001048
  H     -2.201628    0.587534   -0.578903
  H     -2.208979    1.950015    0.579505
  H      0.171226    0.599937   -0.578811
  H      0.163874    1.962417    0.579602

----------------------------
CARTESIAN COORDINATES (A.U.)
----------------------------
  NO LB      ZA    FRAG     MASS         X           Y           Z
   0 C     6.0000    0    12.011   -2.974570    2.405243   -0.000650
   1 C     6.0000    0    12.011   -0.876245    2.416822   -0.001981
   2 H     1.0000    0     1.008   -4.160474    1.110278   -1.093969
   3 H     1.0000    0     1.008   -4.174365    3.684995    1.095106
   4 H     1.0000    0     1.008    0.323569    1.133716   -1.093794
   5 H     1.0000    0     1.008    0.309678    3.708431    1.095288

--------------------------------
INTERNAL COORDINATES (ANGSTROEM)
--------------------------------
 C      0   0   0     0.000000000000     0.00000000     0.00000000
 C      1   0   0     1.110403022247     0.00000000     0.00000000
 H      1   2   0     1.094597448481   125.19979117     0.00000000
 H      1   2   3     1.094508855336   125.23941766   179.93115984
 H      2   1   3     1.094510810000   125.23925558   359.89324906
 H      2   1   3     1.094599404122   125.19962909   180.17572993

---------------------------
INTERNAL COORDINATES (A.U.)
---------------------------
 C      0   0   0     0.000000000000     0.00000000     0.00000000
 C      1   0   0     2.098357610325     0.00000000     0.00000000
 H      1   2   0     2.068489404518   125.19979117     0.00000000
 H      1   2   3     2.068321987737   125.23941766   179.93115984
 H      2   1   3     2.068325681515   125.23925558   359.89324906
 H      2   1   3     2.068493100144   125.19962909   180.17572993

---------------------
BASIS SET INFORMATION
---------------------
There are 2 groups of distinct atoms

 Group   1 Type C   : 10s4p1d contracted to 3s2p1d pattern {631/31/1}
 Group   2 Type H   : 4s contracted to 2s pattern {31}

Atom   0C    basis set group =>   1
Atom   1C    basis set group =>   1
Atom   2H    basis set group =>   2
Atom   3H    basis set group =>   2
Atom   4H    basis set group =>   2
Atom   5H    basis set group =>   2
------------------------------------------------------------------------------
                           ORCA GTO INTEGRAL CALCULATION
------------------------------------------------------------------------------

                         BASIS SET STATISTICS AND STARTUP INFO

 # of primitive gaussian shells          ...   46
 # of primitive gaussian functions       ...   70
 # of contracted shells                  ...   20
 # of contracted basis functions         ...   36
 Highest angular momentum                ...    2
 Maximum contraction depth               ...    6
 Integral package used                   ... LIBINT
 Integral threshhold            Thresh   ...  1.000e-10
 Primitive cut-off              TCut     ...  1.000e-11


------------------------------ INTEGRAL EVALUATION ----------------------------


 * One electron integrals 
 Pre-screening matrix                    ... done
 Shell pair data                         ... done (   0.000 sec)

-------------------------------------------------------------------------------
                                 ORCA SCF
-------------------------------------------------------------------------------

------------
SCF SETTINGS
------------
Hamiltonian:
 Density Functional     Method          .... DFT(GTOs)
 Exchange Functional    Exchange        .... WB97X-D3
 Correlation Functional Correlation     .... WB97X-D3
 Gradients option       PostSCFGGA      .... off
 Hybrid DFT is turned on
   Fraction HF Exchange ScalHFX         ....  0.195728
   Scaling of DF-GGA-X  ScalDFX         ....  0.000000
   Scaling of DF-GGA-C  ScalDFC         ....  1.000000
   Scaling of DF-LDA-C  ScalLDAC        ....  1.000000
   Perturbative correction              ....  0.000000
 Long-range corrected/Screened/Range-Separated Hybrid DFT is turned on
   Amount of maximum screened exact exchange              ....  0.804272
   Range separation parameter mu (erf(mu*r12)/r12)        ....  0.250000


General Settings:
 Integral files         IntName         .... Scan_2
 Hartree-Fock type      HFTyp           .... RHF
 Total Charge           Charge          ....    0
 Multiplicity           Mult            ....    1
 Number of Electrons    NEL             ....   16
 Basis Dimension        Dim             ....   36
 Nuclear Repulsion      ENuc            ....     36.6404681610 Eh

Convergence Acceleration:
 DIIS                   CNVDIIS         .... on
   Start iteration      DIISMaxIt       ....     0
   Startup error        DIISStart       ....  0.200000
   # of expansion vecs  DIISMaxEq       ....     5
   Bias factor          DIISBfac        ....   1.050
   Max. coefficient     DIISMaxC        ....  10.000
 Newton-Raphson         CNVNR           .... off
 SOSCF                  CNVSOSCF        .... off
 Level Shifting         CNVShift        .... off
 Zerner damping         CNVZerner       .... off
 Static damping         CNVDamp         .... off
 Fernandez-Rico         CNVRico         .... off

SCF Procedure:
 Maximum # iterations   MaxIter         ....   999
 SCF integral mode      SCFMode         .... Direct
   Integral package                     .... LIBINT
 Reset frequeny         DirectResetFreq ....    20
 Integral Threshold     Thresh          ....  1.000e-10 Eh
 Primitive CutOff       TCut            ....  1.000e-11 Eh

Convergence Tolerance:
 Convergence Check Mode ConvCheckMode   .... All-Criteria
 Convergence forced     ConvForced      .... 0
 Energy Change          TolE            ....  1.000e-06 Eh
 Max Density Change     TolMaxP         ....  1.000e-05
 RMS Density Change     TolRMSP         ....  1.000e-06
 DIIS Error             TolErr          ....  1.000e-06


Diagonalization of the overlap matrix:
Smallest eigenvalue                        ... 3.419e-03
Time for diagonalization                   ...    0.001 sec
Threshold for overlap eigenvalues          ... 1.000e-08
Number of eigenvalues below threshold      ... 0
Time for construction of square roots      ...    0.007 sec
Total time needed                          ...    0.008 sec

-------------------
DFT GRID GENERATION
-------------------

General Integration Accuracy     IntAcc      ...  4.340
Radial Grid Type                 RadialGrid  ... Gauss-Chebyshev
Angular Grid (max. acc.)         AngularGrid ... Lebedev-110
Angular grid pruning method      GridPruning ... 3 (G Style)
Weight generation scheme         WeightScheme... Becke
Basis function cutoff            BFCut       ...    1.0000e-10
Integration weight cutoff        WCut        ...    1.0000e-14
Grids for H and He will be reduced by one unit

# of grid points (after initial pruning)     ...   6488 (   0.0 sec)
# of grid points (after weights+screening)   ...   6231 (   0.0 sec)
nearest neighbour list constructed           ...    0.0 sec
Grid point re-assignment to atoms done       ...    0.0 sec
Grid point division into batches done        ...    0.0 sec
Reduced shell lists constructed in    0.3 sec

Total number of grid points                  ...     6231
Total number of batches                      ...       98
Average number of points per batch           ...       63
Average number of grid points per atom       ...     1038
Average number of shells per batch           ...    18.03 (90.15%)
Average number of basis functions per batch  ...    32.78 (91.05%)
Average number of large shells per batch     ...    16.53 (91.65%)
Average number of large basis fcns per batch ...    30.79 (93.93%)
Maximum spatial batch extension              ...  20.05, 20.86, 31.36 au
Average spatial batch extension              ...   4.80,  5.44,  6.02 au

Time for grid setup =    0.303 sec

------------------------------
INITIAL GUESS: MODEL POTENTIAL
------------------------------
Loading Hartree-Fock densities                     ... done
Calculating cut-offs                               ... done
Setting up the integral package                    ... done
Initializing the effective Hamiltonian             ... done
Starting the Coulomb interaction                   ... done (   0.0 sec)
Reading the grid                                   ... done
Mapping shells                                     ... done
Starting the XC term evaluation                    ... done (   0.2 sec)
  promolecular density results
     # of electrons  =     16.005696806
     EX              =    -11.438558616
     EC              =     -0.496812533
     EX+EC           =    -11.935371149
Transforming the Hamiltonian                       ... done (   0.0 sec)
Diagonalizing the Hamiltonian                      ... done (   0.0 sec)
Back transforming the eigenvectors                 ... done (   0.0 sec)
Now organizing SCF variables                       ... done
                      ------------------
                      INITIAL GUESS DONE (   0.8 sec)
                      ------------------
--------------
SCF ITERATIONS
--------------
ITER       Energy         Delta-E        Max-DP      RMS-DP      [F,P]   Gradient Norm
               ***  Starting incremental Fock matrix formation  ***
                             ****Resetting KDIIS****
                             ****Turning on KDIIS(Cayley)****
  0    -78.3263480727   0.000000000000 0.02810619  0.00248138  0.1460405   0.128360830
  1    -78.3740772939  -0.047729221184 0.02242800  0.00209153  0.1215887   0.105009073
  2    -78.4064815524  -0.032404258519 0.03687512  0.00358546  0.0999314   0.086011810
  3    -78.4467049898  -0.040223437411 0.05740111  0.00576448  0.0625045   0.053771124
  4    -78.4723832650  -0.025678275192 0.00280638  0.00032066  0.0031017   0.002065816
  5    -78.4724283852  -0.000045120118 0.00112532  0.00012297  0.0010171   0.000580983
                          ***Energy convergence achieved***
  6    -78.4724292108  -0.000000825649 0.00075604  0.00008094  0.0006870   0.000512334
  7    -78.4724318630  -0.000002652246 0.00013108  0.00001399  0.0001530   0.000112111
                          ***Energy convergence achieved***
                           ***RMSP convergence achieved***
                           ***MAXP convergence achieved***
                    *** KDIIS BlockDiag ( 0.000 sec) ***

               *****************************************************
               *                     SUCCESS                       *
               *           SCF CONVERGED AFTER   8 CYCLES          *
               *****************************************************

Setting up the final grid:

General Integration Accuracy     IntAcc      ...  4.670
Radial Grid Type                 RadialGrid  ... Gauss-Chebyshev
Angular Grid (max. acc.)         AngularGrid ... Lebedev-302
Angular grid pruning method      GridPruning ... 3 (G Style)
Weight generation scheme         WeightScheme... Becke
Basis function cutoff            BFCut       ...    1.0000e-10
Integration weight cutoff        WCut        ...    1.0000e-14
Grids for H and He will be reduced by one unit

# of grid points (after initial pruning)     ...  26000 (   0.0 sec)
# of grid points (after weights+screening)   ...  25116 (   0.0 sec)
nearest neighbour list constructed           ...    0.0 sec
Grid point re-assignment to atoms done       ...    0.0 sec
Grid point division into batches done        ...    0.3 sec
Reduced shell lists constructed in    0.5 sec

Total number of grid points                  ...    25116
Total number of batches                      ...      394
Average number of points per batch           ...       63
Average number of grid points per atom       ...     4186
Average number of shells per batch           ...    16.44 (82.19%)
Average number of basis functions per batch  ...    30.03 (83.41%)
Average number of large shells per batch     ...    14.87 (90.44%)
Average number of large basis fcns per batch ...    27.69 (92.20%)
Maximum spatial batch extension              ...  18.04, 19.43, 20.64 au
Average spatial batch extension              ...   3.03,  3.29,  3.24 au

Final grid set up in    0.5 sec
Final integration                            ... done (   0.6 sec)
Change in XC energy                          ...     0.001368011
Integrated number of electrons               ...    16.000010156
Previous integrated no of electrons          ...    16.003648444

----------------
TOTAL SCF ENERGY
----------------

Total Energy       :          -78.47106399 Eh           -2135.30621 eV

Components:
Nuclear Repulsion  :           36.64046816 Eh             997.03783 eV
Electronic Energy  :         -115.11153215 Eh           -3132.34404 eV
One Electron Energy:         -176.59398662 Eh           -4805.36668 eV
Two Electron Energy:           61.48245447 Eh            1673.02264 eV

Virial components:
Potential Energy   :         -157.45106111 Eh           -4284.46119 eV
Kinetic Energy     :           78.97999712 Eh            2149.15498 eV
Virial Ratio       :            1.99355618


DFT components:
N(Alpha)           :        8.000005077794 electrons
N(Beta)            :        8.000005077794 electrons
N(Total)           :       16.000010155589 electrons
E(XC)              :       -8.412959667648 Eh       

---------------
SCF CONVERGENCE
---------------

  Last Energy change         ...   -1.3817e-07  Tolerance :   1.0000e-06
  Last MAX-Density change    ...    6.6993e-06  Tolerance :   1.0000e-05
  Last RMS-Density change    ...    5.5209e-07  Tolerance :   1.0000e-06
  Last DIIS Error            ...    2.0617e-06  Tolerance :   1.0000e-06

             **** THE GBW FILE WAS UPDATED (Scan_2.gbw) ****
             **** DENSITY FILE WAS UPDATED (Scan_2.scfp.tmp) ****
             **** ENERGY FILE WAS UPDATED (Scan_2.en.tmp) ****
----------------
ORBITAL ENERGIES
----------------

  NO   OCC          E(Eh)            E(eV) 
   0   2.0000     -10.249518      -278.9036 
   1   2.0000     -10.244339      -278.7626 
   2   2.0000      -0.918701       -24.9991 
   3   2.0000      -0.666691       -18.1416 
   4   2.0000      -0.583241       -15.8708 
   5   2.0000      -0.544071       -14.8049 
   6   2.0000      -0.407037       -11.0760 
   7   2.0000      -0.402270       -10.9463 
   8   0.0000       0.162910         4.4330 
   9   0.0000       0.208842         5.6829 
  10   0.0000       0.223716         6.0876 
  11   0.0000       0.262329         7.1383 
  12   0.0000       0.368995        10.0409 
  13   0.0000       0.477852        13.0030 
  14   0.0000       0.519961        14.1489 
  15   0.0000       0.605788        16.4843 
  16   0.0000       0.701015        19.0756 
  17   0.0000       0.775479        21.1018 
  18   0.0000       0.784731        21.3536 
  19   0.0000       0.890955        24.2441 
  20   0.0000       0.952487        25.9185 
  21   0.0000       1.022156        27.8143 
  22   0.0000       1.067297        29.0426 
  23   0.0000       1.085554        29.5394 
  24   0.0000       1.363332        37.0981 
  25   0.0000       1.400354        38.1056 
  26   0.0000       1.568323        42.6762 
  27   0.0000       1.685173        45.8559 
  28   0.0000       1.888973        51.4016 
  29   0.0000       2.037072        55.4315 
  30   0.0000       2.213622        60.2357 
  31   0.0000       2.360995        64.2459 
  32   0.0000       2.488841        67.7248 
  33   0.0000       2.716623        73.9231 
  34   0.0000       3.067046        83.4586 
  35   0.0000       3.333898        90.7200 

                    ********************************
                    * MULLIKEN POPULATION ANALYSIS *
                    ********************************

-----------------------
MULLIKEN ATOMIC CHARGES
-----------------------
   0 C :   -0.308740
   1 C :   -0.308745
   2 H :    0.154314
   3 H :    0.154428
   4 H :    0.154422
   5 H :    0.154320
Sum of atomic charges:   -0.0000000

--------------------------------
MULLIKEN REDUCED ORBITAL CHARGES
--------------------------------
  0 C s       :     3.181897  s :     3.181897
      pz      :     1.015875  p :     3.084082
      px      :     1.042999
      py      :     1.025209
      dz2     :     0.001554  d :     0.042760
      dxz     :     0.014987
      dyz     :     0.004183
      dx2y2   :     0.004999
      dxy     :     0.017037
  1 C s       :     3.181900  s :     3.181900
      pz      :     1.015876  p :     3.084085
      px      :     1.042999
      py      :     1.025210
      dz2     :     0.001554  d :     0.042760
      dxz     :     0.014987
      dyz     :     0.004183
      dx2y2   :     0.004999
      dxy     :     0.017038
  2 H s       :     0.845686  s :     0.845686
  3 H s       :     0.845572  s :     0.845572
  4 H s       :     0.845578  s :     0.845578
  5 H s       :     0.845680  s :     0.845680


                     *******************************
                     * LOEWDIN POPULATION ANALYSIS *
                     *******************************

----------------------
LOEWDIN ATOMIC CHARGES
----------------------
   0 C :   -0.258689
   1 C :   -0.258692
   2 H :    0.129327
   3 H :    0.129363
   4 H :    0.129368
   5 H :    0.129323

-------------------------------
LOEWDIN REDUCED ORBITAL CHARGES
-------------------------------
  0 C s       :     2.917536  s :     2.917536
      pz      :     1.021115  p :     3.234166
      px      :     1.177129
      py      :     1.035922
      dz2     :     0.005954  d :     0.106987
      dxz     :     0.034951
      dyz     :     0.005888
      dx2y2   :     0.018973
      dxy     :     0.041221
  1 C s       :     2.917537  s :     2.917537
      pz      :     1.021116  p :     3.234168
      px      :     1.177130
      py      :     1.035922
      dz2     :     0.005954  d :     0.106987
      dxz     :     0.034950
      dyz     :     0.005888
      dx2y2   :     0.018972
      dxy     :     0.041222
  2 H s       :     0.870673  s :     0.870673
  3 H s       :     0.870637  s :     0.870637
  4 H s       :     0.870632  s :     0.870632
  5 H s       :     0.870677  s :     0.870677


                      *****************************
                      * MAYER POPULATION ANALYSIS *
                      *****************************

  NA   - Mulliken gross atomic population
  ZA   - Total nuclear charge
  QA   - Mulliken gross atomic charge
  VA   - Mayer's total valence
  BVA  - Mayer's bonded valence
  FA   - Mayer's free valence

  ATOM       NA         ZA         QA         VA         BVA        FA
  0 C      6.3087     6.0000    -0.3087     3.9419     3.9419     0.0000
  1 C      6.3087     6.0000    -0.3087     3.9419     3.9419    -0.0000
  2 H      0.8457     1.0000     0.1543     0.9370     0.9370    -0.0000
  3 H      0.8456     1.0000     0.1544     0.9370     0.9370     0.0000
  4 H      0.8456     1.0000     0.1544     0.9370     0.9370    -0.0000
  5 H      0.8457     1.0000     0.1543     0.9370     0.9370    -0.0000

  Mayer bond orders larger than 0.1
B(  0-C ,  1-C ) :   2.0874 B(  0-C ,  2-H ) :   0.9376 B(  0-C ,  3-H ) :   0.9376 
B(  1-C ,  4-H ) :   0.9376 B(  1-C ,  5-H ) :   0.9376 

-------
TIMINGS
-------

Total SCF time: 0 days 0 hours 0 min 10 sec 

Total time                  ....      10.988 sec
Sum of individual times     ....      10.513 sec  ( 95.7%)

Fock matrix formation       ....       9.062 sec  ( 82.5%)
  XC integration            ....       2.814 sec  ( 31.0% of F)
    Basis function eval.    ....       0.737 sec  ( 26.2% of XC)
    Density eval.           ....       0.155 sec  (  5.5% of XC)
    XC-Functional eval.     ....       0.532 sec  ( 18.9% of XC)
    XC-Potential eval.      ....       0.160 sec  (  5.7% of XC)
Diagonalization             ....       0.153 sec  (  1.4%)
Density matrix formation    ....       0.000 sec  (  0.0%)
Population analysis         ....       0.028 sec  (  0.3%)
Initial guess               ....       0.461 sec  (  4.2%)
Orbital Transformation      ....       0.000 sec  (  0.0%)
Orbital Orthonormalization  ....       0.000 sec  (  0.0%)
DIIS solution               ....       0.000 sec  (  0.0%)
Grid generation             ....       0.809 sec  (  7.4%)


-------------------------------------------------------------------------------
                          DFT DISPERSION CORRECTION                            
                                                                               
                              DFTD3 V3.1  Rev 1                                
                              USING zero damping                               
-------------------------------------------------------------------------------
The omegaB97X-D3 functional is recognized. Fit by Chai et al.
Active option DFTDOPT                   ...         3   

molecular C6(AA) [au] = 294.224332 


            DFT-D V3
 parameters
 s6 scaling factor         :     1.0000 
 rs6 scaling factor        :     1.2810 
 s8 scaling factor         :     1.0000 
 rs8 scaling factor        :     1.0940 
 Damping factor alpha6     :    14.0000 
 Damping factor alpha8     :    16.0000 
 ad hoc parameters k1-k3   :    16.0000     1.3333    -4.0000 

 Edisp/kcal,au: -0.140958351225  -0.000224631407 
 E6   /kcal   :  -0.045487347 
 E8   /kcal   :  -0.095471004 
 % E8         :  67.729938322 

-------------------------   ----------------
Dispersion correction           -0.000224631
-------------------------   ----------------


-------------------------   --------------------
FINAL SINGLE POINT ENERGY       -78.471288621277
-------------------------   --------------------


                            ***************************************
                            *     ORCA property calculations      *
                            ***************************************

                                    ---------------------
                                    Active property flags
                                    ---------------------
   (+) Dipole Moment


------------------------------------------------------------------------------
                       ORCA ELECTRIC PROPERTIES CALCULATION
------------------------------------------------------------------------------

Dipole Moment Calculation                       ... on
Quadrupole Moment Calculation                   ... off
Polarizability Calculation                      ... off
GBWName                                         ... Scan_2.gbw
Electron density file                           ... Scan_2.scfp.tmp

-------------
DIPOLE MOMENT
-------------
                                X             Y             Z
Electronic contribution:     -0.00002       0.00196      -0.00233
Nuclear contribution   :      0.00002      -0.00285       0.00336
                        -----------------------------------------
Total Dipole Moment    :     -0.00000      -0.00090       0.00102
                        -----------------------------------------
Magnitude (a.u.)       :      0.00136
Magnitude (Debye)      :      0.00345


Timings for individual modules:

Sum of individual times         ...       12.471 sec (=   0.208 min)
GTO integral calculation        ...        1.248 sec (=   0.021 min)  10.0 %
SCF iterations                  ...       11.223 sec (=   0.187 min)  90.0 %
                             ****ORCA TERMINATED NORMALLY****
TOTAL RUN TIME: 0 days 0 hours 0 minutes 14 seconds 57 msec
