
                                 *****************
                                 * O   R   C   A *
                                 *****************

           --- An Ab Initio, DFT and Semiempirical electronic structure package ---

                  #######################################################
                  #                        -***-                        #
                  #  Department of molecular theory and spectroscopy    #
                  #              Directorship: Frank Neese              #
                  # Max Planck Institute for Chemical Energy Conversion #
                  #                  D-45470 Muelheim/Ruhr              #
                  #                       Germany                       #
                  #                                                     #
                  #                  All rights reserved                #
                  #                        -***-                        #
                  #######################################################


                         Program Version 4.0.0.2 - RELEASE -


 With contributions from (in alphabetic order):
   Daniel Aravena         : Magnetic Properties
   Michael Atanasov       : Ab Initio Ligand Field Theory
   Ute Becker             : Parallelization
   Martin Brehm           : Molecular dynamics
   Dmytro Bykov           : SCF Hessian
   Vijay G. Chilkuri      : MRCI spin determinant printing
   Dipayan Datta          : RHF DLPNO-CCSD density
   Achintya Kumar Dutta   : EOM-CC, STEOM-CC
   Dmitry Ganyushin       : Spin-Orbit,Spin-Spin,Magnetic field MRCI
   Yang Guo               : DLPNO-NEVPT2, CIM, IAO-localization
   Andreas Hansen         : Spin unrestricted coupled pair/coupled cluster methods
   Lee Huntington         : MR-EOM, pCC
   Robert Izsak           : Overlap fitted RIJCOSX, COSX-SCS-MP3, EOM
   Christian Kollmar      : KDIIS, OOCD, Brueckner-CCSD(T), CCSD density
   Simone Kossmann        : Meta GGA functionals, TD-DFT gradient, OOMP2, MP2 Hessian
   Martin Krupicka        : AUTO-CI
   Dagmar Lenk            : GEPOL surface
   Dimitrios Liakos       : Extrapolation schemes; parallel MDCI
   Dimitrios Manganas     : ROCIS; embedding schemes
   Dimitrios Pantazis     : SARC Basis sets
   Taras Petrenko         : DFT Hessian,TD-DFT gradient, ASA, ECA, R-Raman, ABS, FL, XAS/XES, NRVS
   Peter Pinski           : DLPNO-MP2
   Christoph Reimann      : Effective Core Potentials
   Marius Retegan         : Local ZFS, SOC
   Christoph Riplinger    : Optimizer, TS searches, QM/MM, DLPNO-CCSD(T), (RO)-DLPNO pert. Triples
   Tobias Risthaus        : Range-separated hybrids, TD-DFT gradient, RPA, STAB
   Michael Roemelt        : Restricted open shell CIS
   Masaaki Saitow         : Open-shell DLPNO
   Barbara Sandhoefer     : DKH picture change effects
   Kantharuban Sivalingam : CASSCF convergence, NEVPT2, FIC-MRCI
   Georgi Stoychev        : AutoAux
   Boris Wezisla          : Elementary symmetry handling
   Frank Wennmohs         : Technical directorship


 We gratefully acknowledge several colleagues who have allowed us to
 interface, adapt or use parts of their codes:
   Stefan Grimme, W. Hujo, H. Kruse,             : VdW corrections, initial TS optimization,
                  C. Bannwarth                     DFT functionals, gCP, sTDA/sTD-DF
   Ed Valeev                                     : LibInt (2-el integral package), F12 methods
   Garnet Chan, S. Sharma, J. Yang, R. Olivares  : DMRG
   Ulf Ekstrom                                   : XCFun DFT Library
   Mihaly Kallay                                 : mrcc  (arbitrary order and MRCC methods)
   Jiri Pittner, Ondrej Demel                    : Mk-CCSD
   Frank Weinhold                                : gennbo (NPA and NBO analysis)
   Christopher J. Cramer and Donald G. Truhlar   : smd solvation model


 Your calculation uses the libint2 library for the computation of 2-el integrals
 For citations please refer to: http://libint.valeyev.net

 This ORCA versions uses:
   CBLAS   interface :  Fast vector & matrix operations
   LAPACKE interface :  Fast linear algebra routines
   SCALAPACK package :  Parallel linear algebra routines


Your calculation utilizes the atom-pairwise dispersion correction
with the zero-damping scheme (D30)
Cite in your paper:
S.Grimme, J.Antony, S.Ehrlich and H.Krieg, J.Chem.Phys., 132, (2010), 154104 
   

XCFun DFT library Copyright 2009-2010 Ulf Ekstrom and contributors.
See http://admol.org/xcfun for more information. This is free soft-
ware; see the source code for copying conditions. There is ABSOLUTELY
NO WARRANTY; not even for MERCHANTABILITY or FITNESS FOR A PARTICULAR
PURPOSE. For details see the documentation. Scientific users of this 
library should cite U. Ekstrom, L. Visscher, R. Bast, A. J. Thorvald-
sen and K. Ruud; J.Chem.Theor.Comp. 2010, DOI: 10.1021/ct100117s
XCFun Version 0.99 
Your calculation utilizes the basis: 6-31G(d)
   H-He, Li-Ne : W. J. Hehre, R. Ditchfield and J.A. Pople, J. Chem. Phys. 56, 2257 (1972).
                 Note: He and Ne are unpublished basis sets taken from the Gaussian program.
                 Note: Li and B from J. D. Dill and J. A. Pople, J. Chem. Phys. 62, 2921 (1975).
   Na - Ar     : M. M. Francl, W. J. Pietro, W. J. Hehre, J. S. Binkley, M. S. Gordon, 
                 D. J. DeFrees and J. A. Pople, J. Chem. Phys. 77, 3654 (1982).
   K - Zn      : V. A. Rassolov, J. A. Pople, M. A. Ratner, and T. L. Windus, J. Chem. Phys. 109, 1223 (1998).

================================================================================
                                        WARNINGS
                       Please study these warnings very carefully!
================================================================================

Warning: TCutStore was < 0. Adjusted to Thresh (uncritical)

INFO   : the flag for use of LIBINT has been found!

================================================================================
                                       INPUT FILE
================================================================================
NAME = initial23.inp
|  1> ! WB97X-D3 6-31G(d) VerySlowConv
|  2> ! KDIIS NOSOSCF
|  3> %base "Scan_23"
|  4> 
|  5> %scf
|  6> maxiter 999
|  7> end
|  8> 
|  9> * xyz 0 1
| 10> C         -2.340408382297    1.068631475247    0.234826963053
| 11> C          0.302655772808    1.481914437888   -0.234829963906
| 12> H         -2.674389817096    0.613165648615   -0.679658310253
| 13> H         -2.681944540452    2.042398285173    0.535505003474
| 14> H          0.644185839922    0.508144372292   -0.535503004364
| 15> H          0.636631127115    1.937375780785    0.679659311996
| 16> **                         ****END OF INPUT****
================================================================================

                       ****************************
                       * Single Point Calculation *
                       ****************************

---------------------------------
CARTESIAN COORDINATES (ANGSTROEM)
---------------------------------
  C     -2.340408    1.068631    0.234827
  C      0.302656    1.481914   -0.234830
  H     -2.674390    0.613166   -0.679658
  H     -2.681945    2.042398    0.535505
  H      0.644186    0.508144   -0.535503
  H      0.636631    1.937376    0.679659

----------------------------
CARTESIAN COORDINATES (A.U.)
----------------------------
  NO LB      ZA    FRAG     MASS         X           Y           Z
   0 C     6.0000    0    12.011   -4.422731    2.019421    0.443759
   1 C     6.0000    0    12.011    0.571937    2.800412   -0.443764
   2 H     1.0000    0     1.008   -5.053864    1.158715   -1.284368
   3 H     1.0000    0     1.008   -5.068141    3.859573    1.011958
   4 H     1.0000    0     1.008    1.217335    0.960254   -1.011954
   5 H     1.0000    0     1.008    1.203058    3.661110    1.284370

--------------------------------
INTERNAL COORDINATES (ANGSTROEM)
--------------------------------
 C      0   0   0     0.000000000000     0.00000000     0.00000000
 C      1   0   0     2.716094358495     0.00000000     0.00000000
 H      1   2   0     1.074837677565   102.69327946     0.00000000
 H      1   2   3     1.074837676783   102.69327922   233.09769897
 H      2   1   3     1.074837292176   102.69288565   306.90206894
 H      2   1   3     1.074837293686   102.69288566   180.00023422

---------------------------
INTERNAL COORDINATES (A.U.)
---------------------------
 C      0   0   0     0.000000000000     0.00000000     0.00000000
 C      1   0   0     5.132674491445     0.00000000     0.00000000
 H      1   2   0     2.031148849018   102.69327946     0.00000000
 H      1   2   3     2.031148847540   102.69327922   233.09769897
 H      2   1   3     2.031148120738   102.69288565   306.90206894
 H      2   1   3     2.031148123591   102.69288566   180.00023422

---------------------
BASIS SET INFORMATION
---------------------
There are 2 groups of distinct atoms

 Group   1 Type C   : 10s4p1d contracted to 3s2p1d pattern {631/31/1}
 Group   2 Type H   : 4s contracted to 2s pattern {31}

Atom   0C    basis set group =>   1
Atom   1C    basis set group =>   1
Atom   2H    basis set group =>   2
Atom   3H    basis set group =>   2
Atom   4H    basis set group =>   2
Atom   5H    basis set group =>   2
------------------------------------------------------------------------------
                           ORCA GTO INTEGRAL CALCULATION
------------------------------------------------------------------------------

                         BASIS SET STATISTICS AND STARTUP INFO

 # of primitive gaussian shells          ...   46
 # of primitive gaussian functions       ...   70
 # of contracted shells                  ...   20
 # of contracted basis functions         ...   36
 Highest angular momentum                ...    2
 Maximum contraction depth               ...    6
 Integral package used                   ... LIBINT
 Integral threshhold            Thresh   ...  1.000e-10
 Primitive cut-off              TCut     ...  1.000e-11


------------------------------ INTEGRAL EVALUATION ----------------------------


 * One electron integrals 
 Pre-screening matrix                    ... done
 Shell pair data                         ... done (   0.000 sec)

-------------------------------------------------------------------------------
                                 ORCA SCF
-------------------------------------------------------------------------------

------------
SCF SETTINGS
------------
Hamiltonian:
 Density Functional     Method          .... DFT(GTOs)
 Exchange Functional    Exchange        .... WB97X-D3
 Correlation Functional Correlation     .... WB97X-D3
 Gradients option       PostSCFGGA      .... off
 Hybrid DFT is turned on
   Fraction HF Exchange ScalHFX         ....  0.195728
   Scaling of DF-GGA-X  ScalDFX         ....  0.000000
   Scaling of DF-GGA-C  ScalDFC         ....  1.000000
   Scaling of DF-LDA-C  ScalLDAC        ....  1.000000
   Perturbative correction              ....  0.000000
 Long-range corrected/Screened/Range-Separated Hybrid DFT is turned on
   Amount of maximum screened exact exchange              ....  0.804272
   Range separation parameter mu (erf(mu*r12)/r12)        ....  0.250000


General Settings:
 Integral files         IntName         .... Scan_23
 Hartree-Fock type      HFTyp           .... RHF
 Total Charge           Charge          ....    0
 Multiplicity           Mult            ....    1
 Number of Electrons    NEL             ....   16
 Basis Dimension        Dim             ....   36
 Nuclear Repulsion      ENuc            ....     24.0435681134 Eh

Convergence Acceleration:
 DIIS                   CNVDIIS         .... on
   Start iteration      DIISMaxIt       ....     0
   Startup error        DIISStart       ....  0.200000
   # of expansion vecs  DIISMaxEq       ....     5
   Bias factor          DIISBfac        ....   1.050
   Max. coefficient     DIISMaxC        ....  10.000
 Newton-Raphson         CNVNR           .... off
 SOSCF                  CNVSOSCF        .... off
 Level Shifting         CNVShift        .... off
 Zerner damping         CNVZerner       .... off
 Static damping         CNVDamp         .... off
 Fernandez-Rico         CNVRico         .... off

SCF Procedure:
 Maximum # iterations   MaxIter         ....   999
 SCF integral mode      SCFMode         .... Direct
   Integral package                     .... LIBINT
 Reset frequeny         DirectResetFreq ....    20
 Integral Threshold     Thresh          ....  1.000e-10 Eh
 Primitive CutOff       TCut            ....  1.000e-11 Eh

Convergence Tolerance:
 Convergence Check Mode ConvCheckMode   .... All-Criteria
 Convergence forced     ConvForced      .... 0
 Energy Change          TolE            ....  1.000e-06 Eh
 Max Density Change     TolMaxP         ....  1.000e-05
 RMS Density Change     TolRMSP         ....  1.000e-06
 DIIS Error             TolErr          ....  1.000e-06


Diagonalization of the overlap matrix:
Smallest eigenvalue                        ... 3.217e-02
Time for diagonalization                   ...    0.001 sec
Threshold for overlap eigenvalues          ... 1.000e-08
Number of eigenvalues below threshold      ... 0
Time for construction of square roots      ...    0.007 sec
Total time needed                          ...    0.007 sec

-------------------
DFT GRID GENERATION
-------------------

General Integration Accuracy     IntAcc      ...  4.340
Radial Grid Type                 RadialGrid  ... Gauss-Chebyshev
Angular Grid (max. acc.)         AngularGrid ... Lebedev-110
Angular grid pruning method      GridPruning ... 3 (G Style)
Weight generation scheme         WeightScheme... Becke
Basis function cutoff            BFCut       ...    1.0000e-10
Integration weight cutoff        WCut        ...    1.0000e-14
Grids for H and He will be reduced by one unit

# of grid points (after initial pruning)     ...   6488 (   0.0 sec)
# of grid points (after weights+screening)   ...   6326 (   0.0 sec)
nearest neighbour list constructed           ...    0.0 sec
Grid point re-assignment to atoms done       ...    0.0 sec
Grid point division into batches done        ...    0.0 sec
Reduced shell lists constructed in    0.0 sec

Total number of grid points                  ...     6326
Total number of batches                      ...      102
Average number of points per batch           ...       62
Average number of grid points per atom       ...     1054
Average number of shells per batch           ...    16.77 (83.83%)
Average number of basis functions per batch  ...    30.92 (85.90%)
Average number of large shells per batch     ...    14.16 (84.42%)
Average number of large basis fcns per batch ...    25.51 (82.51%)
Maximum spatial batch extension              ...  22.59, 22.36, 23.60 au
Average spatial batch extension              ...   5.41,  5.23,  5.37 au

Time for grid setup =    0.070 sec

------------------------------
INITIAL GUESS: MODEL POTENTIAL
------------------------------
Loading Hartree-Fock densities                     ... done
Calculating cut-offs                               ... done
Setting up the integral package                    ... done
Initializing the effective Hamiltonian             ... done
Starting the Coulomb interaction                   ... done (   0.0 sec)
Reading the grid                                   ... done
Mapping shells                                     ... done
Starting the XC term evaluation                    ... done (   0.1 sec)
  promolecular density results
     # of electrons  =     15.993716314
     EX              =    -11.200479049
     EC              =     -0.453464474
     EX+EC           =    -11.653943523
Transforming the Hamiltonian                       ... done (   0.0 sec)
Diagonalizing the Hamiltonian                      ... done (   0.0 sec)
Back transforming the eigenvectors                 ... done (   0.0 sec)
Now organizing SCF variables                       ... done
                      ------------------
                      INITIAL GUESS DONE (   0.8 sec)
                      ------------------
--------------
SCF ITERATIONS
--------------
ITER       Energy         Delta-E        Max-DP      RMS-DP      [F,P]   Gradient Norm
               ***  Starting incremental Fock matrix formation  ***
                             ****Resetting KDIIS****
                             ****Turning on KDIIS(Cayley)****
  0    -78.2017544801   0.000000000000 0.00857239  0.00096393  0.0522872   0.046948849
  1    -78.2083985880  -0.006644107955 0.01396334  0.00133942  0.0452626   0.040496950
  2    -78.2159613885  -0.007562800431 0.03614801  0.00334723  0.0370289   0.033177905
  3    -78.2283689697  -0.012407581207 0.07272483  0.00668554  0.0215860   0.019765650
  4    -78.2364564847  -0.008087515067 0.00742223  0.00075432  0.0021526   0.001631499
  5    -78.2365375415  -0.000081056764 0.00136392  0.00012925  0.0006919   0.000451684
  6    -78.2365434585  -0.000005916955 0.00136060  0.00016959  0.0005571   0.000303629
  7    -78.2365496604  -0.000006201914 0.00065446  0.00005925  0.0001399   0.000179449
                          ***Energy convergence achieved***
  8    -78.2365506171  -0.000000956769 0.00033855  0.00003485  0.0000516   0.000045738

            ***Energy convergence in two consecutive cycles with***
                    ***'reasonable' density convergence***
                       *** signaling convergence ***

                    *** KDIIS BlockDiag ( 0.000 sec) ***

               *****************************************************
               *                     SUCCESS                       *
               *           SCF CONVERGED AFTER   9 CYCLES          *
               *****************************************************

Setting up the final grid:

General Integration Accuracy     IntAcc      ...  4.670
Radial Grid Type                 RadialGrid  ... Gauss-Chebyshev
Angular Grid (max. acc.)         AngularGrid ... Lebedev-302
Angular grid pruning method      GridPruning ... 3 (G Style)
Weight generation scheme         WeightScheme... Becke
Basis function cutoff            BFCut       ...    1.0000e-10
Integration weight cutoff        WCut        ...    1.0000e-14
Grids for H and He will be reduced by one unit

# of grid points (after initial pruning)     ...  26000 (   0.0 sec)
# of grid points (after weights+screening)   ...  25406 (   0.1 sec)
nearest neighbour list constructed           ...    0.0 sec
Grid point re-assignment to atoms done       ...    0.0 sec
Grid point division into batches done        ...    0.2 sec
Reduced shell lists constructed in    0.5 sec

Total number of grid points                  ...    25406
Total number of batches                      ...      400
Average number of points per batch           ...       63
Average number of grid points per atom       ...     4234
Average number of shells per batch           ...    15.14 (75.69%)
Average number of basis functions per batch  ...    27.85 (77.35%)
Average number of large shells per batch     ...    12.43 (82.11%)
Average number of large basis fcns per batch ...    22.22 (79.81%)
Maximum spatial batch extension              ...  20.22, 18.39, 21.70 au
Average spatial batch extension              ...   3.27,  3.38,  3.36 au

Final grid set up in    0.8 sec
Final integration                            ... done (   0.4 sec)
Change in XC energy                          ...     0.001083769
Integrated number of electrons               ...    15.999991048
Previous integrated no of electrons          ...    15.997692511

----------------
TOTAL SCF ENERGY
----------------

Total Energy       :          -78.23546697 Eh           -2128.89529 eV

Components:
Nuclear Repulsion  :           24.04356811 Eh             654.25875 eV
Electronic Energy  :         -102.27903508 Eh           -2783.15404 eV
One Electron Energy:         -151.35767841 Eh           -4118.65182 eV
Two Electron Energy:           49.07864333 Eh            1335.49778 eV

Virial components:
Potential Energy   :         -155.98761747 Eh           -4244.63886 eV
Kinetic Energy     :           77.75215050 Eh            2115.74358 eV
Virial Ratio       :            2.00621612


DFT components:
N(Alpha)           :        7.999995524211 electrons
N(Beta)            :        7.999995524211 electrons
N(Total)           :       15.999991048422 electrons
E(XC)              :       -8.119135074976 Eh       

---------------
SCF CONVERGENCE
---------------

  Last Energy change         ...   -1.2028e-07  Tolerance :   1.0000e-06
  Last MAX-Density change    ...    5.9099e-05  Tolerance :   1.0000e-05
  Last RMS-Density change    ...    6.2734e-06  Tolerance :   1.0000e-06
  Last DIIS Error            ...    1.4423e-05  Tolerance :   1.0000e-06

             **** THE GBW FILE WAS UPDATED (Scan_23.gbw) ****
             **** DENSITY FILE WAS UPDATED (Scan_23.scfp.tmp) ****
             **** ENERGY FILE WAS UPDATED (Scan_23.en.tmp) ****
----------------
ORBITAL ENERGIES
----------------

  NO   OCC          E(Eh)            E(eV) 
   0   2.0000     -10.337273      -281.2915 
   1   2.0000     -10.337248      -281.2908 
   2   2.0000      -0.773303       -21.0426 
   3   2.0000      -0.755899       -20.5691 
   4   2.0000      -0.536371       -14.5954 
   5   2.0000      -0.526874       -14.3370 
   6   2.0000      -0.328815        -8.9475 
   7   2.0000      -0.292862        -7.9692 
   8   0.0000      -0.039828        -1.0838 
   9   0.0000       0.036898         1.0040 
  10   0.0000       0.210684         5.7330 
  11   0.0000       0.236779         6.4431 
  12   0.0000       0.284126         7.7315 
  13   0.0000       0.290426         7.9029 
  14   0.0000       0.597261        16.2523 
  15   0.0000       0.622022        16.9261 
  16   0.0000       0.674825        18.3629 
  17   0.0000       0.698456        19.0059 
  18   0.0000       0.718734        19.5578 
  19   0.0000       0.733735        19.9660 
  20   0.0000       0.756823        20.5942 
  21   0.0000       0.987246        26.8643 
  22   0.0000       1.020336        27.7648 
  23   0.0000       1.033266        28.1166 
  24   0.0000       1.042547        28.3692 
  25   0.0000       1.142098        31.0781 
  26   0.0000       1.753549        47.7165 
  27   0.0000       1.761533        47.9338 
  28   0.0000       1.793489        48.8033 
  29   0.0000       1.796759        48.8923 
  30   0.0000       1.809174        49.2301 
  31   0.0000       1.871619        50.9293 
  32   0.0000       2.191915        59.6450 
  33   0.0000       2.205825        60.0235 
  34   0.0000       2.292680        62.3870 
  35   0.0000       2.345849        63.8338 

                    ********************************
                    * MULLIKEN POPULATION ANALYSIS *
                    ********************************

-----------------------
MULLIKEN ATOMIC CHARGES
-----------------------
   0 C :   -0.366549
   1 C :   -0.366528
   2 H :    0.183233
   3 H :    0.183309
   4 H :    0.183305
   5 H :    0.183230
Sum of atomic charges:    0.0000000

--------------------------------
MULLIKEN REDUCED ORBITAL CHARGES
--------------------------------
  0 C s       :     3.625057  s :     3.625057
      pz      :     0.980950  p :     2.720258
      px      :     0.752431
      py      :     0.986877
      dz2     :     0.006247  d :     0.021235
      dxz     :     0.004300
      dyz     :     0.002537
      dx2y2   :     0.003140
      dxy     :     0.005010
  1 C s       :     3.625054  s :     3.625054
      pz      :     0.980959  p :     2.720239
      px      :     0.752399
      py      :     0.986882
      dz2     :     0.006248  d :     0.021235
      dxz     :     0.004300
      dyz     :     0.002537
      dx2y2   :     0.003140
      dxy     :     0.005010
  2 H s       :     0.816767  s :     0.816767
  3 H s       :     0.816691  s :     0.816691
  4 H s       :     0.816695  s :     0.816695
  5 H s       :     0.816770  s :     0.816770


                     *******************************
                     * LOEWDIN POPULATION ANALYSIS *
                     *******************************

----------------------
LOEWDIN ATOMIC CHARGES
----------------------
   0 C :   -0.268060
   1 C :   -0.268041
   2 H :    0.134180
   3 H :    0.133873
   4 H :    0.133870
   5 H :    0.134177

-------------------------------
LOEWDIN REDUCED ORBITAL CHARGES
-------------------------------
  0 C s       :     3.370075  s :     3.370075
      pz      :     1.037835  p :     2.867124
      px      :     0.774084
      py      :     1.055205
      dz2     :     0.009319  d :     0.030860
      dxz     :     0.005578
      dyz     :     0.004180
      dx2y2   :     0.005044
      dxy     :     0.006738
  1 C s       :     3.370072  s :     3.370072
      pz      :     1.037845  p :     2.867108
      px      :     0.774052
      py      :     1.055211
      dz2     :     0.009320  d :     0.030860
      dxz     :     0.005578
      dyz     :     0.004180
      dx2y2   :     0.005044
      dxy     :     0.006738
  2 H s       :     0.865820  s :     0.865820
  3 H s       :     0.866127  s :     0.866127
  4 H s       :     0.866130  s :     0.866130
  5 H s       :     0.865823  s :     0.865823


                      *****************************
                      * MAYER POPULATION ANALYSIS *
                      *****************************

  NA   - Mulliken gross atomic population
  ZA   - Total nuclear charge
  QA   - Mulliken gross atomic charge
  VA   - Mayer's total valence
  BVA  - Mayer's bonded valence
  FA   - Mayer's free valence

  ATOM       NA         ZA         QA         VA         BVA        FA
  0 C      6.3665     6.0000    -0.3665     2.4212     2.4212    -0.0000
  1 C      6.3665     6.0000    -0.3665     2.4212     2.4212     0.0000
  2 H      0.8168     1.0000     0.1832     0.9267     0.9267    -0.0000
  3 H      0.8167     1.0000     0.1833     0.9267     0.9267    -0.0000
  4 H      0.8167     1.0000     0.1833     0.9267     0.9267     0.0000
  5 H      0.8168     1.0000     0.1832     0.9267     0.9267     0.0000

  Mayer bond orders larger than 0.1
B(  0-C ,  1-C ) :   0.5699 B(  0-C ,  2-H ) :   0.9220 B(  0-C ,  3-H ) :   0.9220 
B(  1-C ,  4-H ) :   0.9220 B(  1-C ,  5-H ) :   0.9220 

-------
TIMINGS
-------

Total SCF time: 0 days 0 hours 0 min 11 sec 

Total time                  ....      11.589 sec
Sum of individual times     ....      11.036 sec  ( 95.2%)

Fock matrix formation       ....       9.323 sec  ( 80.4%)
  XC integration            ....       2.739 sec  ( 29.4% of F)
    Basis function eval.    ....       0.667 sec  ( 24.3% of XC)
    Density eval.           ....       0.118 sec  (  4.3% of XC)
    XC-Functional eval.     ....       0.709 sec  ( 25.9% of XC)
    XC-Potential eval.      ....       0.097 sec  (  3.5% of XC)
Diagonalization             ....       0.114 sec  (  1.0%)
Density matrix formation    ....       0.000 sec  (  0.0%)
Population analysis         ....       0.019 sec  (  0.2%)
Initial guess               ....       0.745 sec  (  6.4%)
Orbital Transformation      ....       0.000 sec  (  0.0%)
Orbital Orthonormalization  ....       0.000 sec  (  0.0%)
DIIS solution               ....       0.000 sec  (  0.0%)
Grid generation             ....       0.835 sec  (  7.2%)


-------------------------------------------------------------------------------
                          DFT DISPERSION CORRECTION                            
                                                                               
                              DFTD3 V3.1  Rev 1                                
                              USING zero damping                               
-------------------------------------------------------------------------------
The omegaB97X-D3 functional is recognized. Fit by Chai et al.
Active option DFTDOPT                   ...         3   

molecular C6(AA) [au] = 320.089748 


            DFT-D V3
 parameters
 s6 scaling factor         :     1.0000 
 rs6 scaling factor        :     1.2810 
 s8 scaling factor         :     1.0000 
 rs8 scaling factor        :     1.0940 
 Damping factor alpha6     :    14.0000 
 Damping factor alpha8     :    16.0000 
 ad hoc parameters k1-k3   :    16.0000     1.3333    -4.0000 

 Edisp/kcal,au: -0.393464562995  -0.000627025626 
 E6   /kcal   :  -0.148238690 
 E8   /kcal   :  -0.245225873 
 % E8         :  62.324767189 

-------------------------   ----------------
Dispersion correction           -0.000627026
-------------------------   ----------------


-------------------------   --------------------
FINAL SINGLE POINT ENERGY       -78.236093994288
-------------------------   --------------------


                            ***************************************
                            *     ORCA property calculations      *
                            ***************************************

                                    ---------------------
                                    Active property flags
                                    ---------------------
   (+) Dipole Moment


------------------------------------------------------------------------------
                       ORCA ELECTRIC PROPERTIES CALCULATION
------------------------------------------------------------------------------

Dipole Moment Calculation                       ... on
Quadrupole Moment Calculation                   ... off
Polarizability Calculation                      ... off
GBWName                                         ... Scan_23.gbw
Electron density file                           ... Scan_23.scfp.tmp

-------------
DIPOLE MOMENT
-------------
                                X             Y             Z
Electronic contribution:      0.00003       0.00001      -0.00001
Nuclear contribution   :     -0.00001      -0.00001       0.00001
                        -----------------------------------------
Total Dipole Moment    :      0.00002       0.00000      -0.00000
                        -----------------------------------------
Magnitude (a.u.)       :      0.00002
Magnitude (Debye)      :      0.00005


Timings for individual modules:

Sum of individual times         ...       13.248 sec (=   0.221 min)
GTO integral calculation        ...        1.278 sec (=   0.021 min)   9.6 %
SCF iterations                  ...       11.970 sec (=   0.200 min)  90.4 %
                             ****ORCA TERMINATED NORMALLY****
TOTAL RUN TIME: 0 days 0 hours 0 minutes 14 seconds 313 msec
