
                                 *****************
                                 * O   R   C   A *
                                 *****************

           --- An Ab Initio, DFT and Semiempirical electronic structure package ---

                  #######################################################
                  #                        -***-                        #
                  #  Department of molecular theory and spectroscopy    #
                  #              Directorship: Frank Neese              #
                  # Max Planck Institute for Chemical Energy Conversion #
                  #                  D-45470 Muelheim/Ruhr              #
                  #                       Germany                       #
                  #                                                     #
                  #                  All rights reserved                #
                  #                        -***-                        #
                  #######################################################


                         Program Version 4.0.0.2 - RELEASE -


 With contributions from (in alphabetic order):
   Daniel Aravena         : Magnetic Properties
   Michael Atanasov       : Ab Initio Ligand Field Theory
   Ute Becker             : Parallelization
   Martin Brehm           : Molecular dynamics
   Dmytro Bykov           : SCF Hessian
   Vijay G. Chilkuri      : MRCI spin determinant printing
   Dipayan Datta          : RHF DLPNO-CCSD density
   Achintya Kumar Dutta   : EOM-CC, STEOM-CC
   Dmitry Ganyushin       : Spin-Orbit,Spin-Spin,Magnetic field MRCI
   Yang Guo               : DLPNO-NEVPT2, CIM, IAO-localization
   Andreas Hansen         : Spin unrestricted coupled pair/coupled cluster methods
   Lee Huntington         : MR-EOM, pCC
   Robert Izsak           : Overlap fitted RIJCOSX, COSX-SCS-MP3, EOM
   Christian Kollmar      : KDIIS, OOCD, Brueckner-CCSD(T), CCSD density
   Simone Kossmann        : Meta GGA functionals, TD-DFT gradient, OOMP2, MP2 Hessian
   Martin Krupicka        : AUTO-CI
   Dagmar Lenk            : GEPOL surface
   Dimitrios Liakos       : Extrapolation schemes; parallel MDCI
   Dimitrios Manganas     : ROCIS; embedding schemes
   Dimitrios Pantazis     : SARC Basis sets
   Taras Petrenko         : DFT Hessian,TD-DFT gradient, ASA, ECA, R-Raman, ABS, FL, XAS/XES, NRVS
   Peter Pinski           : DLPNO-MP2
   Christoph Reimann      : Effective Core Potentials
   Marius Retegan         : Local ZFS, SOC
   Christoph Riplinger    : Optimizer, TS searches, QM/MM, DLPNO-CCSD(T), (RO)-DLPNO pert. Triples
   Tobias Risthaus        : Range-separated hybrids, TD-DFT gradient, RPA, STAB
   Michael Roemelt        : Restricted open shell CIS
   Masaaki Saitow         : Open-shell DLPNO
   Barbara Sandhoefer     : DKH picture change effects
   Kantharuban Sivalingam : CASSCF convergence, NEVPT2, FIC-MRCI
   Georgi Stoychev        : AutoAux
   Boris Wezisla          : Elementary symmetry handling
   Frank Wennmohs         : Technical directorship


 We gratefully acknowledge several colleagues who have allowed us to
 interface, adapt or use parts of their codes:
   Stefan Grimme, W. Hujo, H. Kruse,             : VdW corrections, initial TS optimization,
                  C. Bannwarth                     DFT functionals, gCP, sTDA/sTD-DF
   Ed Valeev                                     : LibInt (2-el integral package), F12 methods
   Garnet Chan, S. Sharma, J. Yang, R. Olivares  : DMRG
   Ulf Ekstrom                                   : XCFun DFT Library
   Mihaly Kallay                                 : mrcc  (arbitrary order and MRCC methods)
   Jiri Pittner, Ondrej Demel                    : Mk-CCSD
   Frank Weinhold                                : gennbo (NPA and NBO analysis)
   Christopher J. Cramer and Donald G. Truhlar   : smd solvation model


 Your calculation uses the libint2 library for the computation of 2-el integrals
 For citations please refer to: http://libint.valeyev.net

 This ORCA versions uses:
   CBLAS   interface :  Fast vector & matrix operations
   LAPACKE interface :  Fast linear algebra routines
   SCALAPACK package :  Parallel linear algebra routines


Your calculation utilizes the atom-pairwise dispersion correction
with the zero-damping scheme (D30)
Cite in your paper:
S.Grimme, J.Antony, S.Ehrlich and H.Krieg, J.Chem.Phys., 132, (2010), 154104 
   

XCFun DFT library Copyright 2009-2010 Ulf Ekstrom and contributors.
See http://admol.org/xcfun for more information. This is free soft-
ware; see the source code for copying conditions. There is ABSOLUTELY
NO WARRANTY; not even for MERCHANTABILITY or FITNESS FOR A PARTICULAR
PURPOSE. For details see the documentation. Scientific users of this 
library should cite U. Ekstrom, L. Visscher, R. Bast, A. J. Thorvald-
sen and K. Ruud; J.Chem.Theor.Comp. 2010, DOI: 10.1021/ct100117s
XCFun Version 0.99 
Your calculation utilizes the basis: 6-31G(d)
   H-He, Li-Ne : W. J. Hehre, R. Ditchfield and J.A. Pople, J. Chem. Phys. 56, 2257 (1972).
                 Note: He and Ne are unpublished basis sets taken from the Gaussian program.
                 Note: Li and B from J. D. Dill and J. A. Pople, J. Chem. Phys. 62, 2921 (1975).
   Na - Ar     : M. M. Francl, W. J. Pietro, W. J. Hehre, J. S. Binkley, M. S. Gordon, 
                 D. J. DeFrees and J. A. Pople, J. Chem. Phys. 77, 3654 (1982).
   K - Zn      : V. A. Rassolov, J. A. Pople, M. A. Ratner, and T. L. Windus, J. Chem. Phys. 109, 1223 (1998).

================================================================================
                                        WARNINGS
                       Please study these warnings very carefully!
================================================================================

Warning: TCutStore was < 0. Adjusted to Thresh (uncritical)

INFO   : the flag for use of LIBINT has been found!

================================================================================
                                       INPUT FILE
================================================================================
NAME = initial24.inp
|  1> ! WB97X-D3 6-31G(d) VerySlowConv
|  2> ! KDIIS NOSOSCF
|  3> %base "Scan_24"
|  4> 
|  5> %scf
|  6> maxiter 999
|  7> end
|  8> 
|  9> * xyz 0 1
| 10> C         -2.393181889917    1.055008374766    0.250521883343
| 11> C          0.355423661632    1.495534106232   -0.250520882794
| 12> H         -2.702067347530    0.617243477543   -0.682472927855
| 13> H         -2.709610840995    2.044350534952    0.530883181425
| 14> H          0.671854951959    0.506193219868   -0.530883701963
| 15> H          0.664311464851    1.933300286639    0.682472447845
| 16> **                         ****END OF INPUT****
================================================================================

                       ****************************
                       * Single Point Calculation *
                       ****************************

---------------------------------
CARTESIAN COORDINATES (ANGSTROEM)
---------------------------------
  C     -2.393182    1.055008    0.250522
  C      0.355424    1.495534   -0.250521
  H     -2.702067    0.617243   -0.682473
  H     -2.709611    2.044351    0.530883
  H      0.671855    0.506193   -0.530884
  H      0.664311    1.933300    0.682472

----------------------------
CARTESIAN COORDINATES (A.U.)
----------------------------
  NO LB      ZA    FRAG     MASS         X           Y           Z
   0 C     6.0000    0    12.011   -4.522458    1.993677    0.473418
   1 C     6.0000    0    12.011    0.671653    2.826150   -0.473416
   2 H     1.0000    0     1.008   -5.106167    1.166421   -1.289687
   3 H     1.0000    0     1.008   -5.120422    3.863263    1.003224
   4 H     1.0000    0     1.008    1.269622    0.956567   -1.003225
   5 H     1.0000    0     1.008    1.255367    3.653408    1.289686

--------------------------------
INTERNAL COORDINATES (ANGSTROEM)
--------------------------------
 C      0   0   0     0.000000000000     0.00000000     0.00000000
 C      1   0   0     2.828416385822     0.00000000     0.00000000
 H      1   2   0     1.075884589019   100.87994186     0.00000000
 H      1   2   3     1.075884588822   100.87994204   235.13163659
 H      2   1   3     1.075884501841   100.88009157   304.86843018
 H      2   1   3     1.075884500633   100.88009144   179.99993483

---------------------------
INTERNAL COORDINATES (A.U.)
---------------------------
 C      0   0   0     0.000000000000     0.00000000     0.00000000
 C      1   0   0     5.344932361899     0.00000000     0.00000000
 H      1   2   0     2.033127224952   100.87994186     0.00000000
 H      1   2   3     2.033127224579   100.87994204   235.13163659
 H      2   1   3     2.033127060210   100.88009157   304.86843018
 H      2   1   3     2.033127057927   100.88009144   179.99993483

---------------------
BASIS SET INFORMATION
---------------------
There are 2 groups of distinct atoms

 Group   1 Type C   : 10s4p1d contracted to 3s2p1d pattern {631/31/1}
 Group   2 Type H   : 4s contracted to 2s pattern {31}

Atom   0C    basis set group =>   1
Atom   1C    basis set group =>   1
Atom   2H    basis set group =>   2
Atom   3H    basis set group =>   2
Atom   4H    basis set group =>   2
Atom   5H    basis set group =>   2
------------------------------------------------------------------------------
                           ORCA GTO INTEGRAL CALCULATION
------------------------------------------------------------------------------

                         BASIS SET STATISTICS AND STARTUP INFO

 # of primitive gaussian shells          ...   46
 # of primitive gaussian functions       ...   70
 # of contracted shells                  ...   20
 # of contracted basis functions         ...   36
 Highest angular momentum                ...    2
 Maximum contraction depth               ...    6
 Integral package used                   ... LIBINT
 Integral threshhold            Thresh   ...  1.000e-10
 Primitive cut-off              TCut     ...  1.000e-11


------------------------------ INTEGRAL EVALUATION ----------------------------


 * One electron integrals 
 Pre-screening matrix                    ... done
 Shell pair data                         ... done (   0.000 sec)

-------------------------------------------------------------------------------
                                 ORCA SCF
-------------------------------------------------------------------------------

------------
SCF SETTINGS
------------
Hamiltonian:
 Density Functional     Method          .... DFT(GTOs)
 Exchange Functional    Exchange        .... WB97X-D3
 Correlation Functional Correlation     .... WB97X-D3
 Gradients option       PostSCFGGA      .... off
 Hybrid DFT is turned on
   Fraction HF Exchange ScalHFX         ....  0.195728
   Scaling of DF-GGA-X  ScalDFX         ....  0.000000
   Scaling of DF-GGA-C  ScalDFC         ....  1.000000
   Scaling of DF-LDA-C  ScalLDAC        ....  1.000000
   Perturbative correction              ....  0.000000
 Long-range corrected/Screened/Range-Separated Hybrid DFT is turned on
   Amount of maximum screened exact exchange              ....  0.804272
   Range separation parameter mu (erf(mu*r12)/r12)        ....  0.250000


General Settings:
 Integral files         IntName         .... Scan_24
 Hartree-Fock type      HFTyp           .... RHF
 Total Charge           Charge          ....    0
 Multiplicity           Mult            ....    1
 Number of Electrons    NEL             ....   16
 Basis Dimension        Dim             ....   36
 Nuclear Repulsion      ENuc            ....     23.6480062101 Eh

Convergence Acceleration:
 DIIS                   CNVDIIS         .... on
   Start iteration      DIISMaxIt       ....     0
   Startup error        DIISStart       ....  0.200000
   # of expansion vecs  DIISMaxEq       ....     5
   Bias factor          DIISBfac        ....   1.050
   Max. coefficient     DIISMaxC        ....  10.000
 Newton-Raphson         CNVNR           .... off
 SOSCF                  CNVSOSCF        .... off
 Level Shifting         CNVShift        .... off
 Zerner damping         CNVZerner       .... off
 Static damping         CNVDamp         .... off
 Fernandez-Rico         CNVRico         .... off

SCF Procedure:
 Maximum # iterations   MaxIter         ....   999
 SCF integral mode      SCFMode         .... Direct
   Integral package                     .... LIBINT
 Reset frequeny         DirectResetFreq ....    20
 Integral Threshold     Thresh          ....  1.000e-10 Eh
 Primitive CutOff       TCut            ....  1.000e-11 Eh

Convergence Tolerance:
 Convergence Check Mode ConvCheckMode   .... All-Criteria
 Convergence forced     ConvForced      .... 0
 Energy Change          TolE            ....  1.000e-06 Eh
 Max Density Change     TolMaxP         ....  1.000e-05
 RMS Density Change     TolRMSP         ....  1.000e-06
 DIIS Error             TolErr          ....  1.000e-06


Diagonalization of the overlap matrix:
Smallest eigenvalue                        ... 3.249e-02
Time for diagonalization                   ...    0.001 sec
Threshold for overlap eigenvalues          ... 1.000e-08
Number of eigenvalues below threshold      ... 0
Time for construction of square roots      ...    0.036 sec
Total time needed                          ...    0.037 sec

-------------------
DFT GRID GENERATION
-------------------

General Integration Accuracy     IntAcc      ...  4.340
Radial Grid Type                 RadialGrid  ... Gauss-Chebyshev
Angular Grid (max. acc.)         AngularGrid ... Lebedev-110
Angular grid pruning method      GridPruning ... 3 (G Style)
Weight generation scheme         WeightScheme... Becke
Basis function cutoff            BFCut       ...    1.0000e-10
Integration weight cutoff        WCut        ...    1.0000e-14
Grids for H and He will be reduced by one unit

# of grid points (after initial pruning)     ...   6488 (   0.0 sec)
# of grid points (after weights+screening)   ...   6328 (   0.0 sec)
nearest neighbour list constructed           ...    0.0 sec
Grid point re-assignment to atoms done       ...    0.0 sec
Grid point division into batches done        ...    0.0 sec
Reduced shell lists constructed in    0.0 sec

Total number of grid points                  ...     6328
Total number of batches                      ...      102
Average number of points per batch           ...       62
Average number of grid points per atom       ...     1055
Average number of shells per batch           ...    16.62 (83.11%)
Average number of basis functions per batch  ...    30.49 (84.68%)
Average number of large shells per batch     ...    13.92 (83.76%)
Average number of large basis fcns per batch ...    24.99 (81.97%)
Maximum spatial batch extension              ...  22.93, 22.36, 23.60 au
Average spatial batch extension              ...   5.46,  5.19,  5.35 au

Time for grid setup =    0.070 sec

------------------------------
INITIAL GUESS: MODEL POTENTIAL
------------------------------
Loading Hartree-Fock densities                     ... done
Calculating cut-offs                               ... done
Setting up the integral package                    ... done
Initializing the effective Hamiltonian             ... done
Starting the Coulomb interaction                   ... done (   0.0 sec)
Reading the grid                                   ... done
Mapping shells                                     ... done
Starting the XC term evaluation                    ... done (   0.1 sec)
  promolecular density results
     # of electrons  =     15.993166030
     EX              =    -11.198516951
     EC              =     -0.452509160
     EX+EC           =    -11.651026110
Transforming the Hamiltonian                       ... done (   0.0 sec)
Diagonalizing the Hamiltonian                      ... done (   0.0 sec)
Back transforming the eigenvectors                 ... done (   0.0 sec)
Now organizing SCF variables                       ... done
                      ------------------
                      INITIAL GUESS DONE (   0.9 sec)
                      ------------------
--------------
SCF ITERATIONS
--------------
ITER       Energy         Delta-E        Max-DP      RMS-DP      [F,P]   Gradient Norm
               ***  Starting incremental Fock matrix formation  ***
                             ****Resetting KDIIS****
                             ****Turning on KDIIS(Cayley)****
  0    -78.1937387173   0.000000000000 0.00854063  0.00097979  0.0521766   0.047162093
  1    -78.2004730232  -0.006734305838 0.01490079  0.00137573  0.0451157   0.040718582
  2    -78.2082240440  -0.007751020811 0.03849071  0.00344296  0.0369291   0.033407453
  3    -78.2209986401  -0.012774596106 0.07119320  0.00642509  0.0215570   0.019895498
  4    -78.2290340698  -0.008035429766 0.00681362  0.00069610  0.0018607   0.001568879
  5    -78.2290996521  -0.000065582282 0.00203836  0.00019657  0.0009187   0.000537967
  6    -78.2291110700  -0.000011417916 0.00192490  0.00025058  0.0007032   0.000411662
  7    -78.2291226353  -0.000011565305 0.00062804  0.00006733  0.0001224   0.000098510
                          ***Energy convergence achieved***
  8    -78.2291231671  -0.000000531783 0.00012639  0.00001019  0.0000268   0.000035392

            ***Energy convergence in two consecutive cycles with***
                    ***'reasonable' density convergence***
                       *** signaling convergence ***

                    *** KDIIS BlockDiag ( 0.000 sec) ***

               *****************************************************
               *                     SUCCESS                       *
               *           SCF CONVERGED AFTER   9 CYCLES          *
               *****************************************************

Setting up the final grid:

General Integration Accuracy     IntAcc      ...  4.670
Radial Grid Type                 RadialGrid  ... Gauss-Chebyshev
Angular Grid (max. acc.)         AngularGrid ... Lebedev-302
Angular grid pruning method      GridPruning ... 3 (G Style)
Weight generation scheme         WeightScheme... Becke
Basis function cutoff            BFCut       ...    1.0000e-10
Integration weight cutoff        WCut        ...    1.0000e-14
Grids for H and He will be reduced by one unit

# of grid points (after initial pruning)     ...  26000 (   0.0 sec)
# of grid points (after weights+screening)   ...  25410 (   0.0 sec)
nearest neighbour list constructed           ...    0.0 sec
Grid point re-assignment to atoms done       ...    0.0 sec
Grid point division into batches done        ...    0.1 sec
Reduced shell lists constructed in    0.5 sec

Total number of grid points                  ...    25410
Total number of batches                      ...      400
Average number of points per batch           ...       63
Average number of grid points per atom       ...     4235
Average number of shells per batch           ...    15.04 (75.22%)
Average number of basis functions per batch  ...    27.53 (76.48%)
Average number of large shells per batch     ...    12.33 (81.95%)
Average number of large basis fcns per batch ...    21.92 (79.61%)
Maximum spatial batch extension              ...  19.54, 18.44, 21.97 au
Average spatial batch extension              ...   3.29,  3.36,  3.34 au

Final grid set up in    0.6 sec
Final integration                            ... done (   0.6 sec)
Change in XC energy                          ...     0.001140091
Integrated number of electrons               ...    15.999987007
Previous integrated no of electrons          ...    15.997727562

----------------
TOTAL SCF ENERGY
----------------

Total Energy       :          -78.22798309 Eh           -2128.69164 eV

Components:
Nuclear Repulsion  :           23.64800621 Eh             643.49496 eV
Electronic Energy  :         -101.87598930 Eh           -2772.18660 eV
One Electron Energy:         -150.54506956 Eh           -4096.53961 eV
Two Electron Energy:           48.66908026 Eh            1324.35300 eV

Virial components:
Potential Energy   :         -156.02130605 Eh           -4245.55558 eV
Kinetic Energy     :           77.79332295 Eh            2116.86394 eV
Virial Ratio       :            2.00558737


DFT components:
N(Alpha)           :        7.999993503528 electrons
N(Beta)            :        7.999993503528 electrons
N(Total)           :       15.999987007056 electrons
E(XC)              :       -8.124348357995 Eh       

---------------
SCF CONVERGENCE
---------------

  Last Energy change         ...   -1.5308e-08  Tolerance :   1.0000e-06
  Last MAX-Density change    ...    5.1005e-05  Tolerance :   1.0000e-05
  Last RMS-Density change    ...    5.1485e-06  Tolerance :   1.0000e-06
  Last DIIS Error            ...    1.0992e-05  Tolerance :   1.0000e-06

             **** THE GBW FILE WAS UPDATED (Scan_24.gbw) ****
             **** DENSITY FILE WAS UPDATED (Scan_24.scfp.tmp) ****
             **** ENERGY FILE WAS UPDATED (Scan_24.en.tmp) ****
----------------
ORBITAL ENERGIES
----------------

  NO   OCC          E(Eh)            E(eV) 
   0   2.0000     -10.336711      -281.2762 
   1   2.0000     -10.336631      -281.2740 
   2   2.0000      -0.772981       -21.0339 
   3   2.0000      -0.758487       -20.6395 
   4   2.0000      -0.535904       -14.5827 
   5   2.0000      -0.527900       -14.3649 
   6   2.0000      -0.324144        -8.8204 
   7   2.0000      -0.297124        -8.0851 
   8   0.0000      -0.041166        -1.1202 
   9   0.0000       0.030417         0.8277 
  10   0.0000       0.210286         5.7222 
  11   0.0000       0.234796         6.3891 
  12   0.0000       0.282468         7.6863 
  13   0.0000       0.290054         7.8928 
  14   0.0000       0.602059        16.3828 
  15   0.0000       0.623951        16.9786 
  16   0.0000       0.672788        18.3075 
  17   0.0000       0.681841        18.5538 
  18   0.0000       0.714873        19.4527 
  19   0.0000       0.738349        20.0915 
  20   0.0000       0.741626        20.1807 
  21   0.0000       0.980986        26.6940 
  22   0.0000       1.019812        27.7505 
  23   0.0000       1.029507        28.0143 
  24   0.0000       1.038790        28.2669 
  25   0.0000       1.140740        31.0411 
  26   0.0000       1.752537        47.6890 
  27   0.0000       1.756954        47.8091 
  28   0.0000       1.796226        48.8778 
  29   0.0000       1.797740        48.9190 
  30   0.0000       1.805104        49.1194 
  31   0.0000       1.844312        50.1863 
  32   0.0000       2.184318        59.4383 
  33   0.0000       2.203721        59.9663 
  34   0.0000       2.292451        62.3808 
  35   0.0000       2.345912        63.8355 

                    ********************************
                    * MULLIKEN POPULATION ANALYSIS *
                    ********************************

-----------------------
MULLIKEN ATOMIC CHARGES
-----------------------
   0 C :   -0.364521
   1 C :   -0.364619
   2 H :    0.182235
   3 H :    0.182310
   4 H :    0.182334
   5 H :    0.182259
Sum of atomic charges:    0.0000000

--------------------------------
MULLIKEN REDUCED ORBITAL CHARGES
--------------------------------
  0 C s       :     3.640815  s :     3.640815
      pz      :     1.016768  p :     2.702096
      px      :     0.673046
      py      :     1.012282
      dz2     :     0.007184  d :     0.021610
      dxz     :     0.003989
      dyz     :     0.002218
      dx2y2   :     0.003662
      dxy     :     0.004557
  1 C s       :     3.640832  s :     3.640832
      pz      :     1.016795  p :     2.702177
      px      :     0.673073
      py      :     1.012309
      dz2     :     0.007183  d :     0.021610
      dxz     :     0.003989
      dyz     :     0.002218
      dx2y2   :     0.003662
      dxy     :     0.004558
  2 H s       :     0.817765  s :     0.817765
  3 H s       :     0.817690  s :     0.817690
  4 H s       :     0.817666  s :     0.817666
  5 H s       :     0.817741  s :     0.817741


                     *******************************
                     * LOEWDIN POPULATION ANALYSIS *
                     *******************************

----------------------
LOEWDIN ATOMIC CHARGES
----------------------
   0 C :   -0.265258
   1 C :   -0.265344
   2 H :    0.132697
   3 H :    0.132586
   4 H :    0.132604
   5 H :    0.132714

-------------------------------
LOEWDIN REDUCED ORBITAL CHARGES
-------------------------------
  0 C s       :     3.385261  s :     3.385261
      pz      :     1.075033  p :     2.848819
      px      :     0.692165
      py      :     1.081622
      dz2     :     0.010605  d :     0.031177
      dxz     :     0.005075
      dyz     :     0.003800
      dx2y2   :     0.005670
      dxy     :     0.006026
  1 C s       :     3.385277  s :     3.385277
      pz      :     1.075056  p :     2.848891
      px      :     0.692192
      py      :     1.081643
      dz2     :     0.010605  d :     0.031176
      dxz     :     0.005076
      dyz     :     0.003800
      dx2y2   :     0.005670
      dxy     :     0.006026
  2 H s       :     0.867303  s :     0.867303
  3 H s       :     0.867414  s :     0.867414
  4 H s       :     0.867396  s :     0.867396
  5 H s       :     0.867286  s :     0.867286


                      *****************************
                      * MAYER POPULATION ANALYSIS *
                      *****************************

  NA   - Mulliken gross atomic population
  ZA   - Total nuclear charge
  QA   - Mulliken gross atomic charge
  VA   - Mayer's total valence
  BVA  - Mayer's bonded valence
  FA   - Mayer's free valence

  ATOM       NA         ZA         QA         VA         BVA        FA
  0 C      6.3645     6.0000    -0.3645     2.2572     2.2572    -0.0000
  1 C      6.3646     6.0000    -0.3646     2.2572     2.2572     0.0000
  2 H      0.8178     1.0000     0.1822     0.9261     0.9261    -0.0000
  3 H      0.8177     1.0000     0.1823     0.9262     0.9262    -0.0000
  4 H      0.8177     1.0000     0.1823     0.9262     0.9262     0.0000
  5 H      0.8177     1.0000     0.1823     0.9261     0.9261     0.0000

  Mayer bond orders larger than 0.1
B(  0-C ,  1-C ) :   0.4069 B(  0-C ,  2-H ) :   0.9224 B(  0-C ,  3-H ) :   0.9225 
B(  1-C ,  4-H ) :   0.9225 B(  1-C ,  5-H ) :   0.9224 

-------
TIMINGS
-------

Total SCF time: 0 days 0 hours 0 min 12 sec 

Total time                  ....      12.766 sec
Sum of individual times     ....      12.005 sec  ( 94.0%)

Fock matrix formation       ....      10.350 sec  ( 81.1%)
  XC integration            ....       2.888 sec  ( 27.9% of F)
    Basis function eval.    ....       0.779 sec  ( 27.0% of XC)
    Density eval.           ....       0.092 sec  (  3.2% of XC)
    XC-Functional eval.     ....       0.768 sec  ( 26.6% of XC)
    XC-Potential eval.      ....       0.049 sec  (  1.7% of XC)
Diagonalization             ....       0.111 sec  (  0.9%)
Density matrix formation    ....       0.000 sec  (  0.0%)
Population analysis         ....       0.098 sec  (  0.8%)
Initial guess               ....       0.802 sec  (  6.3%)
Orbital Transformation      ....       0.000 sec  (  0.0%)
Orbital Orthonormalization  ....       0.000 sec  (  0.0%)
DIIS solution               ....       0.000 sec  (  0.0%)
Grid generation             ....       0.644 sec  (  5.0%)


-------------------------------------------------------------------------------
                          DFT DISPERSION CORRECTION                            
                                                                               
                              DFTD3 V3.1  Rev 1                                
                              USING zero damping                               
-------------------------------------------------------------------------------
The omegaB97X-D3 functional is recognized. Fit by Chai et al.
Active option DFTDOPT                   ...         3   

molecular C6(AA) [au] = 320.171018 


            DFT-D V3
 parameters
 s6 scaling factor         :     1.0000 
 rs6 scaling factor        :     1.2810 
 s8 scaling factor         :     1.0000 
 rs8 scaling factor        :     1.0940 
 Damping factor alpha6     :    14.0000 
 Damping factor alpha8     :    16.0000 
 ad hoc parameters k1-k3   :    16.0000     1.3333    -4.0000 

 Edisp/kcal,au: -0.390013351959  -0.000621525772 
 E6   /kcal   :  -0.158138860 
 E8   /kcal   :  -0.231874492 
 % E8         :  59.452962539 

-------------------------   ----------------
Dispersion correction           -0.000621526
-------------------------   ----------------


-------------------------   --------------------
FINAL SINGLE POINT ENERGY       -78.228604617030
-------------------------   --------------------


                            ***************************************
                            *     ORCA property calculations      *
                            ***************************************

                                    ---------------------
                                    Active property flags
                                    ---------------------
   (+) Dipole Moment


------------------------------------------------------------------------------
                       ORCA ELECTRIC PROPERTIES CALCULATION
------------------------------------------------------------------------------

Dipole Moment Calculation                       ... on
Quadrupole Moment Calculation                   ... off
Polarizability Calculation                      ... off
GBWName                                         ... Scan_24.gbw
Electron density file                           ... Scan_24.scfp.tmp

-------------
DIPOLE MOMENT
-------------
                                X             Y             Z
Electronic contribution:     -0.00012      -0.00005       0.00006
Nuclear contribution   :      0.00000       0.00000      -0.00000
                        -----------------------------------------
Total Dipole Moment    :     -0.00011      -0.00005       0.00005
                        -----------------------------------------
Magnitude (a.u.)       :      0.00013
Magnitude (Debye)      :      0.00034


Timings for individual modules:

Sum of individual times         ...       14.116 sec (=   0.235 min)
GTO integral calculation        ...        1.226 sec (=   0.020 min)   8.7 %
SCF iterations                  ...       12.889 sec (=   0.215 min)  91.3 %
                             ****ORCA TERMINATED NORMALLY****
TOTAL RUN TIME: 0 days 0 hours 0 minutes 15 seconds 586 msec
