
                                 *****************
                                 * O   R   C   A *
                                 *****************

           --- An Ab Initio, DFT and Semiempirical electronic structure package ---

                  #######################################################
                  #                        -***-                        #
                  #  Department of molecular theory and spectroscopy    #
                  #              Directorship: Frank Neese              #
                  # Max Planck Institute for Chemical Energy Conversion #
                  #                  D-45470 Muelheim/Ruhr              #
                  #                       Germany                       #
                  #                                                     #
                  #                  All rights reserved                #
                  #                        -***-                        #
                  #######################################################


                         Program Version 4.0.0.2 - RELEASE -


 With contributions from (in alphabetic order):
   Daniel Aravena         : Magnetic Properties
   Michael Atanasov       : Ab Initio Ligand Field Theory
   Ute Becker             : Parallelization
   Martin Brehm           : Molecular dynamics
   Dmytro Bykov           : SCF Hessian
   Vijay G. Chilkuri      : MRCI spin determinant printing
   Dipayan Datta          : RHF DLPNO-CCSD density
   Achintya Kumar Dutta   : EOM-CC, STEOM-CC
   Dmitry Ganyushin       : Spin-Orbit,Spin-Spin,Magnetic field MRCI
   Yang Guo               : DLPNO-NEVPT2, CIM, IAO-localization
   Andreas Hansen         : Spin unrestricted coupled pair/coupled cluster methods
   Lee Huntington         : MR-EOM, pCC
   Robert Izsak           : Overlap fitted RIJCOSX, COSX-SCS-MP3, EOM
   Christian Kollmar      : KDIIS, OOCD, Brueckner-CCSD(T), CCSD density
   Simone Kossmann        : Meta GGA functionals, TD-DFT gradient, OOMP2, MP2 Hessian
   Martin Krupicka        : AUTO-CI
   Dagmar Lenk            : GEPOL surface
   Dimitrios Liakos       : Extrapolation schemes; parallel MDCI
   Dimitrios Manganas     : ROCIS; embedding schemes
   Dimitrios Pantazis     : SARC Basis sets
   Taras Petrenko         : DFT Hessian,TD-DFT gradient, ASA, ECA, R-Raman, ABS, FL, XAS/XES, NRVS
   Peter Pinski           : DLPNO-MP2
   Christoph Reimann      : Effective Core Potentials
   Marius Retegan         : Local ZFS, SOC
   Christoph Riplinger    : Optimizer, TS searches, QM/MM, DLPNO-CCSD(T), (RO)-DLPNO pert. Triples
   Tobias Risthaus        : Range-separated hybrids, TD-DFT gradient, RPA, STAB
   Michael Roemelt        : Restricted open shell CIS
   Masaaki Saitow         : Open-shell DLPNO
   Barbara Sandhoefer     : DKH picture change effects
   Kantharuban Sivalingam : CASSCF convergence, NEVPT2, FIC-MRCI
   Georgi Stoychev        : AutoAux
   Boris Wezisla          : Elementary symmetry handling
   Frank Wennmohs         : Technical directorship


 We gratefully acknowledge several colleagues who have allowed us to
 interface, adapt or use parts of their codes:
   Stefan Grimme, W. Hujo, H. Kruse,             : VdW corrections, initial TS optimization,
                  C. Bannwarth                     DFT functionals, gCP, sTDA/sTD-DF
   Ed Valeev                                     : LibInt (2-el integral package), F12 methods
   Garnet Chan, S. Sharma, J. Yang, R. Olivares  : DMRG
   Ulf Ekstrom                                   : XCFun DFT Library
   Mihaly Kallay                                 : mrcc  (arbitrary order and MRCC methods)
   Jiri Pittner, Ondrej Demel                    : Mk-CCSD
   Frank Weinhold                                : gennbo (NPA and NBO analysis)
   Christopher J. Cramer and Donald G. Truhlar   : smd solvation model


 Your calculation uses the libint2 library for the computation of 2-el integrals
 For citations please refer to: http://libint.valeyev.net

 This ORCA versions uses:
   CBLAS   interface :  Fast vector & matrix operations
   LAPACKE interface :  Fast linear algebra routines
   SCALAPACK package :  Parallel linear algebra routines


Your calculation utilizes the atom-pairwise dispersion correction
with the zero-damping scheme (D30)
Cite in your paper:
S.Grimme, J.Antony, S.Ehrlich and H.Krieg, J.Chem.Phys., 132, (2010), 154104 
   

XCFun DFT library Copyright 2009-2010 Ulf Ekstrom and contributors.
See http://admol.org/xcfun for more information. This is free soft-
ware; see the source code for copying conditions. There is ABSOLUTELY
NO WARRANTY; not even for MERCHANTABILITY or FITNESS FOR A PARTICULAR
PURPOSE. For details see the documentation. Scientific users of this 
library should cite U. Ekstrom, L. Visscher, R. Bast, A. J. Thorvald-
sen and K. Ruud; J.Chem.Theor.Comp. 2010, DOI: 10.1021/ct100117s
XCFun Version 0.99 
Your calculation utilizes the basis: 6-31G(d)
   H-He, Li-Ne : W. J. Hehre, R. Ditchfield and J.A. Pople, J. Chem. Phys. 56, 2257 (1972).
                 Note: He and Ne are unpublished basis sets taken from the Gaussian program.
                 Note: Li and B from J. D. Dill and J. A. Pople, J. Chem. Phys. 62, 2921 (1975).
   Na - Ar     : M. M. Francl, W. J. Pietro, W. J. Hehre, J. S. Binkley, M. S. Gordon, 
                 D. J. DeFrees and J. A. Pople, J. Chem. Phys. 77, 3654 (1982).
   K - Zn      : V. A. Rassolov, J. A. Pople, M. A. Ratner, and T. L. Windus, J. Chem. Phys. 109, 1223 (1998).

================================================================================
                                        WARNINGS
                       Please study these warnings very carefully!
================================================================================

Warning: TCutStore was < 0. Adjusted to Thresh (uncritical)

INFO   : the flag for use of LIBINT has been found!

================================================================================
                                       INPUT FILE
================================================================================
NAME = initial25.inp
|  1> ! WB97X-D3 6-31G(d) VerySlowConv
|  2> ! KDIIS NOSOSCF
|  3> %base "Scan_25"
|  4> 
|  5> %scf
|  6> maxiter 999
|  7> end
|  8> 
|  9> * xyz 0 1
| 10> C         -2.444275028001    1.040152262854    0.267677474175
| 11> C          0.406509482097    1.510398553551   -0.267686326429
| 12> H         -2.714366638073    0.620941199883   -0.685728696670
| 13> H         -2.721904047453    2.046893669664    0.526645781691
| 14> H          0.684151717069    0.503661577318   -0.526628038354
| 15> H          0.676614514361    1.929582736730    0.685719805586
| 16> **                         ****END OF INPUT****
================================================================================

                       ****************************
                       * Single Point Calculation *
                       ****************************

---------------------------------
CARTESIAN COORDINATES (ANGSTROEM)
---------------------------------
  C     -2.444275    1.040152    0.267677
  C      0.406509    1.510399   -0.267686
  H     -2.714367    0.620941   -0.685729
  H     -2.721904    2.046894    0.526646
  H      0.684152    0.503662   -0.526628
  H      0.676615    1.929583    0.685720

----------------------------
CARTESIAN COORDINATES (A.U.)
----------------------------
  NO LB      ZA    FRAG     MASS         X           Y           Z
   0 C     6.0000    0    12.011   -4.619010    1.965603    0.505837
   1 C     6.0000    0    12.011    0.768192    2.854240   -0.505854
   2 H     1.0000    0     1.008   -5.129410    1.173409   -1.295839
   3 H     1.0000    0     1.008   -5.143653    3.868068    0.995216
   4 H     1.0000    0     1.008    1.292859    0.951782   -0.995183
   5 H     1.0000    0     1.008    1.278616    3.646383    1.295823

--------------------------------
INTERNAL COORDINATES (ANGSTROEM)
--------------------------------
 C      0   0   0     0.000000000000     0.00000000     0.00000000
 C      1   0   0     2.938489117885     0.00000000     0.00000000
 H      1   2   0     1.075951076840    98.30511926     0.00000000
 H      1   2   3     1.075951075526    98.30512071   236.95476817
 H      2   1   3     1.075943939120    98.30564356   303.04375382
 H      2   1   3     1.075943939267    98.30564440   180.00147821

---------------------------
INTERNAL COORDINATES (A.U.)
---------------------------
 C      0   0   0     0.000000000000     0.00000000     0.00000000
 C      1   0   0     5.552939680310     0.00000000     0.00000000
 H      1   2   0     2.033252868726    98.30511926     0.00000000
 H      1   2   3     2.033252866242    98.30512071   236.95476817
 H      2   1   3     2.033239380390    98.30564356   303.04375382
 H      2   1   3     2.033239380667    98.30564440   180.00147821

---------------------
BASIS SET INFORMATION
---------------------
There are 2 groups of distinct atoms

 Group   1 Type C   : 10s4p1d contracted to 3s2p1d pattern {631/31/1}
 Group   2 Type H   : 4s contracted to 2s pattern {31}

Atom   0C    basis set group =>   1
Atom   1C    basis set group =>   1
Atom   2H    basis set group =>   2
Atom   3H    basis set group =>   2
Atom   4H    basis set group =>   2
Atom   5H    basis set group =>   2
------------------------------------------------------------------------------
                           ORCA GTO INTEGRAL CALCULATION
------------------------------------------------------------------------------

                         BASIS SET STATISTICS AND STARTUP INFO

 # of primitive gaussian shells          ...   46
 # of primitive gaussian functions       ...   70
 # of contracted shells                  ...   20
 # of contracted basis functions         ...   36
 Highest angular momentum                ...    2
 Maximum contraction depth               ...    6
 Integral package used                   ... LIBINT
 Integral threshhold            Thresh   ...  1.000e-10
 Primitive cut-off              TCut     ...  1.000e-11


------------------------------ INTEGRAL EVALUATION ----------------------------


 * One electron integrals 
 Pre-screening matrix                    ... done
 Shell pair data                         ... done (   0.000 sec)

-------------------------------------------------------------------------------
                                 ORCA SCF
-------------------------------------------------------------------------------

------------
SCF SETTINGS
------------
Hamiltonian:
 Density Functional     Method          .... DFT(GTOs)
 Exchange Functional    Exchange        .... WB97X-D3
 Correlation Functional Correlation     .... WB97X-D3
 Gradients option       PostSCFGGA      .... off
 Hybrid DFT is turned on
   Fraction HF Exchange ScalHFX         ....  0.195728
   Scaling of DF-GGA-X  ScalDFX         ....  0.000000
   Scaling of DF-GGA-C  ScalDFC         ....  1.000000
   Scaling of DF-LDA-C  ScalLDAC        ....  1.000000
   Perturbative correction              ....  0.000000
 Long-range corrected/Screened/Range-Separated Hybrid DFT is turned on
   Amount of maximum screened exact exchange              ....  0.804272
   Range separation parameter mu (erf(mu*r12)/r12)        ....  0.250000


General Settings:
 Integral files         IntName         .... Scan_25
 Hartree-Fock type      HFTyp           .... RHF
 Total Charge           Charge          ....    0
 Multiplicity           Mult            ....    1
 Number of Electrons    NEL             ....   16
 Basis Dimension        Dim             ....   36
 Nuclear Repulsion      ENuc            ....     23.3171493816 Eh

Convergence Acceleration:
 DIIS                   CNVDIIS         .... on
   Start iteration      DIISMaxIt       ....     0
   Startup error        DIISStart       ....  0.200000
   # of expansion vecs  DIISMaxEq       ....     5
   Bias factor          DIISBfac        ....   1.050
   Max. coefficient     DIISMaxC        ....  10.000
 Newton-Raphson         CNVNR           .... off
 SOSCF                  CNVSOSCF        .... off
 Level Shifting         CNVShift        .... off
 Zerner damping         CNVZerner       .... off
 Static damping         CNVDamp         .... off
 Fernandez-Rico         CNVRico         .... off

SCF Procedure:
 Maximum # iterations   MaxIter         ....   999
 SCF integral mode      SCFMode         .... Direct
   Integral package                     .... LIBINT
 Reset frequeny         DirectResetFreq ....    20
 Integral Threshold     Thresh          ....  1.000e-10 Eh
 Primitive CutOff       TCut            ....  1.000e-11 Eh

Convergence Tolerance:
 Convergence Check Mode ConvCheckMode   .... All-Criteria
 Convergence forced     ConvForced      .... 0
 Energy Change          TolE            ....  1.000e-06 Eh
 Max Density Change     TolMaxP         ....  1.000e-05
 RMS Density Change     TolRMSP         ....  1.000e-06
 DIIS Error             TolErr          ....  1.000e-06


Diagonalization of the overlap matrix:
Smallest eigenvalue                        ... 3.259e-02
Time for diagonalization                   ...    0.001 sec
Threshold for overlap eigenvalues          ... 1.000e-08
Number of eigenvalues below threshold      ... 0
Time for construction of square roots      ...    0.006 sec
Total time needed                          ...    0.007 sec

-------------------
DFT GRID GENERATION
-------------------

General Integration Accuracy     IntAcc      ...  4.340
Radial Grid Type                 RadialGrid  ... Gauss-Chebyshev
Angular Grid (max. acc.)         AngularGrid ... Lebedev-110
Angular grid pruning method      GridPruning ... 3 (G Style)
Weight generation scheme         WeightScheme... Becke
Basis function cutoff            BFCut       ...    1.0000e-10
Integration weight cutoff        WCut        ...    1.0000e-14
Grids for H and He will be reduced by one unit

# of grid points (after initial pruning)     ...   6488 (   0.0 sec)
# of grid points (after weights+screening)   ...   6326 (   0.0 sec)
nearest neighbour list constructed           ...    0.0 sec
Grid point re-assignment to atoms done       ...    0.0 sec
Grid point division into batches done        ...    0.0 sec
Reduced shell lists constructed in    0.0 sec

Total number of grid points                  ...     6326
Total number of batches                      ...      102
Average number of points per batch           ...       62
Average number of grid points per atom       ...     1054
Average number of shells per batch           ...    16.54 (82.72%)
Average number of basis functions per batch  ...    30.43 (84.52%)
Average number of large shells per batch     ...    13.78 (83.27%)
Average number of large basis fcns per batch ...    24.73 (81.27%)
Maximum spatial batch extension              ...  22.93, 20.88, 23.60 au
Average spatial batch extension              ...   5.23,  5.13,  5.45 au

Time for grid setup =    0.047 sec

------------------------------
INITIAL GUESS: MODEL POTENTIAL
------------------------------
Loading Hartree-Fock densities                     ... done
Calculating cut-offs                               ... done
Setting up the integral package                    ... done
Initializing the effective Hamiltonian             ... done
Starting the Coulomb interaction                   ... done (   0.0 sec)
Reading the grid                                   ... done
Mapping shells                                     ... done
Starting the XC term evaluation                    ... done (   0.0 sec)
  promolecular density results
     # of electrons  =     15.992828806
     EX              =    -11.197561174
     EC              =     -0.451801786
     EX+EC           =    -11.649362960
Transforming the Hamiltonian                       ... done (   0.0 sec)
Diagonalizing the Hamiltonian                      ... done (   0.0 sec)
Back transforming the eigenvectors                 ... done (   0.0 sec)
Now organizing SCF variables                       ... done
                      ------------------
                      INITIAL GUESS DONE (   0.2 sec)
                      ------------------
--------------
SCF ITERATIONS
--------------
ITER       Energy         Delta-E        Max-DP      RMS-DP      [F,P]   Gradient Norm
               ***  Starting incremental Fock matrix formation  ***
                             ****Resetting KDIIS****
                             ****Turning on KDIIS(Cayley)****
  0    -78.1875043185   0.000000000000 0.00870326  0.00099833  0.0519325   0.047543053
  1    -78.1942975202  -0.006793201701 0.01489331  0.00138953  0.0448525   0.041066454
  2    -78.2020679974  -0.007770477193 0.03680515  0.00331965  0.0367163   0.033688763
  3    -78.2144469127  -0.012378915368 0.06415654  0.00590795  0.0215663   0.020089803
  4    -78.2221001257  -0.007653212958 0.00455344  0.00053239  0.0016404   0.001364824
  5    -78.2221462394  -0.000046113705 0.00291283  0.00027839  0.0009953   0.000579717
  6    -78.2221648612  -0.000018621823 0.00200029  0.00025663  0.0006768   0.000457273
  7    -78.2221767311  -0.000011869876 0.00064067  0.00006728  0.0001379   0.000158686
                          ***Energy convergence achieved***
  8    -78.2221775309  -0.000000799773 0.00023853  0.00002588  0.0000358   0.000047664

            ***Energy convergence in two consecutive cycles with***
                    ***'reasonable' density convergence***
                       *** signaling convergence ***

                    *** KDIIS BlockDiag ( 0.000 sec) ***

               *****************************************************
               *                     SUCCESS                       *
               *           SCF CONVERGED AFTER   9 CYCLES          *
               *****************************************************

Setting up the final grid:

General Integration Accuracy     IntAcc      ...  4.670
Radial Grid Type                 RadialGrid  ... Gauss-Chebyshev
Angular Grid (max. acc.)         AngularGrid ... Lebedev-302
Angular grid pruning method      GridPruning ... 3 (G Style)
Weight generation scheme         WeightScheme... Becke
Basis function cutoff            BFCut       ...    1.0000e-10
Integration weight cutoff        WCut        ...    1.0000e-14
Grids for H and He will be reduced by one unit

# of grid points (after initial pruning)     ...  26000 (   0.0 sec)
# of grid points (after weights+screening)   ...  25400 (   0.0 sec)
nearest neighbour list constructed           ...    0.0 sec
Grid point re-assignment to atoms done       ...    0.0 sec
Grid point division into batches done        ...    0.1 sec
Reduced shell lists constructed in    0.2 sec

Total number of grid points                  ...    25400
Total number of batches                      ...      400
Average number of points per batch           ...       63
Average number of grid points per atom       ...     4233
Average number of shells per batch           ...    14.92 (74.58%)
Average number of basis functions per batch  ...    27.20 (75.57%)
Average number of large shells per batch     ...    12.22 (81.91%)
Average number of large basis fcns per batch ...    21.70 (79.76%)
Maximum spatial batch extension              ...  19.74, 17.95, 20.12 au
Average spatial batch extension              ...   3.28,  3.30,  3.34 au

Final grid set up in    0.2 sec
Final integration                            ... done (   0.2 sec)
Change in XC energy                          ...     0.001112059
Integrated number of electrons               ...    15.999981269
Previous integrated no of electrons          ...    15.997939986

----------------
TOTAL SCF ENERGY
----------------

Total Energy       :          -78.22106554 Eh           -2128.50340 eV

Components:
Nuclear Repulsion  :           23.31714938 Eh             634.49189 eV
Electronic Energy  :         -101.53821492 Eh           -2762.99530 eV
One Electron Energy:         -149.85523795 Eh           -4077.76833 eV
Two Electron Energy:           48.31702303 Eh            1314.77304 eV

Virial components:
Potential Energy   :         -156.05349972 Eh           -4246.43161 eV
Kinetic Energy     :           77.83243418 Eh            2117.92821 eV
Virial Ratio       :            2.00499318


DFT components:
N(Alpha)           :        7.999990634549 electrons
N(Beta)            :        7.999990634549 electrons
N(Total)           :       15.999981269098 electrons
E(XC)              :       -8.129885321199 Eh       

---------------
SCF CONVERGENCE
---------------

  Last Energy change         ...   -6.4888e-08  Tolerance :   1.0000e-06
  Last MAX-Density change    ...    6.2677e-05  Tolerance :   1.0000e-05
  Last RMS-Density change    ...    5.9722e-06  Tolerance :   1.0000e-06
  Last DIIS Error            ...    1.2223e-05  Tolerance :   1.0000e-06

             **** THE GBW FILE WAS UPDATED (Scan_25.gbw) ****
             **** DENSITY FILE WAS UPDATED (Scan_25.scfp.tmp) ****
             **** ENERGY FILE WAS UPDATED (Scan_25.en.tmp) ****
----------------
ORBITAL ENERGIES
----------------

  NO   OCC          E(Eh)            E(eV) 
   0   2.0000     -10.336272      -281.2643 
   1   2.0000     -10.336234      -281.2632 
   2   2.0000      -0.773507       -21.0482 
   3   2.0000      -0.761119       -20.7111 
   4   2.0000      -0.536634       -14.6026 
   5   2.0000      -0.529662       -14.4128 
   6   2.0000      -0.319612        -8.6971 
   7   2.0000      -0.301939        -8.2162 
   8   0.0000      -0.043632        -1.1873 
   9   0.0000       0.024698         0.6721 
  10   0.0000       0.209251         5.6940 
  11   0.0000       0.233146         6.3442 
  12   0.0000       0.281013         7.6468 
  13   0.0000       0.289619         7.8809 
  14   0.0000       0.608549        16.5594 
  15   0.0000       0.625971        17.0335 
  16   0.0000       0.648648        17.6506 
  17   0.0000       0.688100        18.7242 
  18   0.0000       0.709066        19.2947 
  19   0.0000       0.726126        19.7589 
  20   0.0000       0.741265        20.1709 
  21   0.0000       0.974227        26.5101 
  22   0.0000       1.020519        27.7697 
  23   0.0000       1.026557        27.9340 
  24   0.0000       1.036178        28.1958 
  25   0.0000       1.135895        30.9093 
  26   0.0000       1.750479        47.6329 
  27   0.0000       1.752896        47.6987 
  28   0.0000       1.796374        48.8818 
  29   0.0000       1.797475        48.9118 
  30   0.0000       1.801776        49.0288 
  31   0.0000       1.825338        49.6700 
  32   0.0000       2.181198        59.3534 
  33   0.0000       2.202176        59.9242 
  34   0.0000       2.291634        62.3585 
  35   0.0000       2.343899        63.7807 

                    ********************************
                    * MULLIKEN POPULATION ANALYSIS *
                    ********************************

-----------------------
MULLIKEN ATOMIC CHARGES
-----------------------
   0 C :   -0.364416
   1 C :   -0.364388
   2 H :    0.182126
   3 H :    0.182285
   4 H :    0.182276
   5 H :    0.182117
Sum of atomic charges:    0.0000000

--------------------------------
MULLIKEN REDUCED ORBITAL CHARGES
--------------------------------
  0 C s       :     3.651899  s :     3.651899
      pz      :     1.074082  p :     2.690668
      px      :     0.562807
      py      :     1.053780
      dz2     :     0.008337  d :     0.021848
      dxz     :     0.003396
      dyz     :     0.001920
      dx2y2   :     0.004404
      dxy     :     0.003791
  1 C s       :     3.651905  s :     3.651905
      pz      :     1.074074  p :     2.690634
      px      :     0.562786
      py      :     1.053773
      dz2     :     0.008337  d :     0.021849
      dxz     :     0.003397
      dyz     :     0.001920
      dx2y2   :     0.004404
      dxy     :     0.003792
  2 H s       :     0.817874  s :     0.817874
  3 H s       :     0.817715  s :     0.817715
  4 H s       :     0.817724  s :     0.817724
  5 H s       :     0.817883  s :     0.817883


                     *******************************
                     * LOEWDIN POPULATION ANALYSIS *
                     *******************************

----------------------
LOEWDIN ATOMIC CHARGES
----------------------
   0 C :   -0.263835
   1 C :   -0.263808
   2 H :    0.131819
   3 H :    0.132011
   4 H :    0.132003
   5 H :    0.131810

-------------------------------
LOEWDIN REDUCED ORBITAL CHARGES
-------------------------------
  0 C s       :     3.395500  s :     3.395500
      pz      :     1.134059  p :     2.836969
      px      :     0.578604
      py      :     1.124306
      dz2     :     0.012187  d :     0.031366
      dxz     :     0.004231
      dyz     :     0.003438
      dx2y2   :     0.006592
      dxy     :     0.004918
  1 C s       :     3.395500  s :     3.395500
      pz      :     1.134054  p :     2.836940
      px      :     0.578585
      py      :     1.124301
      dz2     :     0.012188  d :     0.031368
      dxz     :     0.004231
      dyz     :     0.003438
      dx2y2   :     0.006592
      dxy     :     0.004918
  2 H s       :     0.868181  s :     0.868181
  3 H s       :     0.867989  s :     0.867989
  4 H s       :     0.867997  s :     0.867997
  5 H s       :     0.868190  s :     0.868190


                      *****************************
                      * MAYER POPULATION ANALYSIS *
                      *****************************

  NA   - Mulliken gross atomic population
  ZA   - Total nuclear charge
  QA   - Mulliken gross atomic charge
  VA   - Mayer's total valence
  BVA  - Mayer's bonded valence
  FA   - Mayer's free valence

  ATOM       NA         ZA         QA         VA         BVA        FA
  0 C      6.3644     6.0000    -0.3644     2.1267     2.1267     0.0000
  1 C      6.3644     6.0000    -0.3644     2.1267     2.1267    -0.0000
  2 H      0.8179     1.0000     0.1821     0.9254     0.9254    -0.0000
  3 H      0.8177     1.0000     0.1823     0.9256     0.9256    -0.0000
  4 H      0.8177     1.0000     0.1823     0.9256     0.9256     0.0000
  5 H      0.8179     1.0000     0.1821     0.9254     0.9254     0.0000

  Mayer bond orders larger than 0.1
B(  0-C ,  1-C ) :   0.2778 B(  0-C ,  2-H ) :   0.9225 B(  0-C ,  3-H ) :   0.9227 
B(  1-C ,  4-H ) :   0.9227 B(  1-C ,  5-H ) :   0.9225 

-------
TIMINGS
-------

Total SCF time: 0 days 0 hours 0 min 3 sec 

Total time                  ....       3.553 sec
Sum of individual times     ....       3.428 sec  ( 96.5%)

Fock matrix formation       ....       2.996 sec  ( 84.3%)
  XC integration            ....       0.936 sec  ( 31.2% of F)
    Basis function eval.    ....       0.355 sec  ( 37.9% of XC)
    Density eval.           ....       0.046 sec  (  4.9% of XC)
    XC-Functional eval.     ....       0.265 sec  ( 28.3% of XC)
    XC-Potential eval.      ....       0.040 sec  (  4.3% of XC)
Diagonalization             ....       0.007 sec  (  0.2%)
Density matrix formation    ....       0.000 sec  (  0.0%)
Population analysis         ....       0.010 sec  (  0.3%)
Initial guess               ....       0.142 sec  (  4.0%)
Orbital Transformation      ....       0.000 sec  (  0.0%)
Orbital Orthonormalization  ....       0.000 sec  (  0.0%)
DIIS solution               ....       0.000 sec  (  0.0%)
Grid generation             ....       0.273 sec  (  7.7%)


-------------------------------------------------------------------------------
                          DFT DISPERSION CORRECTION                            
                                                                               
                              DFTD3 V3.1  Rev 1                                
                              USING zero damping                               
-------------------------------------------------------------------------------
The omegaB97X-D3 functional is recognized. Fit by Chai et al.
Active option DFTDOPT                   ...         3   

molecular C6(AA) [au] = 320.216639 


            DFT-D V3
 parameters
 s6 scaling factor         :     1.0000 
 rs6 scaling factor        :     1.2810 
 s8 scaling factor         :     1.0000 
 rs8 scaling factor        :     1.0940 
 Damping factor alpha6     :    14.0000 
 Damping factor alpha8     :    16.0000 
 ad hoc parameters k1-k3   :    16.0000     1.3333    -4.0000 

 Edisp/kcal,au: -0.389326120805  -0.000620430600 
 E6   /kcal   :  -0.166974660 
 E8   /kcal   :  -0.222351460 
 % E8         :  57.111878332 

-------------------------   ----------------
Dispersion correction           -0.000620431
-------------------------   ----------------


-------------------------   --------------------
FINAL SINGLE POINT ENERGY       -78.221685967355
-------------------------   --------------------


                            ***************************************
                            *     ORCA property calculations      *
                            ***************************************

                                    ---------------------
                                    Active property flags
                                    ---------------------
   (+) Dipole Moment


------------------------------------------------------------------------------
                       ORCA ELECTRIC PROPERTIES CALCULATION
------------------------------------------------------------------------------

Dipole Moment Calculation                       ... on
Quadrupole Moment Calculation                   ... off
Polarizability Calculation                      ... off
GBWName                                         ... Scan_25.gbw
Electron density file                           ... Scan_25.scfp.tmp

-------------
DIPOLE MOMENT
-------------
                                X             Y             Z
Electronic contribution:      0.00000       0.00002      -0.00002
Nuclear contribution   :      0.00002      -0.00002       0.00002
                        -----------------------------------------
Total Dipole Moment    :      0.00003       0.00000      -0.00000
                        -----------------------------------------
Magnitude (a.u.)       :      0.00003
Magnitude (Debye)      :      0.00007


Timings for individual modules:

Sum of individual times         ...        3.911 sec (=   0.065 min)
GTO integral calculation        ...        0.312 sec (=   0.005 min)   8.0 %
SCF iterations                  ...        3.599 sec (=   0.060 min)  92.0 %
                             ****ORCA TERMINATED NORMALLY****
TOTAL RUN TIME: 0 days 0 hours 0 minutes 4 seconds 251 msec
