
                                 *****************
                                 * O   R   C   A *
                                 *****************

           --- An Ab Initio, DFT and Semiempirical electronic structure package ---

                  #######################################################
                  #                        -***-                        #
                  #  Department of molecular theory and spectroscopy    #
                  #              Directorship: Frank Neese              #
                  # Max Planck Institute for Chemical Energy Conversion #
                  #                  D-45470 Muelheim/Ruhr              #
                  #                       Germany                       #
                  #                                                     #
                  #                  All rights reserved                #
                  #                        -***-                        #
                  #######################################################


                         Program Version 4.0.0.2 - RELEASE -


 With contributions from (in alphabetic order):
   Daniel Aravena         : Magnetic Properties
   Michael Atanasov       : Ab Initio Ligand Field Theory
   Ute Becker             : Parallelization
   Martin Brehm           : Molecular dynamics
   Dmytro Bykov           : SCF Hessian
   Vijay G. Chilkuri      : MRCI spin determinant printing
   Dipayan Datta          : RHF DLPNO-CCSD density
   Achintya Kumar Dutta   : EOM-CC, STEOM-CC
   Dmitry Ganyushin       : Spin-Orbit,Spin-Spin,Magnetic field MRCI
   Yang Guo               : DLPNO-NEVPT2, CIM, IAO-localization
   Andreas Hansen         : Spin unrestricted coupled pair/coupled cluster methods
   Lee Huntington         : MR-EOM, pCC
   Robert Izsak           : Overlap fitted RIJCOSX, COSX-SCS-MP3, EOM
   Christian Kollmar      : KDIIS, OOCD, Brueckner-CCSD(T), CCSD density
   Simone Kossmann        : Meta GGA functionals, TD-DFT gradient, OOMP2, MP2 Hessian
   Martin Krupicka        : AUTO-CI
   Dagmar Lenk            : GEPOL surface
   Dimitrios Liakos       : Extrapolation schemes; parallel MDCI
   Dimitrios Manganas     : ROCIS; embedding schemes
   Dimitrios Pantazis     : SARC Basis sets
   Taras Petrenko         : DFT Hessian,TD-DFT gradient, ASA, ECA, R-Raman, ABS, FL, XAS/XES, NRVS
   Peter Pinski           : DLPNO-MP2
   Christoph Reimann      : Effective Core Potentials
   Marius Retegan         : Local ZFS, SOC
   Christoph Riplinger    : Optimizer, TS searches, QM/MM, DLPNO-CCSD(T), (RO)-DLPNO pert. Triples
   Tobias Risthaus        : Range-separated hybrids, TD-DFT gradient, RPA, STAB
   Michael Roemelt        : Restricted open shell CIS
   Masaaki Saitow         : Open-shell DLPNO
   Barbara Sandhoefer     : DKH picture change effects
   Kantharuban Sivalingam : CASSCF convergence, NEVPT2, FIC-MRCI
   Georgi Stoychev        : AutoAux
   Boris Wezisla          : Elementary symmetry handling
   Frank Wennmohs         : Technical directorship


 We gratefully acknowledge several colleagues who have allowed us to
 interface, adapt or use parts of their codes:
   Stefan Grimme, W. Hujo, H. Kruse,             : VdW corrections, initial TS optimization,
                  C. Bannwarth                     DFT functionals, gCP, sTDA/sTD-DF
   Ed Valeev                                     : LibInt (2-el integral package), F12 methods
   Garnet Chan, S. Sharma, J. Yang, R. Olivares  : DMRG
   Ulf Ekstrom                                   : XCFun DFT Library
   Mihaly Kallay                                 : mrcc  (arbitrary order and MRCC methods)
   Jiri Pittner, Ondrej Demel                    : Mk-CCSD
   Frank Weinhold                                : gennbo (NPA and NBO analysis)
   Christopher J. Cramer and Donald G. Truhlar   : smd solvation model


 Your calculation uses the libint2 library for the computation of 2-el integrals
 For citations please refer to: http://libint.valeyev.net

 This ORCA versions uses:
   CBLAS   interface :  Fast vector & matrix operations
   LAPACKE interface :  Fast linear algebra routines
   SCALAPACK package :  Parallel linear algebra routines


Your calculation utilizes the atom-pairwise dispersion correction
with the zero-damping scheme (D30)
Cite in your paper:
S.Grimme, J.Antony, S.Ehrlich and H.Krieg, J.Chem.Phys., 132, (2010), 154104 
   

XCFun DFT library Copyright 2009-2010 Ulf Ekstrom and contributors.
See http://admol.org/xcfun for more information. This is free soft-
ware; see the source code for copying conditions. There is ABSOLUTELY
NO WARRANTY; not even for MERCHANTABILITY or FITNESS FOR A PARTICULAR
PURPOSE. For details see the documentation. Scientific users of this 
library should cite U. Ekstrom, L. Visscher, R. Bast, A. J. Thorvald-
sen and K. Ruud; J.Chem.Theor.Comp. 2010, DOI: 10.1021/ct100117s
XCFun Version 0.99 
Your calculation utilizes the basis: 6-31G(d)
   H-He, Li-Ne : W. J. Hehre, R. Ditchfield and J.A. Pople, J. Chem. Phys. 56, 2257 (1972).
                 Note: He and Ne are unpublished basis sets taken from the Gaussian program.
                 Note: Li and B from J. D. Dill and J. A. Pople, J. Chem. Phys. 62, 2921 (1975).
   Na - Ar     : M. M. Francl, W. J. Pietro, W. J. Hehre, J. S. Binkley, M. S. Gordon, 
                 D. J. DeFrees and J. A. Pople, J. Chem. Phys. 77, 3654 (1982).
   K - Zn      : V. A. Rassolov, J. A. Pople, M. A. Ratner, and T. L. Windus, J. Chem. Phys. 109, 1223 (1998).

================================================================================
                                        WARNINGS
                       Please study these warnings very carefully!
================================================================================

Warning: TCutStore was < 0. Adjusted to Thresh (uncritical)

INFO   : the flag for use of LIBINT has been found!

================================================================================
                                       INPUT FILE
================================================================================
NAME = initial26.inp
|  1> ! WB97X-D3 6-31G(d) VerySlowConv
|  2> ! KDIIS NOSOSCF
|  3> %base "Scan_26"
|  4> 
|  5> %scf
|  6> maxiter 999
|  7> end
|  8> 
|  9> * xyz 0 1
| 10> C         -2.494342864325    1.026030086588    0.283976208346
| 11> C          0.456573881079    1.524510691853   -0.283973277442
| 12> H         -2.722770566183    0.624419197593   -0.688395676668
| 13> H         -2.730300253166    2.048914950625    0.522740255690
| 14> H          0.692549740789    0.501630458114   -0.522741050614
| 15> H          0.685020061806    1.926124615227    0.688393540689
| 16> **                         ****END OF INPUT****
================================================================================

                       ****************************
                       * Single Point Calculation *
                       ****************************

---------------------------------
CARTESIAN COORDINATES (ANGSTROEM)
---------------------------------
  C     -2.494343    1.026030    0.283976
  C      0.456574    1.524511   -0.283973
  H     -2.722771    0.624419   -0.688396
  H     -2.730300    2.048915    0.522740
  H      0.692550    0.501630   -0.522741
  H      0.685020    1.926125    0.688394

----------------------------
CARTESIAN COORDINATES (A.U.)
----------------------------
  NO LB      ZA    FRAG     MASS         X           Y           Z
   0 C     6.0000    0    12.011   -4.713625    1.938916    0.536637
   1 C     6.0000    0    12.011    0.862800    2.880908   -0.536632
   2 H     1.0000    0     1.008   -5.145291    1.179981   -1.300879
   3 H     1.0000    0     1.008   -5.159520    3.871888    0.987836
   4 H     1.0000    0     1.008    1.308729    0.947944   -0.987837
   5 H     1.0000    0     1.008    1.294500    3.639848    1.300875

--------------------------------
INTERNAL COORDINATES (ANGSTROEM)
--------------------------------
 C      0   0   0     0.000000000000     0.00000000     0.00000000
 C      1   0   0     3.046138403050     0.00000000     0.00000000
 H      1   2   0     1.076558221324    95.63511609     0.00000000
 H      1   2   3     1.076558221709    95.63511616   238.46959684
 H      2   1   3     1.076558697167    95.63614827   301.53042606
 H      2   1   3     1.076558697860    95.63614802   179.99997777

---------------------------
INTERNAL COORDINATES (A.U.)
---------------------------
 C      0   0   0     0.000000000000     0.00000000     0.00000000
 C      1   0   0     5.756367347785     0.00000000     0.00000000
 H      1   2   0     2.034400205525    95.63511609     0.00000000
 H      1   2   3     2.034400206251    95.63511616   238.46959684
 H      2   1   3     2.034401104736    95.63614827   301.53042606
 H      2   1   3     2.034401106047    95.63614802   179.99997777

---------------------
BASIS SET INFORMATION
---------------------
There are 2 groups of distinct atoms

 Group   1 Type C   : 10s4p1d contracted to 3s2p1d pattern {631/31/1}
 Group   2 Type H   : 4s contracted to 2s pattern {31}

Atom   0C    basis set group =>   1
Atom   1C    basis set group =>   1
Atom   2H    basis set group =>   2
Atom   3H    basis set group =>   2
Atom   4H    basis set group =>   2
Atom   5H    basis set group =>   2
------------------------------------------------------------------------------
                           ORCA GTO INTEGRAL CALCULATION
------------------------------------------------------------------------------

                         BASIS SET STATISTICS AND STARTUP INFO

 # of primitive gaussian shells          ...   46
 # of primitive gaussian functions       ...   70
 # of contracted shells                  ...   20
 # of contracted basis functions         ...   36
 Highest angular momentum                ...    2
 Maximum contraction depth               ...    6
 Integral package used                   ... LIBINT
 Integral threshhold            Thresh   ...  1.000e-10
 Primitive cut-off              TCut     ...  1.000e-11


------------------------------ INTEGRAL EVALUATION ----------------------------


 * One electron integrals 
 Pre-screening matrix                    ... done
 Shell pair data                         ... done (   0.000 sec)

-------------------------------------------------------------------------------
                                 ORCA SCF
-------------------------------------------------------------------------------

------------
SCF SETTINGS
------------
Hamiltonian:
 Density Functional     Method          .... DFT(GTOs)
 Exchange Functional    Exchange        .... WB97X-D3
 Correlation Functional Correlation     .... WB97X-D3
 Gradients option       PostSCFGGA      .... off
 Hybrid DFT is turned on
   Fraction HF Exchange ScalHFX         ....  0.195728
   Scaling of DF-GGA-X  ScalDFX         ....  0.000000
   Scaling of DF-GGA-C  ScalDFC         ....  1.000000
   Scaling of DF-LDA-C  ScalLDAC        ....  1.000000
   Perturbative correction              ....  0.000000
 Long-range corrected/Screened/Range-Separated Hybrid DFT is turned on
   Amount of maximum screened exact exchange              ....  0.804272
   Range separation parameter mu (erf(mu*r12)/r12)        ....  0.250000


General Settings:
 Integral files         IntName         .... Scan_26
 Hartree-Fock type      HFTyp           .... RHF
 Total Charge           Charge          ....    0
 Multiplicity           Mult            ....    1
 Number of Electrons    NEL             ....   16
 Basis Dimension        Dim             ....   36
 Nuclear Repulsion      ENuc            ....     23.0128918711 Eh

Convergence Acceleration:
 DIIS                   CNVDIIS         .... on
   Start iteration      DIISMaxIt       ....     0
   Startup error        DIISStart       ....  0.200000
   # of expansion vecs  DIISMaxEq       ....     5
   Bias factor          DIISBfac        ....   1.050
   Max. coefficient     DIISMaxC        ....  10.000
 Newton-Raphson         CNVNR           .... off
 SOSCF                  CNVSOSCF        .... off
 Level Shifting         CNVShift        .... off
 Zerner damping         CNVZerner       .... off
 Static damping         CNVDamp         .... off
 Fernandez-Rico         CNVRico         .... off

SCF Procedure:
 Maximum # iterations   MaxIter         ....   999
 SCF integral mode      SCFMode         .... Direct
   Integral package                     .... LIBINT
 Reset frequeny         DirectResetFreq ....    20
 Integral Threshold     Thresh          ....  1.000e-10 Eh
 Primitive CutOff       TCut            ....  1.000e-11 Eh

Convergence Tolerance:
 Convergence Check Mode ConvCheckMode   .... All-Criteria
 Convergence forced     ConvForced      .... 0
 Energy Change          TolE            ....  1.000e-06 Eh
 Max Density Change     TolMaxP         ....  1.000e-05
 RMS Density Change     TolRMSP         ....  1.000e-06
 DIIS Error             TolErr          ....  1.000e-06


Diagonalization of the overlap matrix:
Smallest eigenvalue                        ... 3.270e-02
Time for diagonalization                   ...    0.001 sec
Threshold for overlap eigenvalues          ... 1.000e-08
Number of eigenvalues below threshold      ... 0
Time for construction of square roots      ...    0.005 sec
Total time needed                          ...    0.005 sec

-------------------
DFT GRID GENERATION
-------------------

General Integration Accuracy     IntAcc      ...  4.340
Radial Grid Type                 RadialGrid  ... Gauss-Chebyshev
Angular Grid (max. acc.)         AngularGrid ... Lebedev-110
Angular grid pruning method      GridPruning ... 3 (G Style)
Weight generation scheme         WeightScheme... Becke
Basis function cutoff            BFCut       ...    1.0000e-10
Integration weight cutoff        WCut        ...    1.0000e-14
Grids for H and He will be reduced by one unit

# of grid points (after initial pruning)     ...   6488 (   0.0 sec)
# of grid points (after weights+screening)   ...   6335 (   0.0 sec)
nearest neighbour list constructed           ...    0.0 sec
Grid point re-assignment to atoms done       ...    0.0 sec
Grid point division into batches done        ...    0.0 sec
Reduced shell lists constructed in    0.0 sec

Total number of grid points                  ...     6335
Total number of batches                      ...      102
Average number of points per batch           ...       62
Average number of grid points per atom       ...     1056
Average number of shells per batch           ...    16.41 (82.04%)
Average number of basis functions per batch  ...    29.94 (83.17%)
Average number of large shells per batch     ...    13.73 (83.67%)
Average number of large basis fcns per batch ...    24.52 (81.91%)
Maximum spatial batch extension              ...  22.93, 20.89, 23.44 au
Average spatial batch extension              ...   5.45,  5.18,  5.40 au

Time for grid setup =    0.048 sec

------------------------------
INITIAL GUESS: MODEL POTENTIAL
------------------------------
Loading Hartree-Fock densities                     ... done
Calculating cut-offs                               ... done
Setting up the integral package                    ... done
Initializing the effective Hamiltonian             ... done
Starting the Coulomb interaction                   ... done (   0.0 sec)
Reading the grid                                   ... done
Mapping shells                                     ... done
Starting the XC term evaluation                    ... done (   0.0 sec)
  promolecular density results
     # of electrons  =     15.992970729
     EX              =    -11.196585898
     EC              =     -0.451211297
     EX+EC           =    -11.647797195
Transforming the Hamiltonian                       ... done (   0.0 sec)
Diagonalizing the Hamiltonian                      ... done (   0.0 sec)
Back transforming the eigenvectors                 ... done (   0.0 sec)
Now organizing SCF variables                       ... done
                      ------------------
                      INITIAL GUESS DONE (   0.2 sec)
                      ------------------
--------------
SCF ITERATIONS
--------------
ITER       Energy         Delta-E        Max-DP      RMS-DP      [F,P]   Gradient Norm
               ***  Starting incremental Fock matrix formation  ***
                             ****Resetting KDIIS****
                             ****Turning on KDIIS(Cayley)****
  0    -78.1845348764   0.000000000000 0.00914148  0.00101381  0.0503517   0.047740091
  1    -78.1912208490  -0.006685972577 0.01288348  0.00136258  0.0434413   0.041229193
  2    -78.1986594700  -0.007438620992 0.02953720  0.00296520  0.0355129   0.033738683
  3    -78.2097068617  -0.011047391743 0.05001368  0.00508158  0.0210467   0.020168487
  4    -78.2164458408  -0.006738979043 0.00239390  0.00034153  0.0011713   0.000993470
  5    -78.2164762708  -0.000030430016 0.00281859  0.00029931  0.0008069   0.000472787
  6    -78.2164943948  -0.000018123993 0.00163818  0.00021446  0.0004636   0.000372215
  7    -78.2165017145  -0.000007319679 0.00055996  0.00006732  0.0000999   0.000087769
                          ***Energy convergence achieved***
  8    -78.2165021490  -0.000000434521 0.00013233  0.00000899  0.0000251   0.000016199

            ***Energy convergence in two consecutive cycles with***
                    ***'reasonable' density convergence***
                       *** signaling convergence ***

                    *** KDIIS BlockDiag ( 0.000 sec) ***

               *****************************************************
               *                     SUCCESS                       *
               *           SCF CONVERGED AFTER   9 CYCLES          *
               *****************************************************

Setting up the final grid:

General Integration Accuracy     IntAcc      ...  4.670
Radial Grid Type                 RadialGrid  ... Gauss-Chebyshev
Angular Grid (max. acc.)         AngularGrid ... Lebedev-302
Angular grid pruning method      GridPruning ... 3 (G Style)
Weight generation scheme         WeightScheme... Becke
Basis function cutoff            BFCut       ...    1.0000e-10
Integration weight cutoff        WCut        ...    1.0000e-14
Grids for H and He will be reduced by one unit

# of grid points (after initial pruning)     ...  26000 (   0.0 sec)
# of grid points (after weights+screening)   ...  25420 (   0.0 sec)
nearest neighbour list constructed           ...    0.0 sec
Grid point re-assignment to atoms done       ...    0.0 sec
Grid point division into batches done        ...    0.1 sec
Reduced shell lists constructed in    0.2 sec

Total number of grid points                  ...    25420
Total number of batches                      ...      400
Average number of points per batch           ...       63
Average number of grid points per atom       ...     4237
Average number of shells per batch           ...    14.79 (73.95%)
Average number of basis functions per batch  ...    26.87 (74.63%)
Average number of large shells per batch     ...    12.09 (81.72%)
Average number of large basis fcns per batch ...    21.39 (79.62%)
Maximum spatial batch extension              ...  20.27, 17.61, 19.97 au
Average spatial batch extension              ...   3.32,  3.30,  3.33 au

Final grid set up in    0.2 sec
Final integration                            ... done (   0.2 sec)
Change in XC energy                          ...     0.000978230
Integrated number of electrons               ...    15.999977535
Previous integrated no of electrons          ...    15.998445026

----------------
TOTAL SCF ENERGY
----------------

Total Energy       :          -78.21552392 Eh           -2128.35261 eV

Components:
Nuclear Repulsion  :           23.01289187 Eh             626.21262 eV
Electronic Energy  :         -101.22841579 Eh           -2754.56523 eV
One Electron Energy:         -149.21935824 Eh           -4060.46517 eV
Two Electron Energy:           47.99094245 Eh            1305.89993 eV

Virial components:
Potential Energy   :         -156.08085774 Eh           -4247.17606 eV
Kinetic Energy     :           77.86533381 Eh            2118.82345 eV
Virial Ratio       :            2.00449738


DFT components:
N(Alpha)           :        7.999988767264 electrons
N(Beta)            :        7.999988767264 electrons
N(Total)           :       15.999977534528 electrons
E(XC)              :       -8.134460141218 Eh       

---------------
SCF CONVERGENCE
---------------

  Last Energy change         ...   -5.2747e-09  Tolerance :   1.0000e-06
  Last MAX-Density change    ...    4.3751e-05  Tolerance :   1.0000e-05
  Last RMS-Density change    ...    2.9182e-06  Tolerance :   1.0000e-06
  Last DIIS Error            ...    7.2402e-06  Tolerance :   1.0000e-06

             **** THE GBW FILE WAS UPDATED (Scan_26.gbw) ****
             **** DENSITY FILE WAS UPDATED (Scan_26.scfp.tmp) ****
             **** ENERGY FILE WAS UPDATED (Scan_26.en.tmp) ****
----------------
ORBITAL ENERGIES
----------------

  NO   OCC          E(Eh)            E(eV) 
   0   2.0000     -10.336073      -281.2589 
   1   2.0000     -10.336019      -281.2574 
   2   2.0000      -0.774403       -21.0726 
   3   2.0000      -0.763721       -20.7819 
   4   2.0000      -0.537329       -14.6215 
   5   2.0000      -0.531160       -14.4536 
   6   2.0000      -0.316078        -8.6009 
   7   2.0000      -0.306561        -8.3420 
   8   0.0000      -0.045908        -1.2492 
   9   0.0000       0.019200         0.5225 
  10   0.0000       0.207747         5.6531 
  11   0.0000       0.231240         6.2924 
  12   0.0000       0.279394         7.6027 
  13   0.0000       0.288096         7.8395 
  14   0.0000       0.614978        16.7344 
  15   0.0000       0.627845        17.0845 
  16   0.0000       0.628588        17.1047 
  17   0.0000       0.694042        18.8858 
  18   0.0000       0.702999        19.1296 
  19   0.0000       0.712221        19.3805 
  20   0.0000       0.744344        20.2546 
  21   0.0000       0.965651        26.2767 
  22   0.0000       1.019902        27.7529 
  23   0.0000       1.023398        27.8481 
  24   0.0000       1.032697        28.1011 
  25   0.0000       1.125960        30.6389 
  26   0.0000       1.748443        47.5775 
  27   0.0000       1.749750        47.6131 
  28   0.0000       1.794933        48.8426 
  29   0.0000       1.795798        48.8661 
  30   0.0000       1.799178        48.9581 
  31   0.0000       1.813299        49.3424 
  32   0.0000       2.178986        59.2932 
  33   0.0000       2.197206        59.7890 
  34   0.0000       2.292284        62.3762 
  35   0.0000       2.341184        63.7069 

                    ********************************
                    * MULLIKEN POPULATION ANALYSIS *
                    ********************************

-----------------------
MULLIKEN ATOMIC CHARGES
-----------------------
   0 C :   -0.363206
   1 C :   -0.363254
   2 H :    0.181529
   3 H :    0.181683
   4 H :    0.181702
   5 H :    0.181548
Sum of atomic charges:   -0.0000000

--------------------------------
MULLIKEN REDUCED ORBITAL CHARGES
--------------------------------
  0 C s       :     3.661737  s :     3.661737
      pz      :     1.141066  p :     2.679424
      px      :     0.435955
      py      :     1.102403
      dz2     :     0.009531  d :     0.022045
      dxz     :     0.002696
      dyz     :     0.001645
      dx2y2   :     0.005230
      dxy     :     0.002944
  1 C s       :     3.661748  s :     3.661748
      pz      :     1.141055  p :     2.679461
      px      :     0.436006
      py      :     1.102400
      dz2     :     0.009530  d :     0.022046
      dxz     :     0.002697
      dyz     :     0.001645
      dx2y2   :     0.005229
      dxy     :     0.002944
  2 H s       :     0.818471  s :     0.818471
  3 H s       :     0.818317  s :     0.818317
  4 H s       :     0.818298  s :     0.818298
  5 H s       :     0.818452  s :     0.818452


                     *******************************
                     * LOEWDIN POPULATION ANALYSIS *
                     *******************************

----------------------
LOEWDIN ATOMIC CHARGES
----------------------
   0 C :   -0.262193
   1 C :   -0.262232
   2 H :    0.130917
   3 H :    0.131282
   4 H :    0.131296
   5 H :    0.130931

-------------------------------
LOEWDIN REDUCED ORBITAL CHARGES
-------------------------------
  0 C s       :     3.404477  s :     3.404477
      pz      :     1.203319  p :     2.826167
      px      :     0.448245
      py      :     1.174603
      dz2     :     0.013799  d :     0.031550
      dxz     :     0.003296
      dyz     :     0.003093
      dx2y2   :     0.007608
      dxy     :     0.003755
  1 C s       :     3.404487  s :     3.404487
      pz      :     1.203303  p :     2.826195
      px      :     0.448297
      py      :     1.174595
      dz2     :     0.013798  d :     0.031550
      dxz     :     0.003297
      dyz     :     0.003093
      dx2y2   :     0.007607
      dxy     :     0.003755
  2 H s       :     0.869083  s :     0.869083
  3 H s       :     0.868718  s :     0.868718
  4 H s       :     0.868704  s :     0.868704
  5 H s       :     0.869069  s :     0.869069


                      *****************************
                      * MAYER POPULATION ANALYSIS *
                      *****************************

  NA   - Mulliken gross atomic population
  ZA   - Total nuclear charge
  QA   - Mulliken gross atomic charge
  VA   - Mayer's total valence
  BVA  - Mayer's bonded valence
  FA   - Mayer's free valence

  ATOM       NA         ZA         QA         VA         BVA        FA
  0 C      6.3632     6.0000    -0.3632     2.0240     2.0240    -0.0000
  1 C      6.3633     6.0000    -0.3633     2.0240     2.0240     0.0000
  2 H      0.8185     1.0000     0.1815     0.9246     0.9246    -0.0000
  3 H      0.8183     1.0000     0.1817     0.9250     0.9250    -0.0000
  4 H      0.8183     1.0000     0.1817     0.9250     0.9250     0.0000
  5 H      0.8185     1.0000     0.1815     0.9246     0.9246     0.0000

  Mayer bond orders larger than 0.1
B(  0-C ,  1-C ) :   0.1764 B(  0-C ,  2-H ) :   0.9224 B(  0-C ,  3-H ) :   0.9228 
B(  1-C ,  4-H ) :   0.9228 B(  1-C ,  5-H ) :   0.9224 

-------
TIMINGS
-------

Total SCF time: 0 days 0 hours 0 min 3 sec 

Total time                  ....       3.616 sec
Sum of individual times     ....       3.496 sec  ( 96.7%)

Fock matrix formation       ....       3.041 sec  ( 84.1%)
  XC integration            ....       1.027 sec  ( 33.8% of F)
    Basis function eval.    ....       0.402 sec  ( 39.1% of XC)
    Density eval.           ....       0.050 sec  (  4.9% of XC)
    XC-Functional eval.     ....       0.303 sec  ( 29.4% of XC)
    XC-Potential eval.      ....       0.046 sec  (  4.5% of XC)
Diagonalization             ....       0.015 sec  (  0.4%)
Density matrix formation    ....       0.000 sec  (  0.0%)
Population analysis         ....       0.010 sec  (  0.3%)
Initial guess               ....       0.150 sec  (  4.2%)
Orbital Transformation      ....       0.000 sec  (  0.0%)
Orbital Orthonormalization  ....       0.000 sec  (  0.0%)
DIIS solution               ....       0.000 sec  (  0.0%)
Grid generation             ....       0.280 sec  (  7.7%)


-------------------------------------------------------------------------------
                          DFT DISPERSION CORRECTION                            
                                                                               
                              DFTD3 V3.1  Rev 1                                
                              USING zero damping                               
-------------------------------------------------------------------------------
The omegaB97X-D3 functional is recognized. Fit by Chai et al.
Active option DFTDOPT                   ...         3   

molecular C6(AA) [au] = 320.247766 


            DFT-D V3
 parameters
 s6 scaling factor         :     1.0000 
 rs6 scaling factor        :     1.2810 
 s8 scaling factor         :     1.0000 
 rs8 scaling factor        :     1.0940 
 Damping factor alpha6     :    14.0000 
 Damping factor alpha8     :    16.0000 
 ad hoc parameters k1-k3   :    16.0000     1.3333    -4.0000 

 Edisp/kcal,au: -0.389946946030  -0.000621419948 
 E6   /kcal   :  -0.175227106 
 E8   /kcal   :  -0.214719840 
 % E8         :  55.063859857 

-------------------------   ----------------
Dispersion correction           -0.000621420
-------------------------   ----------------


-------------------------   --------------------
FINAL SINGLE POINT ENERGY       -78.216145343801
-------------------------   --------------------


                            ***************************************
                            *     ORCA property calculations      *
                            ***************************************

                                    ---------------------
                                    Active property flags
                                    ---------------------
   (+) Dipole Moment


------------------------------------------------------------------------------
                       ORCA ELECTRIC PROPERTIES CALCULATION
------------------------------------------------------------------------------

Dipole Moment Calculation                       ... on
Quadrupole Moment Calculation                   ... off
Polarizability Calculation                      ... off
GBWName                                         ... Scan_26.gbw
Electron density file                           ... Scan_26.scfp.tmp

-------------
DIPOLE MOMENT
-------------
                                X             Y             Z
Electronic contribution:     -0.00003      -0.00002       0.00002
Nuclear contribution   :      0.00003       0.00001      -0.00001
                        -----------------------------------------
Total Dipole Moment    :     -0.00000      -0.00001       0.00002
                        -----------------------------------------
Magnitude (a.u.)       :      0.00002
Magnitude (Debye)      :      0.00006


Timings for individual modules:

Sum of individual times         ...        3.971 sec (=   0.066 min)
GTO integral calculation        ...        0.318 sec (=   0.005 min)   8.0 %
SCF iterations                  ...        3.653 sec (=   0.061 min)  92.0 %
                             ****ORCA TERMINATED NORMALLY****
TOTAL RUN TIME: 0 days 0 hours 0 minutes 4 seconds 304 msec
