
                                 *****************
                                 * O   R   C   A *
                                 *****************

           --- An Ab Initio, DFT and Semiempirical electronic structure package ---

                  #######################################################
                  #                        -***-                        #
                  #  Department of molecular theory and spectroscopy    #
                  #              Directorship: Frank Neese              #
                  # Max Planck Institute for Chemical Energy Conversion #
                  #                  D-45470 Muelheim/Ruhr              #
                  #                       Germany                       #
                  #                                                     #
                  #                  All rights reserved                #
                  #                        -***-                        #
                  #######################################################


                         Program Version 4.0.0.2 - RELEASE -


 With contributions from (in alphabetic order):
   Daniel Aravena         : Magnetic Properties
   Michael Atanasov       : Ab Initio Ligand Field Theory
   Ute Becker             : Parallelization
   Martin Brehm           : Molecular dynamics
   Dmytro Bykov           : SCF Hessian
   Vijay G. Chilkuri      : MRCI spin determinant printing
   Dipayan Datta          : RHF DLPNO-CCSD density
   Achintya Kumar Dutta   : EOM-CC, STEOM-CC
   Dmitry Ganyushin       : Spin-Orbit,Spin-Spin,Magnetic field MRCI
   Yang Guo               : DLPNO-NEVPT2, CIM, IAO-localization
   Andreas Hansen         : Spin unrestricted coupled pair/coupled cluster methods
   Lee Huntington         : MR-EOM, pCC
   Robert Izsak           : Overlap fitted RIJCOSX, COSX-SCS-MP3, EOM
   Christian Kollmar      : KDIIS, OOCD, Brueckner-CCSD(T), CCSD density
   Simone Kossmann        : Meta GGA functionals, TD-DFT gradient, OOMP2, MP2 Hessian
   Martin Krupicka        : AUTO-CI
   Dagmar Lenk            : GEPOL surface
   Dimitrios Liakos       : Extrapolation schemes; parallel MDCI
   Dimitrios Manganas     : ROCIS; embedding schemes
   Dimitrios Pantazis     : SARC Basis sets
   Taras Petrenko         : DFT Hessian,TD-DFT gradient, ASA, ECA, R-Raman, ABS, FL, XAS/XES, NRVS
   Peter Pinski           : DLPNO-MP2
   Christoph Reimann      : Effective Core Potentials
   Marius Retegan         : Local ZFS, SOC
   Christoph Riplinger    : Optimizer, TS searches, QM/MM, DLPNO-CCSD(T), (RO)-DLPNO pert. Triples
   Tobias Risthaus        : Range-separated hybrids, TD-DFT gradient, RPA, STAB
   Michael Roemelt        : Restricted open shell CIS
   Masaaki Saitow         : Open-shell DLPNO
   Barbara Sandhoefer     : DKH picture change effects
   Kantharuban Sivalingam : CASSCF convergence, NEVPT2, FIC-MRCI
   Georgi Stoychev        : AutoAux
   Boris Wezisla          : Elementary symmetry handling
   Frank Wennmohs         : Technical directorship


 We gratefully acknowledge several colleagues who have allowed us to
 interface, adapt or use parts of their codes:
   Stefan Grimme, W. Hujo, H. Kruse,             : VdW corrections, initial TS optimization,
                  C. Bannwarth                     DFT functionals, gCP, sTDA/sTD-DF
   Ed Valeev                                     : LibInt (2-el integral package), F12 methods
   Garnet Chan, S. Sharma, J. Yang, R. Olivares  : DMRG
   Ulf Ekstrom                                   : XCFun DFT Library
   Mihaly Kallay                                 : mrcc  (arbitrary order and MRCC methods)
   Jiri Pittner, Ondrej Demel                    : Mk-CCSD
   Frank Weinhold                                : gennbo (NPA and NBO analysis)
   Christopher J. Cramer and Donald G. Truhlar   : smd solvation model


 Your calculation uses the libint2 library for the computation of 2-el integrals
 For citations please refer to: http://libint.valeyev.net

 This ORCA versions uses:
   CBLAS   interface :  Fast vector & matrix operations
   LAPACKE interface :  Fast linear algebra routines
   SCALAPACK package :  Parallel linear algebra routines


Your calculation utilizes the atom-pairwise dispersion correction
with the zero-damping scheme (D30)
Cite in your paper:
S.Grimme, J.Antony, S.Ehrlich and H.Krieg, J.Chem.Phys., 132, (2010), 154104 
   

XCFun DFT library Copyright 2009-2010 Ulf Ekstrom and contributors.
See http://admol.org/xcfun for more information. This is free soft-
ware; see the source code for copying conditions. There is ABSOLUTELY
NO WARRANTY; not even for MERCHANTABILITY or FITNESS FOR A PARTICULAR
PURPOSE. For details see the documentation. Scientific users of this 
library should cite U. Ekstrom, L. Visscher, R. Bast, A. J. Thorvald-
sen and K. Ruud; J.Chem.Theor.Comp. 2010, DOI: 10.1021/ct100117s
XCFun Version 0.99 
Your calculation utilizes the basis: 6-31G(d)
   H-He, Li-Ne : W. J. Hehre, R. Ditchfield and J.A. Pople, J. Chem. Phys. 56, 2257 (1972).
                 Note: He and Ne are unpublished basis sets taken from the Gaussian program.
                 Note: Li and B from J. D. Dill and J. A. Pople, J. Chem. Phys. 62, 2921 (1975).
   Na - Ar     : M. M. Francl, W. J. Pietro, W. J. Hehre, J. S. Binkley, M. S. Gordon, 
                 D. J. DeFrees and J. A. Pople, J. Chem. Phys. 77, 3654 (1982).
   K - Zn      : V. A. Rassolov, J. A. Pople, M. A. Ratner, and T. L. Windus, J. Chem. Phys. 109, 1223 (1998).

================================================================================
                                        WARNINGS
                       Please study these warnings very carefully!
================================================================================

Warning: TCutStore was < 0. Adjusted to Thresh (uncritical)

INFO   : the flag for use of LIBINT has been found!

================================================================================
                                       INPUT FILE
================================================================================
NAME = initial27.inp
|  1> ! WB97X-D3 6-31G(d) VerySlowConv
|  2> ! KDIIS NOSOSCF
|  3> %base "Scan_27"
|  4> 
|  5> %scf
|  6> maxiter 999
|  7> end
|  8> 
|  9> * xyz 0 1
| 10> C         -2.544182554727    1.013761266528    0.298096507576
| 11> C          0.506509744194    1.536836796946   -0.298160354847
| 12> H         -2.727732900096    0.626783528144   -0.690134932475
| 13> H         -2.735256984426    2.050220822794    0.520101076082
| 14> H          0.697458272493    0.500317450702   -0.520050195819
| 15> H          0.689934422563    1.923710134886    0.690147899483
| 16> **                         ****END OF INPUT****
================================================================================

                       ****************************
                       * Single Point Calculation *
                       ****************************

---------------------------------
CARTESIAN COORDINATES (ANGSTROEM)
---------------------------------
  C     -2.544183    1.013761    0.298097
  C      0.506510    1.536837   -0.298160
  H     -2.727733    0.626784   -0.690135
  H     -2.735257    2.050221    0.520101
  H      0.697458    0.500317   -0.520050
  H      0.689934    1.923710    0.690148

----------------------------
CARTESIAN COORDINATES (A.U.)
----------------------------
  NO LB      ZA    FRAG     MASS         X           Y           Z
   0 C     6.0000    0    12.011   -4.807808    1.915731    0.563321
   1 C     6.0000    0    12.011    0.957165    2.904201   -0.563441
   2 H     1.0000    0     1.008   -5.154668    1.184449   -1.304166
   3 H     1.0000    0     1.008   -5.168887    3.874356    0.982849
   4 H     1.0000    0     1.008    1.318005    0.945463   -0.982752
   5 H     1.0000    0     1.008    1.303787    3.635285    1.304191

--------------------------------
INTERNAL COORDINATES (ANGSTROEM)
--------------------------------
 C      0   0   0     0.000000000000     0.00000000     0.00000000
 C      1   0   0     3.152118931640     0.00000000     0.00000000
 H      1   2   0     1.077053331268    92.92317423     0.00000000
 H      1   2   3     1.077053331037    92.92317378   239.43168617
 H      2   1   3     1.077064899216    92.91496752   300.56335771
 H      2   1   3     1.077064899540    92.91496774   180.00495679

---------------------------
INTERNAL COORDINATES (A.U.)
---------------------------
 C      0   0   0     0.000000000000     0.00000000     0.00000000
 C      1   0   0     5.956641522348     0.00000000     0.00000000
 H      1   2   0     2.035335827724    92.92317423     0.00000000
 H      1   2   3     2.035335827287    92.92317378   239.43168617
 H      2   1   3     2.035357687979    92.91496752   300.56335771
 H      2   1   3     2.035357688589    92.91496774   180.00495679

---------------------
BASIS SET INFORMATION
---------------------
There are 2 groups of distinct atoms

 Group   1 Type C   : 10s4p1d contracted to 3s2p1d pattern {631/31/1}
 Group   2 Type H   : 4s contracted to 2s pattern {31}

Atom   0C    basis set group =>   1
Atom   1C    basis set group =>   1
Atom   2H    basis set group =>   2
Atom   3H    basis set group =>   2
Atom   4H    basis set group =>   2
Atom   5H    basis set group =>   2
------------------------------------------------------------------------------
                           ORCA GTO INTEGRAL CALCULATION
------------------------------------------------------------------------------

                         BASIS SET STATISTICS AND STARTUP INFO

 # of primitive gaussian shells          ...   46
 # of primitive gaussian functions       ...   70
 # of contracted shells                  ...   20
 # of contracted basis functions         ...   36
 Highest angular momentum                ...    2
 Maximum contraction depth               ...    6
 Integral package used                   ... LIBINT
 Integral threshhold            Thresh   ...  1.000e-10
 Primitive cut-off              TCut     ...  1.000e-11


------------------------------ INTEGRAL EVALUATION ----------------------------


 * One electron integrals 
 Pre-screening matrix                    ... done
 Shell pair data                         ... done (   0.000 sec)

-------------------------------------------------------------------------------
                                 ORCA SCF
-------------------------------------------------------------------------------

------------
SCF SETTINGS
------------
Hamiltonian:
 Density Functional     Method          .... DFT(GTOs)
 Exchange Functional    Exchange        .... WB97X-D3
 Correlation Functional Correlation     .... WB97X-D3
 Gradients option       PostSCFGGA      .... off
 Hybrid DFT is turned on
   Fraction HF Exchange ScalHFX         ....  0.195728
   Scaling of DF-GGA-X  ScalDFX         ....  0.000000
   Scaling of DF-GGA-C  ScalDFC         ....  1.000000
   Scaling of DF-LDA-C  ScalLDAC        ....  1.000000
   Perturbative correction              ....  0.000000
 Long-range corrected/Screened/Range-Separated Hybrid DFT is turned on
   Amount of maximum screened exact exchange              ....  0.804272
   Range separation parameter mu (erf(mu*r12)/r12)        ....  0.250000


General Settings:
 Integral files         IntName         .... Scan_27
 Hartree-Fock type      HFTyp           .... RHF
 Total Charge           Charge          ....    0
 Multiplicity           Mult            ....    1
 Number of Electrons    NEL             ....   16
 Basis Dimension        Dim             ....   36
 Nuclear Repulsion      ENuc            ....     22.7356283855 Eh

Convergence Acceleration:
 DIIS                   CNVDIIS         .... on
   Start iteration      DIISMaxIt       ....     0
   Startup error        DIISStart       ....  0.200000
   # of expansion vecs  DIISMaxEq       ....     5
   Bias factor          DIISBfac        ....   1.050
   Max. coefficient     DIISMaxC        ....  10.000
 Newton-Raphson         CNVNR           .... off
 SOSCF                  CNVSOSCF        .... off
 Level Shifting         CNVShift        .... off
 Zerner damping         CNVZerner       .... off
 Static damping         CNVDamp         .... off
 Fernandez-Rico         CNVRico         .... off

SCF Procedure:
 Maximum # iterations   MaxIter         ....   999
 SCF integral mode      SCFMode         .... Direct
   Integral package                     .... LIBINT
 Reset frequeny         DirectResetFreq ....    20
 Integral Threshold     Thresh          ....  1.000e-10 Eh
 Primitive CutOff       TCut            ....  1.000e-11 Eh

Convergence Tolerance:
 Convergence Check Mode ConvCheckMode   .... All-Criteria
 Convergence forced     ConvForced      .... 0
 Energy Change          TolE            ....  1.000e-06 Eh
 Max Density Change     TolMaxP         ....  1.000e-05
 RMS Density Change     TolRMSP         ....  1.000e-06
 DIIS Error             TolErr          ....  1.000e-06


Diagonalization of the overlap matrix:
Smallest eigenvalue                        ... 3.287e-02
Time for diagonalization                   ...    0.001 sec
Threshold for overlap eigenvalues          ... 1.000e-08
Number of eigenvalues below threshold      ... 0
Time for construction of square roots      ...    0.005 sec
Total time needed                          ...    0.005 sec

-------------------
DFT GRID GENERATION
-------------------

General Integration Accuracy     IntAcc      ...  4.340
Radial Grid Type                 RadialGrid  ... Gauss-Chebyshev
Angular Grid (max. acc.)         AngularGrid ... Lebedev-110
Angular grid pruning method      GridPruning ... 3 (G Style)
Weight generation scheme         WeightScheme... Becke
Basis function cutoff            BFCut       ...    1.0000e-10
Integration weight cutoff        WCut        ...    1.0000e-14
Grids for H and He will be reduced by one unit

# of grid points (after initial pruning)     ...   6488 (   0.0 sec)
# of grid points (after weights+screening)   ...   6360 (   0.0 sec)
nearest neighbour list constructed           ...    0.0 sec
Grid point re-assignment to atoms done       ...    0.0 sec
Grid point division into batches done        ...    0.0 sec
Reduced shell lists constructed in    0.0 sec

Total number of grid points                  ...     6360
Total number of batches                      ...      102
Average number of points per batch           ...       62
Average number of grid points per atom       ...     1060
Average number of shells per batch           ...    16.27 (81.36%)
Average number of basis functions per batch  ...    29.50 (81.93%)
Average number of large shells per batch     ...    13.66 (83.95%)
Average number of large basis fcns per batch ...    24.42 (82.78%)
Maximum spatial batch extension              ...  22.94, 20.92, 23.49 au
Average spatial batch extension              ...   5.47,  5.17,  5.32 au

Time for grid setup =    0.045 sec

------------------------------
INITIAL GUESS: MODEL POTENTIAL
------------------------------
Loading Hartree-Fock densities                     ... done
Calculating cut-offs                               ... done
Setting up the integral package                    ... done
Initializing the effective Hamiltonian             ... done
Starting the Coulomb interaction                   ... done (   0.0 sec)
Reading the grid                                   ... done
Mapping shells                                     ... done
Starting the XC term evaluation                    ... done (   0.0 sec)
  promolecular density results
     # of electrons  =     15.993650685
     EX              =    -11.195871499
     EC              =     -0.450773816
     EX+EC           =    -11.646645316
Transforming the Hamiltonian                       ... done (   0.0 sec)
Diagonalizing the Hamiltonian                      ... done (   0.0 sec)
Back transforming the eigenvectors                 ... done (   0.0 sec)
Now organizing SCF variables                       ... done
                      ------------------
                      INITIAL GUESS DONE (   0.2 sec)
                      ------------------
--------------
SCF ITERATIONS
--------------
ITER       Energy         Delta-E        Max-DP      RMS-DP      [F,P]   Gradient Norm
               ***  Starting incremental Fock matrix formation  ***
                             ****Resetting KDIIS****
                             ****Turning on KDIIS(Cayley)****
  0    -78.1834512081   0.000000000000 0.01007221  0.00102696  0.0481526   0.047846316
  1    -78.1899068052  -0.006455597127 0.00983540  0.00131432  0.0414991   0.041292683
  2    -78.1968071056  -0.006900300384 0.01878253  0.00255576  0.0338211   0.033639867
  3    -78.2062198049  -0.009412699354 0.03185212  0.00421209  0.0202141   0.020171197
  4    -78.2118470491  -0.005627244133 0.00170590  0.00020988  0.0007641   0.000604975
  5    -78.2118608703  -0.000013821275 0.00158307  0.00020109  0.0004833   0.000281464
  6    -78.2118697162  -0.000008845840 0.00131650  0.00016768  0.0003137   0.000234139
  7    -78.2118737016  -0.000003985446 0.00043896  0.00005582  0.0000767   0.000067544
                          ***Energy convergence achieved***
  8    -78.2118739884  -0.000000286735 0.00011775  0.00000716  0.0000199   0.000017924

            ***Energy convergence in two consecutive cycles with***
                    ***'reasonable' density convergence***
                       *** signaling convergence ***

                    *** KDIIS BlockDiag ( 0.000 sec) ***

               *****************************************************
               *                     SUCCESS                       *
               *           SCF CONVERGED AFTER   9 CYCLES          *
               *****************************************************

Setting up the final grid:

General Integration Accuracy     IntAcc      ...  4.670
Radial Grid Type                 RadialGrid  ... Gauss-Chebyshev
Angular Grid (max. acc.)         AngularGrid ... Lebedev-302
Angular grid pruning method      GridPruning ... 3 (G Style)
Weight generation scheme         WeightScheme... Becke
Basis function cutoff            BFCut       ...    1.0000e-10
Integration weight cutoff        WCut        ...    1.0000e-14
Grids for H and He will be reduced by one unit

# of grid points (after initial pruning)     ...  26000 (   0.0 sec)
# of grid points (after weights+screening)   ...  25442 (   0.0 sec)
nearest neighbour list constructed           ...    0.0 sec
Grid point re-assignment to atoms done       ...    0.0 sec
Grid point division into batches done        ...    0.1 sec
Reduced shell lists constructed in    0.2 sec

Total number of grid points                  ...    25442
Total number of batches                      ...      402
Average number of points per batch           ...       63
Average number of grid points per atom       ...     4240
Average number of shells per batch           ...    14.65 (73.26%)
Average number of basis functions per batch  ...    26.49 (73.58%)
Average number of large shells per batch     ...    12.00 (81.88%)
Average number of large basis fcns per batch ...    21.20 (80.03%)
Maximum spatial batch extension              ...  20.50, 17.61, 20.02 au
Average spatial batch extension              ...   3.28,  3.28,  3.31 au

Final grid set up in    0.2 sec
Final integration                            ... done (   0.2 sec)
Change in XC energy                          ...     0.000825212
Integrated number of electrons               ...    15.999977238
Previous integrated no of electrons          ...    15.999245913

----------------
TOTAL SCF ENERGY
----------------

Total Energy       :          -78.21104878 Eh           -2128.23083 eV

Components:
Nuclear Repulsion  :           22.73562839 Eh             618.66790 eV
Electronic Energy  :         -100.94667717 Eh           -2746.89874 eV
One Electron Energy:         -148.63777144 Eh           -4044.63939 eV
Two Electron Energy:           47.69109428 Eh            1297.74065 eV

Virial components:
Potential Energy   :         -156.10663410 Eh           -4247.87747 eV
Kinetic Energy     :           77.89558531 Eh            2119.64664 eV
Virial Ratio       :            2.00404982


DFT components:
N(Alpha)           :        7.999988619095 electrons
N(Beta)            :        7.999988619095 electrons
N(Total)           :       15.999977238191 electrons
E(XC)              :       -8.138833261486 Eh       

---------------
SCF CONVERGENCE
---------------

  Last Energy change         ...   -5.1599e-09  Tolerance :   1.0000e-06
  Last MAX-Density change    ...    6.7782e-05  Tolerance :   1.0000e-05
  Last RMS-Density change    ...    4.3259e-06  Tolerance :   1.0000e-06
  Last DIIS Error            ...    7.9304e-06  Tolerance :   1.0000e-06

             **** THE GBW FILE WAS UPDATED (Scan_27.gbw) ****
             **** DENSITY FILE WAS UPDATED (Scan_27.scfp.tmp) ****
             **** ENERGY FILE WAS UPDATED (Scan_27.en.tmp) ****
----------------
ORBITAL ENERGIES
----------------

  NO   OCC          E(Eh)            E(eV) 
   0   2.0000     -10.335862      -281.2531 
   1   2.0000     -10.335823      -281.2521 
   2   2.0000      -0.775614       -21.1055 
   3   2.0000      -0.766365       -20.8539 
   4   2.0000      -0.538373       -14.6499 
   5   2.0000      -0.532855       -14.4997 
   6   2.0000      -0.313211        -8.5229 
   7   2.0000      -0.310525        -8.4498 
   8   0.0000      -0.047322        -1.2877 
   9   0.0000       0.013862         0.3772 
  10   0.0000       0.205887         5.6025 
  11   0.0000       0.229143         6.2353 
  12   0.0000       0.278044         7.5659 
  13   0.0000       0.285776         7.7764 
  14   0.0000       0.611129        16.6297 
  15   0.0000       0.621392        16.9089 
  16   0.0000       0.631532        17.1849 
  17   0.0000       0.696751        18.9596 
  18   0.0000       0.699511        19.0347 
  19   0.0000       0.700197        19.0533 
  20   0.0000       0.746975        20.3262 
  21   0.0000       0.954819        25.9819 
  22   0.0000       1.019268        27.7357 
  23   0.0000       1.020531        27.7701 
  24   0.0000       1.029113        28.0036 
  25   0.0000       1.112176        30.2639 
  26   0.0000       1.746499        47.5247 
  27   0.0000       1.747211        47.5440 
  28   0.0000       1.792820        48.7851 
  29   0.0000       1.793279        48.7976 
  30   0.0000       1.797416        48.9102 
  31   0.0000       1.806276        49.1513 
  32   0.0000       2.179134        59.2973 
  33   0.0000       2.191260        59.6272 
  34   0.0000       2.293577        62.4114 
  35   0.0000       2.337741        63.6132 

                    ********************************
                    * MULLIKEN POPULATION ANALYSIS *
                    ********************************

-----------------------
MULLIKEN ATOMIC CHARGES
-----------------------
   0 C :   -0.360947
   1 C :   -0.360921
   2 H :    0.180451
   3 H :    0.180513
   4 H :    0.180483
   5 H :    0.180422
Sum of atomic charges:    0.0000000

--------------------------------
MULLIKEN REDUCED ORBITAL CHARGES
--------------------------------
  0 C s       :     3.669640  s :     3.669640
      pz      :     1.213946  p :     2.669107
      px      :     0.300088
      py      :     1.155073
      dz2     :     0.010697  d :     0.022200
      dxz     :     0.001909
      dyz     :     0.001430
      dx2y2   :     0.006108
      dxy     :     0.002055
  1 C s       :     3.669682  s :     3.669682
      pz      :     1.214142  p :     2.669037
      px      :     0.299683
      py      :     1.155212
      dz2     :     0.010702  d :     0.022202
      dxz     :     0.001906
      dyz     :     0.001429
      dx2y2   :     0.006112
      dxy     :     0.002053
  2 H s       :     0.819549  s :     0.819549
  3 H s       :     0.819487  s :     0.819487
  4 H s       :     0.819517  s :     0.819517
  5 H s       :     0.819578  s :     0.819578


                     *******************************
                     * LOEWDIN POPULATION ANALYSIS *
                     *******************************

----------------------
LOEWDIN ATOMIC CHARGES
----------------------
   0 C :   -0.260448
   1 C :   -0.260442
   2 H :    0.130073
   3 H :    0.130393
   4 H :    0.130372
   5 H :    0.130052

-------------------------------
LOEWDIN REDUCED ORBITAL CHARGES
-------------------------------
  0 C s       :     3.411755  s :     3.411755
      pz      :     1.278886  p :     2.816983
      px      :     0.308714
      py      :     1.229383
      dz2     :     0.015338  d :     0.031711
      dxz     :     0.002300
      dyz     :     0.002818
      dx2y2   :     0.008666
      dxy     :     0.002588
  1 C s       :     3.411793  s :     3.411793
      pz      :     1.279098  p :     2.816935
      px      :     0.308303
      py      :     1.229534
      dz2     :     0.015345  d :     0.031714
      dxz     :     0.002298
      dyz     :     0.002816
      dx2y2   :     0.008670
      dxy     :     0.002584
  2 H s       :     0.869927  s :     0.869927
  3 H s       :     0.869607  s :     0.869607
  4 H s       :     0.869628  s :     0.869628
  5 H s       :     0.869948  s :     0.869948


                      *****************************
                      * MAYER POPULATION ANALYSIS *
                      *****************************

  NA   - Mulliken gross atomic population
  ZA   - Total nuclear charge
  QA   - Mulliken gross atomic charge
  VA   - Mayer's total valence
  BVA  - Mayer's bonded valence
  FA   - Mayer's free valence

  ATOM       NA         ZA         QA         VA         BVA        FA
  0 C      6.3609     6.0000    -0.3609     1.9450     1.9450     0.0000
  1 C      6.3609     6.0000    -0.3609     1.9450     1.9450    -0.0000
  2 H      0.8195     1.0000     0.1805     0.9241     0.9241     0.0000
  3 H      0.8195     1.0000     0.1805     0.9246     0.9246     0.0000
  4 H      0.8195     1.0000     0.1805     0.9246     0.9246    -0.0000
  5 H      0.8196     1.0000     0.1804     0.9241     0.9241    -0.0000

  Mayer bond orders larger than 0.1
B(  0-C ,  2-H ) :   0.9223 B(  0-C ,  3-H ) :   0.9228 B(  1-C ,  4-H ) :   0.9228 
B(  1-C ,  5-H ) :   0.9224 

-------
TIMINGS
-------

Total SCF time: 0 days 0 hours 0 min 3 sec 

Total time                  ....       3.387 sec
Sum of individual times     ....       3.259 sec  ( 96.2%)

Fock matrix formation       ....       2.829 sec  ( 83.5%)
  XC integration            ....       0.906 sec  ( 32.0% of F)
    Basis function eval.    ....       0.344 sec  ( 38.0% of XC)
    Density eval.           ....       0.044 sec  (  4.8% of XC)
    XC-Functional eval.     ....       0.262 sec  ( 28.9% of XC)
    XC-Potential eval.      ....       0.039 sec  (  4.3% of XC)
Diagonalization             ....       0.023 sec  (  0.7%)
Density matrix formation    ....       0.000 sec  (  0.0%)
Population analysis         ....       0.009 sec  (  0.3%)
Initial guess               ....       0.135 sec  (  4.0%)
Orbital Transformation      ....       0.000 sec  (  0.0%)
Orbital Orthonormalization  ....       0.000 sec  (  0.0%)
DIIS solution               ....       0.000 sec  (  0.0%)
Grid generation             ....       0.263 sec  (  7.8%)


-------------------------------------------------------------------------------
                          DFT DISPERSION CORRECTION                            
                                                                               
                              DFTD3 V3.1  Rev 1                                
                              USING zero damping                               
-------------------------------------------------------------------------------
The omegaB97X-D3 functional is recognized. Fit by Chai et al.
Active option DFTDOPT                   ...         3   

molecular C6(AA) [au] = 320.268412 


            DFT-D V3
 parameters
 s6 scaling factor         :     1.0000 
 rs6 scaling factor        :     1.2810 
 s8 scaling factor         :     1.0000 
 rs8 scaling factor        :     1.0940 
 Damping factor alpha6     :    14.0000 
 Damping factor alpha8     :    16.0000 
 ad hoc parameters k1-k3   :    16.0000     1.3333    -4.0000 

 Edisp/kcal,au: -0.391967643725  -0.000624640134 
 E6   /kcal   :  -0.182916824 
 E8   /kcal   :  -0.209050819 
 % E8         :  53.333692910 

-------------------------   ----------------
Dispersion correction           -0.000624640
-------------------------   ----------------


-------------------------   --------------------
FINAL SINGLE POINT ENERGY       -78.211673422004
-------------------------   --------------------


                            ***************************************
                            *     ORCA property calculations      *
                            ***************************************

                                    ---------------------
                                    Active property flags
                                    ---------------------
   (+) Dipole Moment


------------------------------------------------------------------------------
                       ORCA ELECTRIC PROPERTIES CALCULATION
------------------------------------------------------------------------------

Dipole Moment Calculation                       ... on
Quadrupole Moment Calculation                   ... off
Polarizability Calculation                      ... off
GBWName                                         ... Scan_27.gbw
Electron density file                           ... Scan_27.scfp.tmp

-------------
DIPOLE MOMENT
-------------
                                X             Y             Z
Electronic contribution:     -0.00012       0.00004      -0.00005
Nuclear contribution   :     -0.00020      -0.00013       0.00015
                        -----------------------------------------
Total Dipole Moment    :     -0.00032      -0.00009       0.00011
                        -----------------------------------------
Magnitude (a.u.)       :      0.00035
Magnitude (Debye)      :      0.00090


Timings for individual modules:

Sum of individual times         ...        3.717 sec (=   0.062 min)
GTO integral calculation        ...        0.297 sec (=   0.005 min)   8.0 %
SCF iterations                  ...        3.420 sec (=   0.057 min)  92.0 %
                             ****ORCA TERMINATED NORMALLY****
TOTAL RUN TIME: 0 days 0 hours 0 minutes 4 seconds 27 msec
