
                                 *****************
                                 * O   R   C   A *
                                 *****************

           --- An Ab Initio, DFT and Semiempirical electronic structure package ---

                  #######################################################
                  #                        -***-                        #
                  #  Department of molecular theory and spectroscopy    #
                  #              Directorship: Frank Neese              #
                  # Max Planck Institute for Chemical Energy Conversion #
                  #                  D-45470 Muelheim/Ruhr              #
                  #                       Germany                       #
                  #                                                     #
                  #                  All rights reserved                #
                  #                        -***-                        #
                  #######################################################


                         Program Version 4.0.0.2 - RELEASE -


 With contributions from (in alphabetic order):
   Daniel Aravena         : Magnetic Properties
   Michael Atanasov       : Ab Initio Ligand Field Theory
   Ute Becker             : Parallelization
   Martin Brehm           : Molecular dynamics
   Dmytro Bykov           : SCF Hessian
   Vijay G. Chilkuri      : MRCI spin determinant printing
   Dipayan Datta          : RHF DLPNO-CCSD density
   Achintya Kumar Dutta   : EOM-CC, STEOM-CC
   Dmitry Ganyushin       : Spin-Orbit,Spin-Spin,Magnetic field MRCI
   Yang Guo               : DLPNO-NEVPT2, CIM, IAO-localization
   Andreas Hansen         : Spin unrestricted coupled pair/coupled cluster methods
   Lee Huntington         : MR-EOM, pCC
   Robert Izsak           : Overlap fitted RIJCOSX, COSX-SCS-MP3, EOM
   Christian Kollmar      : KDIIS, OOCD, Brueckner-CCSD(T), CCSD density
   Simone Kossmann        : Meta GGA functionals, TD-DFT gradient, OOMP2, MP2 Hessian
   Martin Krupicka        : AUTO-CI
   Dagmar Lenk            : GEPOL surface
   Dimitrios Liakos       : Extrapolation schemes; parallel MDCI
   Dimitrios Manganas     : ROCIS; embedding schemes
   Dimitrios Pantazis     : SARC Basis sets
   Taras Petrenko         : DFT Hessian,TD-DFT gradient, ASA, ECA, R-Raman, ABS, FL, XAS/XES, NRVS
   Peter Pinski           : DLPNO-MP2
   Christoph Reimann      : Effective Core Potentials
   Marius Retegan         : Local ZFS, SOC
   Christoph Riplinger    : Optimizer, TS searches, QM/MM, DLPNO-CCSD(T), (RO)-DLPNO pert. Triples
   Tobias Risthaus        : Range-separated hybrids, TD-DFT gradient, RPA, STAB
   Michael Roemelt        : Restricted open shell CIS
   Masaaki Saitow         : Open-shell DLPNO
   Barbara Sandhoefer     : DKH picture change effects
   Kantharuban Sivalingam : CASSCF convergence, NEVPT2, FIC-MRCI
   Georgi Stoychev        : AutoAux
   Boris Wezisla          : Elementary symmetry handling
   Frank Wennmohs         : Technical directorship


 We gratefully acknowledge several colleagues who have allowed us to
 interface, adapt or use parts of their codes:
   Stefan Grimme, W. Hujo, H. Kruse,             : VdW corrections, initial TS optimization,
                  C. Bannwarth                     DFT functionals, gCP, sTDA/sTD-DF
   Ed Valeev                                     : LibInt (2-el integral package), F12 methods
   Garnet Chan, S. Sharma, J. Yang, R. Olivares  : DMRG
   Ulf Ekstrom                                   : XCFun DFT Library
   Mihaly Kallay                                 : mrcc  (arbitrary order and MRCC methods)
   Jiri Pittner, Ondrej Demel                    : Mk-CCSD
   Frank Weinhold                                : gennbo (NPA and NBO analysis)
   Christopher J. Cramer and Donald G. Truhlar   : smd solvation model


 Your calculation uses the libint2 library for the computation of 2-el integrals
 For citations please refer to: http://libint.valeyev.net

 This ORCA versions uses:
   CBLAS   interface :  Fast vector & matrix operations
   LAPACKE interface :  Fast linear algebra routines
   SCALAPACK package :  Parallel linear algebra routines


Your calculation utilizes the atom-pairwise dispersion correction
with the zero-damping scheme (D30)
Cite in your paper:
S.Grimme, J.Antony, S.Ehrlich and H.Krieg, J.Chem.Phys., 132, (2010), 154104 
   

XCFun DFT library Copyright 2009-2010 Ulf Ekstrom and contributors.
See http://admol.org/xcfun for more information. This is free soft-
ware; see the source code for copying conditions. There is ABSOLUTELY
NO WARRANTY; not even for MERCHANTABILITY or FITNESS FOR A PARTICULAR
PURPOSE. For details see the documentation. Scientific users of this 
library should cite U. Ekstrom, L. Visscher, R. Bast, A. J. Thorvald-
sen and K. Ruud; J.Chem.Theor.Comp. 2010, DOI: 10.1021/ct100117s
XCFun Version 0.99 
Your calculation utilizes the basis: 6-31G(d)
   H-He, Li-Ne : W. J. Hehre, R. Ditchfield and J.A. Pople, J. Chem. Phys. 56, 2257 (1972).
                 Note: He and Ne are unpublished basis sets taken from the Gaussian program.
                 Note: Li and B from J. D. Dill and J. A. Pople, J. Chem. Phys. 62, 2921 (1975).
   Na - Ar     : M. M. Francl, W. J. Pietro, W. J. Hehre, J. S. Binkley, M. S. Gordon, 
                 D. J. DeFrees and J. A. Pople, J. Chem. Phys. 77, 3654 (1982).
   K - Zn      : V. A. Rassolov, J. A. Pople, M. A. Ratner, and T. L. Windus, J. Chem. Phys. 109, 1223 (1998).

================================================================================
                                        WARNINGS
                       Please study these warnings very carefully!
================================================================================

Warning: TCutStore was < 0. Adjusted to Thresh (uncritical)

INFO   : the flag for use of LIBINT has been found!

================================================================================
                                       INPUT FILE
================================================================================
NAME = initial28.inp
|  1> ! WB97X-D3 6-31G(d) VerySlowConv
|  2> ! KDIIS NOSOSCF
|  3> %base "Scan_28"
|  4> 
|  5> %scf
|  6> maxiter 999
|  7> end
|  8> 
|  9> * xyz 0 1
| 10> C         -2.594309649318    1.003558953579    0.309784468956
| 11> C          0.556587790401    1.546993471158   -0.309794943306
| 12> H         -2.730398360073    0.627970953751   -0.690799073230
| 13> H         -2.737918561507    2.050668968878    0.518808397243
| 14> H          0.700144456918    0.499871914578   -0.518801373209
| 15> H          0.692624323579    1.922565738056    0.690802523547
| 16> **                         ****END OF INPUT****
================================================================================

                       ****************************
                       * Single Point Calculation *
                       ****************************

---------------------------------
CARTESIAN COORDINATES (ANGSTROEM)
---------------------------------
  C     -2.594310    1.003559    0.309784
  C      0.556588    1.546993   -0.309795
  H     -2.730398    0.627971   -0.690799
  H     -2.737919    2.050669    0.518808
  H      0.700144    0.499872   -0.518801
  H      0.692624    1.922566    0.690803

----------------------------
CARTESIAN COORDINATES (A.U.)
----------------------------
  NO LB      ZA    FRAG     MASS         X           Y           Z
   0 C     6.0000    0    12.011   -4.902535    1.896452    0.585408
   1 C     6.0000    0    12.011    1.051798    2.923394   -0.585428
   2 H     1.0000    0     1.008   -5.159705    1.186693   -1.305421
   3 H     1.0000    0     1.008   -5.173916    3.875203    0.980406
   4 H     1.0000    0     1.008    1.323081    0.944621   -0.980393
   5 H     1.0000    0     1.008    1.308870    3.633123    1.305428

--------------------------------
INTERNAL COORDINATES (ANGSTROEM)
--------------------------------
 C      0   0   0     0.000000000000     0.00000000     0.00000000
 C      1   0   0     3.256893366173     0.00000000     0.00000000
 H      1   2   0     1.077382897443    90.21175128     0.00000000
 H      1   2   3     1.077382896837    90.21175225   239.85562581
 H      2   1   3     1.077383756373    90.20878460   300.14398252
 H      2   1   3     1.077383755537    90.20878609   180.00039199

---------------------------
INTERNAL COORDINATES (A.U.)
---------------------------
 C      0   0   0     0.000000000000     0.00000000     0.00000000
 C      1   0   0     6.154636509452     0.00000000     0.00000000
 H      1   2   0     2.035958617538    90.21175128     0.00000000
 H      1   2   3     2.035958616392    90.21175225   239.85562581
 H      2   1   3     2.035960240681    90.20878460   300.14398252
 H      2   1   3     2.035960239100    90.20878609   180.00039199

---------------------
BASIS SET INFORMATION
---------------------
There are 2 groups of distinct atoms

 Group   1 Type C   : 10s4p1d contracted to 3s2p1d pattern {631/31/1}
 Group   2 Type H   : 4s contracted to 2s pattern {31}

Atom   0C    basis set group =>   1
Atom   1C    basis set group =>   1
Atom   2H    basis set group =>   2
Atom   3H    basis set group =>   2
Atom   4H    basis set group =>   2
Atom   5H    basis set group =>   2
------------------------------------------------------------------------------
                           ORCA GTO INTEGRAL CALCULATION
------------------------------------------------------------------------------

                         BASIS SET STATISTICS AND STARTUP INFO

 # of primitive gaussian shells          ...   46
 # of primitive gaussian functions       ...   70
 # of contracted shells                  ...   20
 # of contracted basis functions         ...   36
 Highest angular momentum                ...    2
 Maximum contraction depth               ...    6
 Integral package used                   ... LIBINT
 Integral threshhold            Thresh   ...  1.000e-10
 Primitive cut-off              TCut     ...  1.000e-11


------------------------------ INTEGRAL EVALUATION ----------------------------


 * One electron integrals 
 Pre-screening matrix                    ... done
 Shell pair data                         ... done (   0.000 sec)

-------------------------------------------------------------------------------
                                 ORCA SCF
-------------------------------------------------------------------------------

------------
SCF SETTINGS
------------
Hamiltonian:
 Density Functional     Method          .... DFT(GTOs)
 Exchange Functional    Exchange        .... WB97X-D3
 Correlation Functional Correlation     .... WB97X-D3
 Gradients option       PostSCFGGA      .... off
 Hybrid DFT is turned on
   Fraction HF Exchange ScalHFX         ....  0.195728
   Scaling of DF-GGA-X  ScalDFX         ....  0.000000
   Scaling of DF-GGA-C  ScalDFC         ....  1.000000
   Scaling of DF-LDA-C  ScalLDAC        ....  1.000000
   Perturbative correction              ....  0.000000
 Long-range corrected/Screened/Range-Separated Hybrid DFT is turned on
   Amount of maximum screened exact exchange              ....  0.804272
   Range separation parameter mu (erf(mu*r12)/r12)        ....  0.250000


General Settings:
 Integral files         IntName         .... Scan_28
 Hartree-Fock type      HFTyp           .... RHF
 Total Charge           Charge          ....    0
 Multiplicity           Mult            ....    1
 Number of Electrons    NEL             ....   16
 Basis Dimension        Dim             ....   36
 Nuclear Repulsion      ENuc            ....     22.4806625167 Eh

Convergence Acceleration:
 DIIS                   CNVDIIS         .... on
   Start iteration      DIISMaxIt       ....     0
   Startup error        DIISStart       ....  0.200000
   # of expansion vecs  DIISMaxEq       ....     5
   Bias factor          DIISBfac        ....   1.050
   Max. coefficient     DIISMaxC        ....  10.000
 Newton-Raphson         CNVNR           .... off
 SOSCF                  CNVSOSCF        .... off
 Level Shifting         CNVShift        .... off
 Zerner damping         CNVZerner       .... off
 Static damping         CNVDamp         .... off
 Fernandez-Rico         CNVRico         .... off

SCF Procedure:
 Maximum # iterations   MaxIter         ....   999
 SCF integral mode      SCFMode         .... Direct
   Integral package                     .... LIBINT
 Reset frequeny         DirectResetFreq ....    20
 Integral Threshold     Thresh          ....  1.000e-10 Eh
 Primitive CutOff       TCut            ....  1.000e-11 Eh

Convergence Tolerance:
 Convergence Check Mode ConvCheckMode   .... All-Criteria
 Convergence forced     ConvForced      .... 0
 Energy Change          TolE            ....  1.000e-06 Eh
 Max Density Change     TolMaxP         ....  1.000e-05
 RMS Density Change     TolRMSP         ....  1.000e-06
 DIIS Error             TolErr          ....  1.000e-06


Diagonalization of the overlap matrix:
Smallest eigenvalue                        ... 3.311e-02
Time for diagonalization                   ...    0.001 sec
Threshold for overlap eigenvalues          ... 1.000e-08
Number of eigenvalues below threshold      ... 0
Time for construction of square roots      ...    0.005 sec
Total time needed                          ...    0.006 sec

-------------------
DFT GRID GENERATION
-------------------

General Integration Accuracy     IntAcc      ...  4.340
Radial Grid Type                 RadialGrid  ... Gauss-Chebyshev
Angular Grid (max. acc.)         AngularGrid ... Lebedev-110
Angular grid pruning method      GridPruning ... 3 (G Style)
Weight generation scheme         WeightScheme... Becke
Basis function cutoff            BFCut       ...    1.0000e-10
Integration weight cutoff        WCut        ...    1.0000e-14
Grids for H and He will be reduced by one unit

# of grid points (after initial pruning)     ...   6488 (   0.0 sec)
# of grid points (after weights+screening)   ...   6358 (   0.0 sec)
nearest neighbour list constructed           ...    0.0 sec
Grid point re-assignment to atoms done       ...    0.0 sec
Grid point division into batches done        ...    0.0 sec
Reduced shell lists constructed in    0.0 sec

Total number of grid points                  ...     6358
Total number of batches                      ...      102
Average number of points per batch           ...       62
Average number of grid points per atom       ...     1060
Average number of shells per batch           ...    16.13 (80.63%)
Average number of basis functions per batch  ...    29.12 (80.88%)
Average number of large shells per batch     ...    13.46 (83.44%)
Average number of large basis fcns per batch ...    23.96 (82.29%)
Maximum spatial batch extension              ...  20.16, 21.04, 23.53 au
Average spatial batch extension              ...   5.44,  5.06,  5.30 au

Time for grid setup =    0.044 sec

------------------------------
INITIAL GUESS: MODEL POTENTIAL
------------------------------
Loading Hartree-Fock densities                     ... done
Calculating cut-offs                               ... done
Setting up the integral package                    ... done
Initializing the effective Hamiltonian             ... done
Starting the Coulomb interaction                   ... done (   0.0 sec)
Reading the grid                                   ... done
Mapping shells                                     ... done
Starting the XC term evaluation                    ... done (   0.0 sec)
  promolecular density results
     # of electrons  =     15.994822297
     EX              =    -11.195415509
     EC              =     -0.450450873
     EX+EC           =    -11.645866382
Transforming the Hamiltonian                       ... done (   0.0 sec)
Diagonalizing the Hamiltonian                      ... done (   0.0 sec)
Back transforming the eigenvectors                 ... done (   0.0 sec)
Now organizing SCF variables                       ... done
                      ------------------
                      INITIAL GUESS DONE (   0.2 sec)
                      ------------------
--------------
SCF ITERATIONS
--------------
ITER       Energy         Delta-E        Max-DP      RMS-DP      [F,P]   Gradient Norm
               ***  Starting incremental Fock matrix formation  ***
                             ****Resetting KDIIS****
                             ****Turning on KDIIS(Cayley)****
  0    -78.1829500664   0.000000000000 0.01109944  0.00103612  0.0509743   0.047986323
  1    -78.1891768980  -0.006226831557 0.01143945  0.00127618  0.0438082   0.041390119
  2    -78.1956164290  -0.006439531002 0.01953512  0.00227181  0.0355733   0.033566671
  3    -78.2037987987  -0.008182369755 0.02933590  0.00359851  0.0213904   0.020193914
  4    -78.2085831536  -0.004784354854 0.00124051  0.00010362  0.0004973   0.000313670
  5    -78.2085854170  -0.000002263380 0.00061434  0.00005300  0.0001591   0.000095920
                          ***Energy convergence achieved***
  6    -78.2085862644  -0.000000847422 0.00054304  0.00008160  0.0001224   0.000070301
  7    -78.2085871774  -0.000000913045 0.00027253  0.00003686  0.0000389   0.000031470

            ***Energy convergence in two consecutive cycles with***
                    ***'reasonable' density convergence***
                       *** signaling convergence ***

                    *** KDIIS BlockDiag ( 0.000 sec) ***

               *****************************************************
               *                     SUCCESS                       *
               *           SCF CONVERGED AFTER   8 CYCLES          *
               *****************************************************

Setting up the final grid:

General Integration Accuracy     IntAcc      ...  4.670
Radial Grid Type                 RadialGrid  ... Gauss-Chebyshev
Angular Grid (max. acc.)         AngularGrid ... Lebedev-302
Angular grid pruning method      GridPruning ... 3 (G Style)
Weight generation scheme         WeightScheme... Becke
Basis function cutoff            BFCut       ...    1.0000e-10
Integration weight cutoff        WCut        ...    1.0000e-14
Grids for H and He will be reduced by one unit

# of grid points (after initial pruning)     ...  26000 (   0.0 sec)
# of grid points (after weights+screening)   ...  25442 (   0.0 sec)
nearest neighbour list constructed           ...    0.0 sec
Grid point re-assignment to atoms done       ...    0.0 sec
Grid point division into batches done        ...    0.1 sec
Reduced shell lists constructed in    0.2 sec

Total number of grid points                  ...    25442
Total number of batches                      ...      400
Average number of points per batch           ...       63
Average number of grid points per atom       ...     4240
Average number of shells per batch           ...    14.54 (72.69%)
Average number of basis functions per batch  ...    26.21 (72.80%)
Average number of large shells per batch     ...    11.94 (82.13%)
Average number of large basis fcns per batch ...    21.05 (80.30%)
Maximum spatial batch extension              ...  18.45, 17.61, 20.07 au
Average spatial batch extension              ...   3.31,  3.32,  3.30 au

Final grid set up in    0.2 sec
Final integration                            ... done (   0.2 sec)
Change in XC energy                          ...     0.000843196
Integrated number of electrons               ...    15.999979858
Previous integrated no of electrons          ...    16.000229974

----------------
TOTAL SCF ENERGY
----------------

Total Energy       :          -78.20774409 Eh           -2128.14091 eV

Components:
Nuclear Repulsion  :           22.48066252 Eh             611.72993 eV
Electronic Energy  :         -100.68840661 Eh           -2739.87084 eV
One Electron Energy:         -148.10138638 Eh           -4030.04361 eV
Two Electron Energy:           47.41297978 Eh            1290.17277 eV

Virial components:
Potential Energy   :         -156.12889535 Eh           -4248.48323 eV
Kinetic Energy     :           77.92115126 Eh            2120.34232 eV
Virial Ratio       :            2.00367799


DFT components:
N(Alpha)           :        7.999989928960 electrons
N(Beta)            :        7.999989928960 electrons
N(Total)           :       15.999979857921 electrons
E(XC)              :       -8.142619778800 Eh       

---------------
SCF CONVERGENCE
---------------

  Last Energy change         ...   -1.0740e-07  Tolerance :   1.0000e-06
  Last MAX-Density change    ...    8.9597e-05  Tolerance :   1.0000e-05
  Last RMS-Density change    ...    5.7759e-06  Tolerance :   1.0000e-06
  Last DIIS Error            ...    1.0876e-05  Tolerance :   1.0000e-06

             **** THE GBW FILE WAS UPDATED (Scan_28.gbw) ****
             **** DENSITY FILE WAS UPDATED (Scan_28.scfp.tmp) ****
             **** ENERGY FILE WAS UPDATED (Scan_28.en.tmp) ****
----------------
ORBITAL ENERGIES
----------------

  NO   OCC          E(Eh)            E(eV) 
   0   2.0000     -10.335841      -281.2525 
   1   2.0000     -10.335805      -281.2516 
   2   2.0000      -0.777041       -21.1444 
   3   2.0000      -0.769019       -20.9261 
   4   2.0000      -0.539718       -14.6865 
   5   2.0000      -0.534743       -14.5511 
   6   2.0000      -0.313640        -8.5346 
   7   2.0000      -0.311250        -8.4695 
   8   0.0000      -0.047403        -1.2899 
   9   0.0000       0.008634         0.2349 
  10   0.0000       0.203862         5.5474 
  11   0.0000       0.226959         6.1759 
  12   0.0000       0.277121         7.5409 
  13   0.0000       0.282806         7.6955 
  14   0.0000       0.598867        16.2960 
  15   0.0000       0.627583        17.0774 
  16   0.0000       0.634543        17.2668 
  17   0.0000       0.689687        18.7673 
  18   0.0000       0.690957        18.8019 
  19   0.0000       0.704552        19.1718 
  20   0.0000       0.749176        20.3861 
  21   0.0000       0.941380        25.6162 
  22   0.0000       1.018271        27.7086 
  23   0.0000       1.018980        27.7279 
  24   0.0000       1.025420        27.9031 
  25   0.0000       1.096594        29.8398 
  26   0.0000       1.744836        47.4794 
  27   0.0000       1.745237        47.4903 
  28   0.0000       1.790899        48.7328 
  29   0.0000       1.790971        48.7348 
  30   0.0000       1.795827        48.8669 
  31   0.0000       1.801714        49.0271 
  32   0.0000       2.180922        59.3459 
  33   0.0000       2.185071        59.4588 
  34   0.0000       2.295190        62.4553 
  35   0.0000       2.333864        63.5077 

                    ********************************
                    * MULLIKEN POPULATION ANALYSIS *
                    ********************************

-----------------------
MULLIKEN ATOMIC CHARGES
-----------------------
   0 C :   -0.357739
   1 C :   -0.357747
   2 H :    0.178874
   3 H :    0.178868
   4 H :    0.178868
   5 H :    0.178874
Sum of atomic charges:   -0.0000000

--------------------------------
MULLIKEN REDUCED ORBITAL CHARGES
--------------------------------
  0 C s       :     3.675538  s :     3.675538
      pz      :     1.283330  p :     2.659862
      px      :     0.171431
      py      :     1.205101
      dz2     :     0.011760  d :     0.022339
      dxz     :     0.001119
      dyz     :     0.001291
      dx2y2   :     0.006964
      dxy     :     0.001206
  1 C s       :     3.675543  s :     3.675543
      pz      :     1.283391  p :     2.659865
      px      :     0.171327
      py      :     1.205146
      dz2     :     0.011761  d :     0.022339
      dxz     :     0.001118
      dyz     :     0.001291
      dx2y2   :     0.006964
      dxy     :     0.001205
  2 H s       :     0.821126  s :     0.821126
  3 H s       :     0.821132  s :     0.821132
  4 H s       :     0.821132  s :     0.821132
  5 H s       :     0.821126  s :     0.821126


                     *******************************
                     * LOEWDIN POPULATION ANALYSIS *
                     *******************************

----------------------
LOEWDIN ATOMIC CHARGES
----------------------
   0 C :   -0.258524
   1 C :   -0.258534
   2 H :    0.129184
   3 H :    0.129345
   4 H :    0.129345
   5 H :    0.129184

-------------------------------
LOEWDIN REDUCED ORBITAL CHARGES
-------------------------------
  0 C s       :     3.417351  s :     3.417351
      pz      :     1.351012  p :     2.809300
      px      :     0.176606
      py      :     1.281682
      dz2     :     0.016718  d :     0.031873
      dxz     :     0.001338
      dyz     :     0.002630
      dx2y2   :     0.009677
      dxy     :     0.001508
  1 C s       :     3.417357  s :     3.417357
      pz      :     1.351075  p :     2.809304
      px      :     0.176500
      py      :     1.281729
      dz2     :     0.016720  d :     0.031873
      dxz     :     0.001338
      dyz     :     0.002630
      dx2y2   :     0.009678
      dxy     :     0.001507
  2 H s       :     0.870816  s :     0.870816
  3 H s       :     0.870655  s :     0.870655
  4 H s       :     0.870655  s :     0.870655
  5 H s       :     0.870816  s :     0.870816


                      *****************************
                      * MAYER POPULATION ANALYSIS *
                      *****************************

  NA   - Mulliken gross atomic population
  ZA   - Total nuclear charge
  QA   - Mulliken gross atomic charge
  VA   - Mayer's total valence
  BVA  - Mayer's bonded valence
  FA   - Mayer's free valence

  ATOM       NA         ZA         QA         VA         BVA        FA
  0 C      6.3577     6.0000    -0.3577     1.8903     1.8903    -0.0000
  1 C      6.3577     6.0000    -0.3577     1.8903     1.8903     0.0000
  2 H      0.8211     1.0000     0.1789     0.9239     0.9239    -0.0000
  3 H      0.8211     1.0000     0.1789     0.9244     0.9244    -0.0000
  4 H      0.8211     1.0000     0.1789     0.9244     0.9244     0.0000
  5 H      0.8211     1.0000     0.1789     0.9239     0.9239     0.0000

  Mayer bond orders larger than 0.1
B(  0-C ,  2-H ) :   0.9222 B(  0-C ,  3-H ) :   0.9228 B(  1-C ,  4-H ) :   0.9228 
B(  1-C ,  5-H ) :   0.9222 

-------
TIMINGS
-------

Total SCF time: 0 days 0 hours 0 min 3 sec 

Total time                  ....       3.092 sec
Sum of individual times     ....       2.972 sec  ( 96.1%)

Fock matrix formation       ....       2.565 sec  ( 83.0%)
  XC integration            ....       0.838 sec  ( 32.7% of F)
    Basis function eval.    ....       0.309 sec  ( 36.8% of XC)
    Density eval.           ....       0.039 sec  (  4.7% of XC)
    XC-Functional eval.     ....       0.238 sec  ( 28.4% of XC)
    XC-Potential eval.      ....       0.035 sec  (  4.2% of XC)
Diagonalization             ....       0.005 sec  (  0.2%)
Density matrix formation    ....       0.000 sec  (  0.0%)
Population analysis         ....       0.010 sec  (  0.3%)
Initial guess               ....       0.130 sec  (  4.2%)
Orbital Transformation      ....       0.000 sec  (  0.0%)
Orbital Orthonormalization  ....       0.000 sec  (  0.0%)
DIIS solution               ....       0.000 sec  (  0.0%)
Grid generation             ....       0.262 sec  (  8.5%)


-------------------------------------------------------------------------------
                          DFT DISPERSION CORRECTION                            
                                                                               
                              DFTD3 V3.1  Rev 1                                
                              USING zero damping                               
-------------------------------------------------------------------------------
The omegaB97X-D3 functional is recognized. Fit by Chai et al.
Active option DFTDOPT                   ...         3   

molecular C6(AA) [au] = 320.282160 


            DFT-D V3
 parameters
 s6 scaling factor         :     1.0000 
 rs6 scaling factor        :     1.2810 
 s8 scaling factor         :     1.0000 
 rs8 scaling factor        :     1.0940 
 Damping factor alpha6     :    14.0000 
 Damping factor alpha8     :    16.0000 
 ad hoc parameters k1-k3   :    16.0000     1.3333    -4.0000 

 Edisp/kcal,au: -0.394527697780  -0.000628719839 
 E6   /kcal   :  -0.190031965 
 E8   /kcal   :  -0.204495733 
 % E8         :  51.833048535 

-------------------------   ----------------
Dispersion correction           -0.000628720
-------------------------   ----------------


-------------------------   --------------------
FINAL SINGLE POINT ENERGY       -78.208372808646
-------------------------   --------------------


                            ***************************************
                            *     ORCA property calculations      *
                            ***************************************

                                    ---------------------
                                    Active property flags
                                    ---------------------
   (+) Dipole Moment


------------------------------------------------------------------------------
                       ORCA ELECTRIC PROPERTIES CALCULATION
------------------------------------------------------------------------------

Dipole Moment Calculation                       ... on
Quadrupole Moment Calculation                   ... off
Polarizability Calculation                      ... off
GBWName                                         ... Scan_28.gbw
Electron density file                           ... Scan_28.scfp.tmp

-------------
DIPOLE MOMENT
-------------
                                X             Y             Z
Electronic contribution:     -0.00002      -0.00000       0.00001
Nuclear contribution   :     -0.00008      -0.00002       0.00003
                        -----------------------------------------
Total Dipole Moment    :     -0.00011      -0.00003       0.00003
                        -----------------------------------------
Magnitude (a.u.)       :      0.00011
Magnitude (Debye)      :      0.00029


Timings for individual modules:

Sum of individual times         ...        3.421 sec (=   0.057 min)
GTO integral calculation        ...        0.296 sec (=   0.005 min)   8.6 %
SCF iterations                  ...        3.125 sec (=   0.052 min)  91.4 %
                             ****ORCA TERMINATED NORMALLY****
TOTAL RUN TIME: 0 days 0 hours 0 minutes 3 seconds 743 msec
