
                                 *****************
                                 * O   R   C   A *
                                 *****************

           --- An Ab Initio, DFT and Semiempirical electronic structure package ---

                  #######################################################
                  #                        -***-                        #
                  #  Department of molecular theory and spectroscopy    #
                  #              Directorship: Frank Neese              #
                  # Max Planck Institute for Chemical Energy Conversion #
                  #                  D-45470 Muelheim/Ruhr              #
                  #                       Germany                       #
                  #                                                     #
                  #                  All rights reserved                #
                  #                        -***-                        #
                  #######################################################


                         Program Version 4.0.0.2 - RELEASE -


 With contributions from (in alphabetic order):
   Daniel Aravena         : Magnetic Properties
   Michael Atanasov       : Ab Initio Ligand Field Theory
   Ute Becker             : Parallelization
   Martin Brehm           : Molecular dynamics
   Dmytro Bykov           : SCF Hessian
   Vijay G. Chilkuri      : MRCI spin determinant printing
   Dipayan Datta          : RHF DLPNO-CCSD density
   Achintya Kumar Dutta   : EOM-CC, STEOM-CC
   Dmitry Ganyushin       : Spin-Orbit,Spin-Spin,Magnetic field MRCI
   Yang Guo               : DLPNO-NEVPT2, CIM, IAO-localization
   Andreas Hansen         : Spin unrestricted coupled pair/coupled cluster methods
   Lee Huntington         : MR-EOM, pCC
   Robert Izsak           : Overlap fitted RIJCOSX, COSX-SCS-MP3, EOM
   Christian Kollmar      : KDIIS, OOCD, Brueckner-CCSD(T), CCSD density
   Simone Kossmann        : Meta GGA functionals, TD-DFT gradient, OOMP2, MP2 Hessian
   Martin Krupicka        : AUTO-CI
   Dagmar Lenk            : GEPOL surface
   Dimitrios Liakos       : Extrapolation schemes; parallel MDCI
   Dimitrios Manganas     : ROCIS; embedding schemes
   Dimitrios Pantazis     : SARC Basis sets
   Taras Petrenko         : DFT Hessian,TD-DFT gradient, ASA, ECA, R-Raman, ABS, FL, XAS/XES, NRVS
   Peter Pinski           : DLPNO-MP2
   Christoph Reimann      : Effective Core Potentials
   Marius Retegan         : Local ZFS, SOC
   Christoph Riplinger    : Optimizer, TS searches, QM/MM, DLPNO-CCSD(T), (RO)-DLPNO pert. Triples
   Tobias Risthaus        : Range-separated hybrids, TD-DFT gradient, RPA, STAB
   Michael Roemelt        : Restricted open shell CIS
   Masaaki Saitow         : Open-shell DLPNO
   Barbara Sandhoefer     : DKH picture change effects
   Kantharuban Sivalingam : CASSCF convergence, NEVPT2, FIC-MRCI
   Georgi Stoychev        : AutoAux
   Boris Wezisla          : Elementary symmetry handling
   Frank Wennmohs         : Technical directorship


 We gratefully acknowledge several colleagues who have allowed us to
 interface, adapt or use parts of their codes:
   Stefan Grimme, W. Hujo, H. Kruse,             : VdW corrections, initial TS optimization,
                  C. Bannwarth                     DFT functionals, gCP, sTDA/sTD-DF
   Ed Valeev                                     : LibInt (2-el integral package), F12 methods
   Garnet Chan, S. Sharma, J. Yang, R. Olivares  : DMRG
   Ulf Ekstrom                                   : XCFun DFT Library
   Mihaly Kallay                                 : mrcc  (arbitrary order and MRCC methods)
   Jiri Pittner, Ondrej Demel                    : Mk-CCSD
   Frank Weinhold                                : gennbo (NPA and NBO analysis)
   Christopher J. Cramer and Donald G. Truhlar   : smd solvation model


 Your calculation uses the libint2 library for the computation of 2-el integrals
 For citations please refer to: http://libint.valeyev.net

 This ORCA versions uses:
   CBLAS   interface :  Fast vector & matrix operations
   LAPACKE interface :  Fast linear algebra routines
   SCALAPACK package :  Parallel linear algebra routines


Your calculation utilizes the atom-pairwise dispersion correction
with the zero-damping scheme (D30)
Cite in your paper:
S.Grimme, J.Antony, S.Ehrlich and H.Krieg, J.Chem.Phys., 132, (2010), 154104 
   

XCFun DFT library Copyright 2009-2010 Ulf Ekstrom and contributors.
See http://admol.org/xcfun for more information. This is free soft-
ware; see the source code for copying conditions. There is ABSOLUTELY
NO WARRANTY; not even for MERCHANTABILITY or FITNESS FOR A PARTICULAR
PURPOSE. For details see the documentation. Scientific users of this 
library should cite U. Ekstrom, L. Visscher, R. Bast, A. J. Thorvald-
sen and K. Ruud; J.Chem.Theor.Comp. 2010, DOI: 10.1021/ct100117s
XCFun Version 0.99 
Your calculation utilizes the basis: 6-31G(d)
   H-He, Li-Ne : W. J. Hehre, R. Ditchfield and J.A. Pople, J. Chem. Phys. 56, 2257 (1972).
                 Note: He and Ne are unpublished basis sets taken from the Gaussian program.
                 Note: Li and B from J. D. Dill and J. A. Pople, J. Chem. Phys. 62, 2921 (1975).
   Na - Ar     : M. M. Francl, W. J. Pietro, W. J. Hehre, J. S. Binkley, M. S. Gordon, 
                 D. J. DeFrees and J. A. Pople, J. Chem. Phys. 77, 3654 (1982).
   K - Zn      : V. A. Rassolov, J. A. Pople, M. A. Ratner, and T. L. Windus, J. Chem. Phys. 109, 1223 (1998).

================================================================================
                                        WARNINGS
                       Please study these warnings very carefully!
================================================================================

Warning: TCutStore was < 0. Adjusted to Thresh (uncritical)

INFO   : the flag for use of LIBINT has been found!

================================================================================
                                       INPUT FILE
================================================================================
NAME = initial29.inp
|  1> ! WB97X-D3 6-31G(d) VerySlowConv
|  2> ! KDIIS NOSOSCF
|  3> %base "Scan_29"
|  4> 
|  5> %scf
|  6> maxiter 999
|  7> end
|  8> 
|  9> * xyz 0 1
| 10> C         -2.644892109525    0.995682055768    0.318734525756
| 11> C          0.607165164524    1.554862916070   -0.318736269583
| 12> H         -2.732775400405    0.627879323312   -0.690284091367
| 13> H         -2.740293439771    2.050160845430    0.518969283978
| 14> H          0.702521857566    0.500380271810   -0.518969578918
| 15> H          0.695003927611    1.922664587610    0.690286130133
| 16> **                         ****END OF INPUT****
================================================================================

                       ****************************
                       * Single Point Calculation *
                       ****************************

---------------------------------
CARTESIAN COORDINATES (ANGSTROEM)
---------------------------------
  C     -2.644892    0.995682    0.318735
  C      0.607165    1.554863   -0.318736
  H     -2.732775    0.627879   -0.690284
  H     -2.740293    2.050161    0.518969
  H      0.702522    0.500380   -0.518970
  H      0.695004    1.922665    0.690286

----------------------------
CARTESIAN COORDINATES (A.U.)
----------------------------
  NO LB      ZA    FRAG     MASS         X           Y           Z
   0 C     6.0000    0    12.011   -4.998122    1.881566    0.602321
   1 C     6.0000    0    12.011    1.147376    2.938265   -0.602324
   2 H     1.0000    0     1.008   -5.164197    1.186520   -1.304448
   3 H     1.0000    0     1.008   -5.178404    3.874243    0.980710
   4 H     1.0000    0     1.008    1.327574    0.945582   -0.980710
   5 H     1.0000    0     1.008    1.313367    3.633310    1.304452

--------------------------------
INTERNAL COORDINATES (ANGSTROEM)
--------------------------------
 C      0   0   0     0.000000000000     0.00000000     0.00000000
 C      1   0   0     3.360792877155     0.00000000     0.00000000
 H      1   2   0     1.077553197071    87.59841208     0.00000000
 H      1   2   3     1.077553195930    87.59841525   239.77174276
 H      2   1   3     1.077552747721    87.59606681   300.22866439
 H      2   1   3     1.077552746281    87.59607045   179.99959280

---------------------------
INTERNAL COORDINATES (A.U.)
---------------------------
 C      0   0   0     0.000000000000     0.00000000     0.00000000
 C      1   0   0     6.350978130655     0.00000000     0.00000000
 H      1   2   0     2.036280437196    87.59841208     0.00000000
 H      1   2   3     2.036280435040    87.59841525   239.77174276
 H      2   1   3     2.036279588047    87.59606681   300.22866439
 H      2   1   3     2.036279585325    87.59607045   179.99959280

---------------------
BASIS SET INFORMATION
---------------------
There are 2 groups of distinct atoms

 Group   1 Type C   : 10s4p1d contracted to 3s2p1d pattern {631/31/1}
 Group   2 Type H   : 4s contracted to 2s pattern {31}

Atom   0C    basis set group =>   1
Atom   1C    basis set group =>   1
Atom   2H    basis set group =>   2
Atom   3H    basis set group =>   2
Atom   4H    basis set group =>   2
Atom   5H    basis set group =>   2
------------------------------------------------------------------------------
                           ORCA GTO INTEGRAL CALCULATION
------------------------------------------------------------------------------

                         BASIS SET STATISTICS AND STARTUP INFO

 # of primitive gaussian shells          ...   46
 # of primitive gaussian functions       ...   70
 # of contracted shells                  ...   20
 # of contracted basis functions         ...   36
 Highest angular momentum                ...    2
 Maximum contraction depth               ...    6
 Integral package used                   ... LIBINT
 Integral threshhold            Thresh   ...  1.000e-10
 Primitive cut-off              TCut     ...  1.000e-11


------------------------------ INTEGRAL EVALUATION ----------------------------


 * One electron integrals 
 Pre-screening matrix                    ... done
 Shell pair data                         ... done (   0.000 sec)

-------------------------------------------------------------------------------
                                 ORCA SCF
-------------------------------------------------------------------------------

------------
SCF SETTINGS
------------
Hamiltonian:
 Density Functional     Method          .... DFT(GTOs)
 Exchange Functional    Exchange        .... WB97X-D3
 Correlation Functional Correlation     .... WB97X-D3
 Gradients option       PostSCFGGA      .... off
 Hybrid DFT is turned on
   Fraction HF Exchange ScalHFX         ....  0.195728
   Scaling of DF-GGA-X  ScalDFX         ....  0.000000
   Scaling of DF-GGA-C  ScalDFC         ....  1.000000
   Scaling of DF-LDA-C  ScalLDAC        ....  1.000000
   Perturbative correction              ....  0.000000
 Long-range corrected/Screened/Range-Separated Hybrid DFT is turned on
   Amount of maximum screened exact exchange              ....  0.804272
   Range separation parameter mu (erf(mu*r12)/r12)        ....  0.250000


General Settings:
 Integral files         IntName         .... Scan_29
 Hartree-Fock type      HFTyp           .... RHF
 Total Charge           Charge          ....    0
 Multiplicity           Mult            ....    1
 Number of Electrons    NEL             ....   16
 Basis Dimension        Dim             ....   36
 Nuclear Repulsion      ENuc            ....     22.2424919197 Eh

Convergence Acceleration:
 DIIS                   CNVDIIS         .... on
   Start iteration      DIISMaxIt       ....     0
   Startup error        DIISStart       ....  0.200000
   # of expansion vecs  DIISMaxEq       ....     5
   Bias factor          DIISBfac        ....   1.050
   Max. coefficient     DIISMaxC        ....  10.000
 Newton-Raphson         CNVNR           .... off
 SOSCF                  CNVSOSCF        .... off
 Level Shifting         CNVShift        .... off
 Zerner damping         CNVZerner       .... off
 Static damping         CNVDamp         .... off
 Fernandez-Rico         CNVRico         .... off

SCF Procedure:
 Maximum # iterations   MaxIter         ....   999
 SCF integral mode      SCFMode         .... Direct
   Integral package                     .... LIBINT
 Reset frequeny         DirectResetFreq ....    20
 Integral Threshold     Thresh          ....  1.000e-10 Eh
 Primitive CutOff       TCut            ....  1.000e-11 Eh

Convergence Tolerance:
 Convergence Check Mode ConvCheckMode   .... All-Criteria
 Convergence forced     ConvForced      .... 0
 Energy Change          TolE            ....  1.000e-06 Eh
 Max Density Change     TolMaxP         ....  1.000e-05
 RMS Density Change     TolRMSP         ....  1.000e-06
 DIIS Error             TolErr          ....  1.000e-06


Diagonalization of the overlap matrix:
Smallest eigenvalue                        ... 3.343e-02
Time for diagonalization                   ...    0.001 sec
Threshold for overlap eigenvalues          ... 1.000e-08
Number of eigenvalues below threshold      ... 0
Time for construction of square roots      ...    0.008 sec
Total time needed                          ...    0.008 sec

-------------------
DFT GRID GENERATION
-------------------

General Integration Accuracy     IntAcc      ...  4.340
Radial Grid Type                 RadialGrid  ... Gauss-Chebyshev
Angular Grid (max. acc.)         AngularGrid ... Lebedev-110
Angular grid pruning method      GridPruning ... 3 (G Style)
Weight generation scheme         WeightScheme... Becke
Basis function cutoff            BFCut       ...    1.0000e-10
Integration weight cutoff        WCut        ...    1.0000e-14
Grids for H and He will be reduced by one unit

# of grid points (after initial pruning)     ...   6488 (   0.0 sec)
# of grid points (after weights+screening)   ...   6368 (   0.0 sec)
nearest neighbour list constructed           ...    0.0 sec
Grid point re-assignment to atoms done       ...    0.0 sec
Grid point division into batches done        ...    0.0 sec
Reduced shell lists constructed in    0.1 sec

Total number of grid points                  ...     6368
Total number of batches                      ...      104
Average number of points per batch           ...       61
Average number of grid points per atom       ...     1061
Average number of shells per batch           ...    16.11 (80.57%)
Average number of basis functions per batch  ...    29.07 (80.74%)
Average number of large shells per batch     ...    13.31 (82.62%)
Average number of large basis fcns per batch ...    23.56 (81.06%)
Maximum spatial batch extension              ...  20.25, 20.92, 23.57 au
Average spatial batch extension              ...   5.28,  4.81,  5.23 au

Time for grid setup =    0.194 sec

------------------------------
INITIAL GUESS: MODEL POTENTIAL
------------------------------
Loading Hartree-Fock densities                     ... done
Calculating cut-offs                               ... done
Setting up the integral package                    ... done
Initializing the effective Hamiltonian             ... done
Starting the Coulomb interaction                   ... done (   0.0 sec)
Reading the grid                                   ... done
Mapping shells                                     ... done
Starting the XC term evaluation                    ... done (   0.1 sec)
  promolecular density results
     # of electrons  =     15.996273600
     EX              =    -11.195181709
     EC              =     -0.450177967
     EX+EC           =    -11.645359676
Transforming the Hamiltonian                       ... done (   0.1 sec)
Diagonalizing the Hamiltonian                      ... done (   0.0 sec)
Back transforming the eigenvectors                 ... done (   0.0 sec)
Now organizing SCF variables                       ... done
                      ------------------
                      INITIAL GUESS DONE (   0.7 sec)
                      ------------------
--------------
SCF ITERATIONS
--------------
ITER       Energy         Delta-E        Max-DP      RMS-DP      [F,P]   Gradient Norm
               ***  Starting incremental Fock matrix formation  ***
                             ****Resetting KDIIS****
                             ****Turning on KDIIS(Cayley)****
  0    -78.1824054664   0.000000000000 0.01182719  0.00104371  0.0518409   0.048237519
  1    -78.1885284198  -0.006122953398 0.01256841  0.00125882  0.0445590   0.041593592
  2    -78.1947433050  -0.006214885177 0.02112173  0.00213991  0.0360740   0.033635405
  3    -78.2023194754  -0.007576170452 0.03216619  0.00331380  0.0217548   0.020301836
  4    -78.2067046504  -0.004385174994 0.00114310  0.00008769  0.0002371   0.000212205
  5    -78.2067057082  -0.000001057809 0.00031722  0.00002288  0.0000787   0.000050881
                          ***Energy convergence achieved***
  6    -78.2067058641  -0.000000155912 0.00021249  0.00002791  0.0000609   0.000031725
  7    -78.2067060402  -0.000000176106 0.00022782  0.00002868  0.0000354   0.000018915

            ***Energy convergence in two consecutive cycles with***
                    ***'reasonable' density convergence***
                       *** signaling convergence ***

                    *** KDIIS BlockDiag ( 0.000 sec) ***

               *****************************************************
               *                     SUCCESS                       *
               *           SCF CONVERGED AFTER   8 CYCLES          *
               *****************************************************

Setting up the final grid:

General Integration Accuracy     IntAcc      ...  4.670
Radial Grid Type                 RadialGrid  ... Gauss-Chebyshev
Angular Grid (max. acc.)         AngularGrid ... Lebedev-302
Angular grid pruning method      GridPruning ... 3 (G Style)
Weight generation scheme         WeightScheme... Becke
Basis function cutoff            BFCut       ...    1.0000e-10
Integration weight cutoff        WCut        ...    1.0000e-14
Grids for H and He will be reduced by one unit

# of grid points (after initial pruning)     ...  26000 (   0.0 sec)
# of grid points (after weights+screening)   ...  25432 (   0.0 sec)
nearest neighbour list constructed           ...    0.0 sec
Grid point re-assignment to atoms done       ...    0.0 sec
Grid point division into batches done        ...    0.2 sec
Reduced shell lists constructed in    0.4 sec

Total number of grid points                  ...    25432
Total number of batches                      ...      402
Average number of points per batch           ...       63
Average number of grid points per atom       ...     4239
Average number of shells per batch           ...    14.44 (72.20%)
Average number of basis functions per batch  ...    25.86 (71.84%)
Average number of large shells per batch     ...    11.89 (82.32%)
Average number of large basis fcns per batch ...    20.90 (80.82%)
Maximum spatial batch extension              ...  18.63, 19.58, 20.10 au
Average spatial batch extension              ...   3.34,  3.28,  3.31 au

Final grid set up in    0.5 sec
Final integration                            ... done (   0.4 sec)
Change in XC energy                          ...     0.001025711
Integrated number of electrons               ...    15.999982952
Previous integrated no of electrons          ...    16.001181145

----------------
TOTAL SCF ENERGY
----------------

Total Energy       :          -78.20568040 Eh           -2128.08475 eV

Components:
Nuclear Repulsion  :           22.24249192 Eh             605.24898 eV
Electronic Energy  :         -100.44817232 Eh           -2733.33373 eV
One Electron Energy:         -147.60072367 Eh           -4016.41988 eV
Two Electron Energy:           47.15255135 Eh            1283.08615 eV

Virial components:
Potential Energy   :         -156.14385972 Eh           -4248.89043 eV
Kinetic Energy     :           77.93817932 Eh            2120.80568 eV
Virial Ratio       :            2.00343222


DFT components:
N(Alpha)           :        7.999991475926 electrons
N(Beta)            :        7.999991475926 electrons
N(Total)           :       15.999982951853 electrons
E(XC)              :       -8.145133671547 Eh       

---------------
SCF CONVERGENCE
---------------

  Last Energy change         ...   -7.3638e-08  Tolerance :   1.0000e-06
  Last MAX-Density change    ...    4.6927e-05  Tolerance :   1.0000e-05
  Last RMS-Density change    ...    3.2979e-06  Tolerance :   1.0000e-06
  Last DIIS Error            ...    5.7302e-06  Tolerance :   1.0000e-06

             **** THE GBW FILE WAS UPDATED (Scan_29.gbw) ****
             **** DENSITY FILE WAS UPDATED (Scan_29.scfp.tmp) ****
             **** ENERGY FILE WAS UPDATED (Scan_29.en.tmp) ****
----------------
ORBITAL ENERGIES
----------------

  NO   OCC          E(Eh)            E(eV) 
   0   2.0000     -10.336212      -281.2626 
   1   2.0000     -10.336179      -281.2617 
   2   2.0000      -0.778471       -21.1833 
   3   2.0000      -0.771491       -20.9933 
   4   2.0000      -0.541137       -14.7251 
   5   2.0000      -0.536623       -14.6023 
   6   2.0000      -0.315692        -8.5904 
   7   2.0000      -0.310428        -8.4472 
   8   0.0000      -0.046154        -1.2559 
   9   0.0000       0.003561         0.0969 
  10   0.0000       0.202005         5.4968 
  11   0.0000       0.224891         6.1196 
  12   0.0000       0.276809         7.5324 
  13   0.0000       0.279463         7.6046 
  14   0.0000       0.590682        16.0733 
  15   0.0000       0.633114        17.2279 
  16   0.0000       0.637484        17.3468 
  17   0.0000       0.681334        18.5400 
  18   0.0000       0.685357        18.6495 
  19   0.0000       0.708957        19.2917 
  20   0.0000       0.750944        20.4342 
  21   0.0000       0.925079        25.1727 
  22   0.0000       1.016983        27.6735 
  23   0.0000       1.019183        27.7334 
  24   0.0000       1.021685        27.8014 
  25   0.0000       1.081477        29.4285 
  26   0.0000       1.743582        47.4453 
  27   0.0000       1.743815        47.4516 
  28   0.0000       1.789511        48.6951 
  29   0.0000       1.789576        48.6968 
  30   0.0000       1.794208        48.8229 
  31   0.0000       1.798173        48.9308 
  32   0.0000       2.179374        59.3038 
  33   0.0000       2.183486        59.4157 
  34   0.0000       2.296745        62.4976 
  35   0.0000       2.329742        63.3955 

                    ********************************
                    * MULLIKEN POPULATION ANALYSIS *
                    ********************************

-----------------------
MULLIKEN ATOMIC CHARGES
-----------------------
   0 C :   -0.354537
   1 C :   -0.354540
   2 H :    0.177275
   3 H :    0.177264
   4 H :    0.177264
   5 H :    0.177275
Sum of atomic charges:    0.0000000

--------------------------------
MULLIKEN REDUCED ORBITAL CHARGES
--------------------------------
  0 C s       :     3.679147  s :     3.679147
      pz      :     1.336131  p :     2.652919
      px      :     0.073423
      py      :     1.243365
      dz2     :     0.012578  d :     0.022471
      dxz     :     0.000481
      dyz     :     0.001226
      dx2y2   :     0.007658
      dxy     :     0.000528
  1 C s       :     3.679144  s :     3.679144
      pz      :     1.336166  p :     2.652925
      px      :     0.073368
      py      :     1.243391
      dz2     :     0.012578  d :     0.022471
      dxz     :     0.000480
      dyz     :     0.001226
      dx2y2   :     0.007659
      dxy     :     0.000528
  2 H s       :     0.822725  s :     0.822725
  3 H s       :     0.822736  s :     0.822736
  4 H s       :     0.822736  s :     0.822736
  5 H s       :     0.822725  s :     0.822725


                     *******************************
                     * LOEWDIN POPULATION ANALYSIS *
                     *******************************

----------------------
LOEWDIN ATOMIC CHARGES
----------------------
   0 C :   -0.256792
   1 C :   -0.256796
   2 H :    0.128394
   3 H :    0.128400
   4 H :    0.128400
   5 H :    0.128394

-------------------------------
LOEWDIN REDUCED ORBITAL CHARGES
-------------------------------
  0 C s       :     3.420979  s :     3.420979
      pz      :     1.405996  p :     2.803783
      px      :     0.075910
      py      :     1.321877
      dz2     :     0.017775  d :     0.032030
      dxz     :     0.000575
      dyz     :     0.002531
      dx2y2   :     0.010486
      dxy     :     0.000663
  1 C s       :     3.420977  s :     3.420977
      pz      :     1.406032  p :     2.803789
      px      :     0.075854
      py      :     1.321904
      dz2     :     0.017776  d :     0.032030
      dxz     :     0.000575
      dyz     :     0.002531
      dx2y2   :     0.010486
      dxy     :     0.000663
  2 H s       :     0.871606  s :     0.871606
  3 H s       :     0.871600  s :     0.871600
  4 H s       :     0.871600  s :     0.871600
  5 H s       :     0.871606  s :     0.871606


                      *****************************
                      * MAYER POPULATION ANALYSIS *
                      *****************************

  NA   - Mulliken gross atomic population
  ZA   - Total nuclear charge
  QA   - Mulliken gross atomic charge
  VA   - Mayer's total valence
  BVA  - Mayer's bonded valence
  FA   - Mayer's free valence

  ATOM       NA         ZA         QA         VA         BVA        FA
  0 C      6.3545     6.0000    -0.3545     1.8601     1.8601    -0.0000
  1 C      6.3545     6.0000    -0.3545     1.8601     1.8601     0.0000
  2 H      0.8227     1.0000     0.1773     0.9238     0.9238     0.0000
  3 H      0.8227     1.0000     0.1773     0.9243     0.9243     0.0000
  4 H      0.8227     1.0000     0.1773     0.9243     0.9243    -0.0000
  5 H      0.8227     1.0000     0.1773     0.9238     0.9238    -0.0000

  Mayer bond orders larger than 0.1
B(  0-C ,  2-H ) :   0.9221 B(  0-C ,  3-H ) :   0.9226 B(  1-C ,  4-H ) :   0.9226 
B(  1-C ,  5-H ) :   0.9221 

-------
TIMINGS
-------

Total SCF time: 0 days 0 hours 0 min 11 sec 

Total time                  ....      11.914 sec
Sum of individual times     ....      11.310 sec  ( 94.9%)

Fock matrix formation       ....       9.862 sec  ( 82.8%)
  XC integration            ....       2.674 sec  ( 27.1% of F)
    Basis function eval.    ....       0.753 sec  ( 28.2% of XC)
    Density eval.           ....       0.092 sec  (  3.5% of XC)
    XC-Functional eval.     ....       0.770 sec  ( 28.8% of XC)
    XC-Potential eval.      ....       0.075 sec  (  2.8% of XC)
Diagonalization             ....       0.180 sec  (  1.5%)
Density matrix formation    ....       0.000 sec  (  0.0%)
Population analysis         ....       0.086 sec  (  0.7%)
Initial guess               ....       0.512 sec  (  4.3%)
Orbital Transformation      ....       0.000 sec  (  0.0%)
Orbital Orthonormalization  ....       0.000 sec  (  0.0%)
DIIS solution               ....       0.000 sec  (  0.0%)
Grid generation             ....       0.670 sec  (  5.6%)


-------------------------------------------------------------------------------
                          DFT DISPERSION CORRECTION                            
                                                                               
                              DFTD3 V3.1  Rev 1                                
                              USING zero damping                               
-------------------------------------------------------------------------------
The omegaB97X-D3 functional is recognized. Fit by Chai et al.
Active option DFTDOPT                   ...         3   

molecular C6(AA) [au] = 320.291354 


            DFT-D V3
 parameters
 s6 scaling factor         :     1.0000 
 rs6 scaling factor        :     1.2810 
 s8 scaling factor         :     1.0000 
 rs8 scaling factor        :     1.0940 
 Damping factor alpha6     :    14.0000 
 Damping factor alpha8     :    16.0000 
 ad hoc parameters k1-k3   :    16.0000     1.3333    -4.0000 

 Edisp/kcal,au: -0.395959898305  -0.000631002196 
 E6   /kcal   :  -0.196480439 
 E8   /kcal   :  -0.199479460 
 % E8         :  50.378702586 

-------------------------   ----------------
Dispersion correction           -0.000631002
-------------------------   ----------------


-------------------------   --------------------
FINAL SINGLE POINT ENERGY       -78.206311405175
-------------------------   --------------------


                            ***************************************
                            *     ORCA property calculations      *
                            ***************************************

                                    ---------------------
                                    Active property flags
                                    ---------------------
   (+) Dipole Moment


------------------------------------------------------------------------------
                       ORCA ELECTRIC PROPERTIES CALCULATION
------------------------------------------------------------------------------

Dipole Moment Calculation                       ... on
Quadrupole Moment Calculation                   ... off
Polarizability Calculation                      ... off
GBWName                                         ... Scan_29.gbw
Electron density file                           ... Scan_29.scfp.tmp

-------------
DIPOLE MOMENT
-------------
                                X             Y             Z
Electronic contribution:     -0.00001      -0.00001       0.00001
Nuclear contribution   :     -0.00007      -0.00000       0.00000
                        -----------------------------------------
Total Dipole Moment    :     -0.00008      -0.00001       0.00001
                        -----------------------------------------
Magnitude (a.u.)       :      0.00008
Magnitude (Debye)      :      0.00020


Timings for individual modules:

Sum of individual times         ...       13.659 sec (=   0.228 min)
GTO integral calculation        ...        1.601 sec (=   0.027 min)  11.7 %
SCF iterations                  ...       12.058 sec (=   0.201 min)  88.3 %
                             ****ORCA TERMINATED NORMALLY****
TOTAL RUN TIME: 0 days 0 hours 0 minutes 15 seconds 144 msec
