
                                 *****************
                                 * O   R   C   A *
                                 *****************

           --- An Ab Initio, DFT and Semiempirical electronic structure package ---

                  #######################################################
                  #                        -***-                        #
                  #  Department of molecular theory and spectroscopy    #
                  #              Directorship: Frank Neese              #
                  # Max Planck Institute for Chemical Energy Conversion #
                  #                  D-45470 Muelheim/Ruhr              #
                  #                       Germany                       #
                  #                                                     #
                  #                  All rights reserved                #
                  #                        -***-                        #
                  #######################################################


                         Program Version 4.0.0.2 - RELEASE -


 With contributions from (in alphabetic order):
   Daniel Aravena         : Magnetic Properties
   Michael Atanasov       : Ab Initio Ligand Field Theory
   Ute Becker             : Parallelization
   Martin Brehm           : Molecular dynamics
   Dmytro Bykov           : SCF Hessian
   Vijay G. Chilkuri      : MRCI spin determinant printing
   Dipayan Datta          : RHF DLPNO-CCSD density
   Achintya Kumar Dutta   : EOM-CC, STEOM-CC
   Dmitry Ganyushin       : Spin-Orbit,Spin-Spin,Magnetic field MRCI
   Yang Guo               : DLPNO-NEVPT2, CIM, IAO-localization
   Andreas Hansen         : Spin unrestricted coupled pair/coupled cluster methods
   Lee Huntington         : MR-EOM, pCC
   Robert Izsak           : Overlap fitted RIJCOSX, COSX-SCS-MP3, EOM
   Christian Kollmar      : KDIIS, OOCD, Brueckner-CCSD(T), CCSD density
   Simone Kossmann        : Meta GGA functionals, TD-DFT gradient, OOMP2, MP2 Hessian
   Martin Krupicka        : AUTO-CI
   Dagmar Lenk            : GEPOL surface
   Dimitrios Liakos       : Extrapolation schemes; parallel MDCI
   Dimitrios Manganas     : ROCIS; embedding schemes
   Dimitrios Pantazis     : SARC Basis sets
   Taras Petrenko         : DFT Hessian,TD-DFT gradient, ASA, ECA, R-Raman, ABS, FL, XAS/XES, NRVS
   Peter Pinski           : DLPNO-MP2
   Christoph Reimann      : Effective Core Potentials
   Marius Retegan         : Local ZFS, SOC
   Christoph Riplinger    : Optimizer, TS searches, QM/MM, DLPNO-CCSD(T), (RO)-DLPNO pert. Triples
   Tobias Risthaus        : Range-separated hybrids, TD-DFT gradient, RPA, STAB
   Michael Roemelt        : Restricted open shell CIS
   Masaaki Saitow         : Open-shell DLPNO
   Barbara Sandhoefer     : DKH picture change effects
   Kantharuban Sivalingam : CASSCF convergence, NEVPT2, FIC-MRCI
   Georgi Stoychev        : AutoAux
   Boris Wezisla          : Elementary symmetry handling
   Frank Wennmohs         : Technical directorship


 We gratefully acknowledge several colleagues who have allowed us to
 interface, adapt or use parts of their codes:
   Stefan Grimme, W. Hujo, H. Kruse,             : VdW corrections, initial TS optimization,
                  C. Bannwarth                     DFT functionals, gCP, sTDA/sTD-DF
   Ed Valeev                                     : LibInt (2-el integral package), F12 methods
   Garnet Chan, S. Sharma, J. Yang, R. Olivares  : DMRG
   Ulf Ekstrom                                   : XCFun DFT Library
   Mihaly Kallay                                 : mrcc  (arbitrary order and MRCC methods)
   Jiri Pittner, Ondrej Demel                    : Mk-CCSD
   Frank Weinhold                                : gennbo (NPA and NBO analysis)
   Christopher J. Cramer and Donald G. Truhlar   : smd solvation model


 Your calculation uses the libint2 library for the computation of 2-el integrals
 For citations please refer to: http://libint.valeyev.net

 This ORCA versions uses:
   CBLAS   interface :  Fast vector & matrix operations
   LAPACKE interface :  Fast linear algebra routines
   SCALAPACK package :  Parallel linear algebra routines


Your calculation utilizes the atom-pairwise dispersion correction
with the zero-damping scheme (D30)
Cite in your paper:
S.Grimme, J.Antony, S.Ehrlich and H.Krieg, J.Chem.Phys., 132, (2010), 154104 
   

XCFun DFT library Copyright 2009-2010 Ulf Ekstrom and contributors.
See http://admol.org/xcfun for more information. This is free soft-
ware; see the source code for copying conditions. There is ABSOLUTELY
NO WARRANTY; not even for MERCHANTABILITY or FITNESS FOR A PARTICULAR
PURPOSE. For details see the documentation. Scientific users of this 
library should cite U. Ekstrom, L. Visscher, R. Bast, A. J. Thorvald-
sen and K. Ruud; J.Chem.Theor.Comp. 2010, DOI: 10.1021/ct100117s
XCFun Version 0.99 
Your calculation utilizes the basis: 6-31G(d)
   H-He, Li-Ne : W. J. Hehre, R. Ditchfield and J.A. Pople, J. Chem. Phys. 56, 2257 (1972).
                 Note: He and Ne are unpublished basis sets taken from the Gaussian program.
                 Note: Li and B from J. D. Dill and J. A. Pople, J. Chem. Phys. 62, 2921 (1975).
   Na - Ar     : M. M. Francl, W. J. Pietro, W. J. Hehre, J. S. Binkley, M. S. Gordon, 
                 D. J. DeFrees and J. A. Pople, J. Chem. Phys. 77, 3654 (1982).
   K - Zn      : V. A. Rassolov, J. A. Pople, M. A. Ratner, and T. L. Windus, J. Chem. Phys. 109, 1223 (1998).

================================================================================
                                        WARNINGS
                       Please study these warnings very carefully!
================================================================================

Warning: TCutStore was < 0. Adjusted to Thresh (uncritical)

INFO   : the flag for use of LIBINT has been found!

================================================================================
                                       INPUT FILE
================================================================================
NAME = initial3.inp
|  1> ! WB97X-D3 6-31G(d) VerySlowConv
|  2> ! KDIIS NOSOSCF
|  3> %base "Scan_3"
|  4> 
|  5> %scf
|  6> maxiter 999
|  7> end
|  8> 
|  9> * xyz 0 1
| 10> C         -1.584640198159    1.272288644271    0.000030173488
| 11> C         -0.453116232653    1.278234129775   -0.000005990192
| 12> H         -2.205743109244    0.586327810710   -0.580412520767
| 13> H         -2.212991879734    1.951643736705    0.580407407572
| 14> H          0.175235094529    0.598909852501   -0.580419648271
| 15> H          0.167986325261    1.964225826037    0.580400578170
| 16> **                         ****END OF INPUT****
================================================================================

                       ****************************
                       * Single Point Calculation *
                       ****************************

---------------------------------
CARTESIAN COORDINATES (ANGSTROEM)
---------------------------------
  C     -1.584640    1.272289    0.000030
  C     -0.453116    1.278234   -0.000006
  H     -2.205743    0.586328   -0.580413
  H     -2.212992    1.951644    0.580407
  H      0.175235    0.598910   -0.580420
  H      0.167986    1.964226    0.580401

----------------------------
CARTESIAN COORDINATES (A.U.)
----------------------------
  NO LB      ZA    FRAG     MASS         X           Y           Z
   0 C     6.0000    0    12.011   -2.994536    2.404277    0.000057
   1 C     6.0000    0    12.011   -0.856266    2.415512   -0.000011
   2 H     1.0000    0     1.008   -4.168250    1.107999   -1.096821
   3 H     1.0000    0     1.008   -4.181949    3.688072    1.096811
   4 H     1.0000    0     1.008    0.331146    1.131776   -1.096834
   5 H     1.0000    0     1.008    0.317448    3.711849    1.096798

--------------------------------
INTERNAL COORDINATES (ANGSTROEM)
--------------------------------
 C      0   0   0     0.000000000000     0.00000000     0.00000000
 C      1   0   0     1.131539585971     0.00000000     0.00000000
 H      1   2   0     1.092348301895   124.88065490     0.00000000
 H      1   2   3     1.092330953144   124.88844742   180.00345268
 H      2   1   3     1.092330938200   124.88843574     0.00000000
 H      2   1   3     1.092348286668   124.88064332   179.99696195

---------------------------
INTERNAL COORDINATES (A.U.)
---------------------------
 C      0   0   0     0.000000000000     0.00000000     0.00000000
 C      1   0   0     2.138299927176     0.00000000     0.00000000
 H      1   2   0     2.064239133435   124.88065490     0.00000000
 H      1   2   3     2.064206349048   124.88844742   180.00345268
 H      2   1   3     2.064206320808   124.88843574     0.00000000
 H      2   1   3     2.064239104660   124.88064332   179.99696195

---------------------
BASIS SET INFORMATION
---------------------
There are 2 groups of distinct atoms

 Group   1 Type C   : 10s4p1d contracted to 3s2p1d pattern {631/31/1}
 Group   2 Type H   : 4s contracted to 2s pattern {31}

Atom   0C    basis set group =>   1
Atom   1C    basis set group =>   1
Atom   2H    basis set group =>   2
Atom   3H    basis set group =>   2
Atom   4H    basis set group =>   2
Atom   5H    basis set group =>   2
------------------------------------------------------------------------------
                           ORCA GTO INTEGRAL CALCULATION
------------------------------------------------------------------------------

                         BASIS SET STATISTICS AND STARTUP INFO

 # of primitive gaussian shells          ...   46
 # of primitive gaussian functions       ...   70
 # of contracted shells                  ...   20
 # of contracted basis functions         ...   36
 Highest angular momentum                ...    2
 Maximum contraction depth               ...    6
 Integral package used                   ... LIBINT
 Integral threshhold            Thresh   ...  1.000e-10
 Primitive cut-off              TCut     ...  1.000e-11


------------------------------ INTEGRAL EVALUATION ----------------------------


 * One electron integrals 
 Pre-screening matrix                    ... done
 Shell pair data                         ... done (   0.000 sec)

-------------------------------------------------------------------------------
                                 ORCA SCF
-------------------------------------------------------------------------------

------------
SCF SETTINGS
------------
Hamiltonian:
 Density Functional     Method          .... DFT(GTOs)
 Exchange Functional    Exchange        .... WB97X-D3
 Correlation Functional Correlation     .... WB97X-D3
 Gradients option       PostSCFGGA      .... off
 Hybrid DFT is turned on
   Fraction HF Exchange ScalHFX         ....  0.195728
   Scaling of DF-GGA-X  ScalDFX         ....  0.000000
   Scaling of DF-GGA-C  ScalDFC         ....  1.000000
   Scaling of DF-LDA-C  ScalLDAC        ....  1.000000
   Perturbative correction              ....  0.000000
 Long-range corrected/Screened/Range-Separated Hybrid DFT is turned on
   Amount of maximum screened exact exchange              ....  0.804272
   Range separation parameter mu (erf(mu*r12)/r12)        ....  0.250000


General Settings:
 Integral files         IntName         .... Scan_3
 Hartree-Fock type      HFTyp           .... RHF
 Total Charge           Charge          ....    0
 Multiplicity           Mult            ....    1
 Number of Electrons    NEL             ....   16
 Basis Dimension        Dim             ....   36
 Nuclear Repulsion      ENuc            ....     36.2940877249 Eh

Convergence Acceleration:
 DIIS                   CNVDIIS         .... on
   Start iteration      DIISMaxIt       ....     0
   Startup error        DIISStart       ....  0.200000
   # of expansion vecs  DIISMaxEq       ....     5
   Bias factor          DIISBfac        ....   1.050
   Max. coefficient     DIISMaxC        ....  10.000
 Newton-Raphson         CNVNR           .... off
 SOSCF                  CNVSOSCF        .... off
 Level Shifting         CNVShift        .... off
 Zerner damping         CNVZerner       .... off
 Static damping         CNVDamp         .... off
 Fernandez-Rico         CNVRico         .... off

SCF Procedure:
 Maximum # iterations   MaxIter         ....   999
 SCF integral mode      SCFMode         .... Direct
   Integral package                     .... LIBINT
 Reset frequeny         DirectResetFreq ....    20
 Integral Threshold     Thresh          ....  1.000e-10 Eh
 Primitive CutOff       TCut            ....  1.000e-11 Eh

Convergence Tolerance:
 Convergence Check Mode ConvCheckMode   .... All-Criteria
 Convergence forced     ConvForced      .... 0
 Energy Change          TolE            ....  1.000e-06 Eh
 Max Density Change     TolMaxP         ....  1.000e-05
 RMS Density Change     TolRMSP         ....  1.000e-06
 DIIS Error             TolErr          ....  1.000e-06


Diagonalization of the overlap matrix:
Smallest eigenvalue                        ... 3.762e-03
Time for diagonalization                   ...    0.001 sec
Threshold for overlap eigenvalues          ... 1.000e-08
Number of eigenvalues below threshold      ... 0
Time for construction of square roots      ...    0.007 sec
Total time needed                          ...    0.008 sec

-------------------
DFT GRID GENERATION
-------------------

General Integration Accuracy     IntAcc      ...  4.340
Radial Grid Type                 RadialGrid  ... Gauss-Chebyshev
Angular Grid (max. acc.)         AngularGrid ... Lebedev-110
Angular grid pruning method      GridPruning ... 3 (G Style)
Weight generation scheme         WeightScheme... Becke
Basis function cutoff            BFCut       ...    1.0000e-10
Integration weight cutoff        WCut        ...    1.0000e-14
Grids for H and He will be reduced by one unit

# of grid points (after initial pruning)     ...   6488 (   0.0 sec)
# of grid points (after weights+screening)   ...   6230 (   0.0 sec)
nearest neighbour list constructed           ...    0.0 sec
Grid point re-assignment to atoms done       ...    0.0 sec
Grid point division into batches done        ...    0.0 sec
Reduced shell lists constructed in    0.0 sec

Total number of grid points                  ...     6230
Total number of batches                      ...       98
Average number of points per batch           ...       63
Average number of grid points per atom       ...     1038
Average number of shells per batch           ...    18.03 (90.15%)
Average number of basis functions per batch  ...    32.80 (91.11%)
Average number of large shells per batch     ...    16.54 (91.71%)
Average number of large basis fcns per batch ...    30.80 (93.90%)
Maximum spatial batch extension              ...  20.05, 20.86, 31.36 au
Average spatial batch extension              ...   4.80,  5.50,  6.13 au

Time for grid setup =    0.046 sec

------------------------------
INITIAL GUESS: MODEL POTENTIAL
------------------------------
Loading Hartree-Fock densities                     ... done
Calculating cut-offs                               ... done
Setting up the integral package                    ... done
Initializing the effective Hamiltonian             ... done
Starting the Coulomb interaction                   ... done (   0.0 sec)
Reading the grid                                   ... done
Mapping shells                                     ... done
Starting the XC term evaluation                    ... done (   0.0 sec)
  promolecular density results
     # of electrons  =     16.005807396
     EX              =    -11.429930439
     EC              =     -0.496114501
     EX+EC           =    -11.926044939
Transforming the Hamiltonian                       ... done (   0.0 sec)
Diagonalizing the Hamiltonian                      ... done (   0.0 sec)
Back transforming the eigenvectors                 ... done (   0.0 sec)
Now organizing SCF variables                       ... done
                      ------------------
                      INITIAL GUESS DONE (   0.2 sec)
                      ------------------
--------------
SCF ITERATIONS
--------------
ITER       Energy         Delta-E        Max-DP      RMS-DP      [F,P]   Gradient Norm
               ***  Starting incremental Fock matrix formation  ***
                             ****Resetting KDIIS****
                             ****Turning on KDIIS(Cayley)****
  0    -78.3554724973   0.000000000000 0.02693677  0.00237773  0.1413395   0.123329037
  1    -78.3994758163  -0.044003319022 0.02188608  0.00204761  0.1178421   0.101072014
  2    -78.4298554055  -0.030379589215 0.03595078  0.00350918  0.0967253   0.082710467
  3    -78.4674736805  -0.037618275025 0.05563749  0.00560452  0.0602970   0.051571987
  4    -78.4912657594  -0.023792078849 0.00259560  0.00030327  0.0027161   0.001885626
  5    -78.4913023981  -0.000036638707 0.00101977  0.00011361  0.0010153   0.000590282
  6    -78.4913038695  -0.000001471355 0.00063995  0.00007144  0.0006153   0.000457574
  7    -78.4913059799  -0.000002110478 0.00011417  0.00001252  0.0001297   0.000099404
                          ***Energy convergence achieved***
                           ***RMSP convergence achieved***
                           ***MAXP convergence achieved***
                    *** KDIIS BlockDiag ( 0.000 sec) ***

               *****************************************************
               *                     SUCCESS                       *
               *           SCF CONVERGED AFTER   8 CYCLES          *
               *****************************************************

Setting up the final grid:

General Integration Accuracy     IntAcc      ...  4.670
Radial Grid Type                 RadialGrid  ... Gauss-Chebyshev
Angular Grid (max. acc.)         AngularGrid ... Lebedev-302
Angular grid pruning method      GridPruning ... 3 (G Style)
Weight generation scheme         WeightScheme... Becke
Basis function cutoff            BFCut       ...    1.0000e-10
Integration weight cutoff        WCut        ...    1.0000e-14
Grids for H and He will be reduced by one unit

# of grid points (after initial pruning)     ...  26000 (   0.0 sec)
# of grid points (after weights+screening)   ...  25118 (   0.0 sec)
nearest neighbour list constructed           ...    0.0 sec
Grid point re-assignment to atoms done       ...    0.0 sec
Grid point division into batches done        ...    0.1 sec
Reduced shell lists constructed in    0.2 sec

Total number of grid points                  ...    25118
Total number of batches                      ...      394
Average number of points per batch           ...       63
Average number of grid points per atom       ...     4186
Average number of shells per batch           ...    16.39 (81.96%)
Average number of basis functions per batch  ...    29.96 (83.23%)
Average number of large shells per batch     ...    14.83 (90.49%)
Average number of large basis fcns per batch ...    27.66 (92.33%)
Maximum spatial batch extension              ...  18.04, 19.43, 20.64 au
Average spatial batch extension              ...   3.02,  3.26,  3.23 au

Final grid set up in    0.2 sec
Final integration                            ... done (   0.2 sec)
Change in XC energy                          ...     0.001367406
Integrated number of electrons               ...    16.000009066
Previous integrated no of electrons          ...    16.003795168

----------------
TOTAL SCF ENERGY
----------------

Total Energy       :          -78.48993868 Eh           -2135.81981 eV

Components:
Nuclear Repulsion  :           36.29408772 Eh             987.61234 eV
Electronic Energy  :         -114.78402641 Eh           -3123.43215 eV
One Electron Energy:         -175.95191377 Eh           -4787.89499 eV
Two Electron Energy:           61.16788736 Eh            1664.46283 eV

Virial components:
Potential Energy   :         -157.35124314 Eh           -4281.74501 eV
Kinetic Energy     :           78.86130446 Eh            2145.92519 eV
Virial Ratio       :            1.99529090


DFT components:
N(Alpha)           :        8.000004532757 electrons
N(Beta)            :        8.000004532757 electrons
N(Total)           :       16.000009065514 electrons
E(XC)              :       -8.398872028391 Eh       

---------------
SCF CONVERGENCE
---------------

  Last Energy change         ...   -1.0831e-07  Tolerance :   1.0000e-06
  Last MAX-Density change    ...    6.2456e-06  Tolerance :   1.0000e-05
  Last RMS-Density change    ...    5.0449e-07  Tolerance :   1.0000e-06
  Last DIIS Error            ...    1.9186e-06  Tolerance :   1.0000e-06

             **** THE GBW FILE WAS UPDATED (Scan_3.gbw) ****
             **** DENSITY FILE WAS UPDATED (Scan_3.scfp.tmp) ****
             **** ENERGY FILE WAS UPDATED (Scan_3.en.tmp) ****
----------------
ORBITAL ENERGIES
----------------

  NO   OCC          E(Eh)            E(eV) 
   0   2.0000     -10.251703      -278.9630 
   1   2.0000     -10.247388      -278.8456 
   2   2.0000      -0.914344       -24.8806 
   3   2.0000      -0.668921       -18.2023 
   4   2.0000      -0.581208       -15.8155 
   5   2.0000      -0.541701       -14.7404 
   6   2.0000      -0.407042       -11.0762 
   7   2.0000      -0.401650       -10.9295 
   8   0.0000       0.156880         4.2689 
   9   0.0000       0.212200         5.7743 
  10   0.0000       0.223453         6.0805 
  11   0.0000       0.262188         7.1345 
  12   0.0000       0.366490         9.9727 
  13   0.0000       0.473796        12.8926 
  14   0.0000       0.525072        14.2879 
  15   0.0000       0.611079        16.6283 
  16   0.0000       0.697516        18.9804 
  17   0.0000       0.773333        21.0435 
  18   0.0000       0.779631        21.2148 
  19   0.0000       0.898348        24.4453 
  20   0.0000       0.941745        25.6262 
  21   0.0000       1.018295        27.7092 
  22   0.0000       1.067539        29.0492 
  23   0.0000       1.082654        29.4605 
  24   0.0000       1.359911        37.0051 
  25   0.0000       1.374333        37.3975 
  26   0.0000       1.574594        42.8469 
  27   0.0000       1.668528        45.4030 
  28   0.0000       1.899802        51.6962 
  29   0.0000       2.024925        55.1010 
  30   0.0000       2.199340        59.8471 
  31   0.0000       2.351705        63.9931 
  32   0.0000       2.478798        67.4515 
  33   0.0000       2.692943        73.2787 
  34   0.0000       3.042673        82.7953 
  35   0.0000       3.245537        88.3155 

                    ********************************
                    * MULLIKEN POPULATION ANALYSIS *
                    ********************************

-----------------------
MULLIKEN ATOMIC CHARGES
-----------------------
   0 C :   -0.311827
   1 C :   -0.311827
   2 H :    0.155892
   3 H :    0.155935
   4 H :    0.155935
   5 H :    0.155892
Sum of atomic charges:    0.0000000

--------------------------------
MULLIKEN REDUCED ORBITAL CHARGES
--------------------------------
  0 C s       :     3.189465  s :     3.189465
      pz      :     1.016738  p :     3.081024
      px      :     1.038106
      py      :     1.026179
      dz2     :     0.001518  d :     0.041338
      dxz     :     0.014334
      dyz     :     0.004248
      dx2y2   :     0.004912
      dxy     :     0.016326
  1 C s       :     3.189465  s :     3.189465
      pz      :     1.016738  p :     3.081024
      px      :     1.038106
      py      :     1.026179
      dz2     :     0.001518  d :     0.041338
      dxz     :     0.014334
      dyz     :     0.004248
      dx2y2   :     0.004912
      dxy     :     0.016326
  2 H s       :     0.844108  s :     0.844108
  3 H s       :     0.844065  s :     0.844065
  4 H s       :     0.844065  s :     0.844065
  5 H s       :     0.844108  s :     0.844108


                     *******************************
                     * LOEWDIN POPULATION ANALYSIS *
                     *******************************

----------------------
LOEWDIN ATOMIC CHARGES
----------------------
   0 C :   -0.260120
   1 C :   -0.260120
   2 H :    0.130056
   3 H :    0.130063
   4 H :    0.130063
   5 H :    0.130057

-------------------------------
LOEWDIN REDUCED ORBITAL CHARGES
-------------------------------
  0 C s       :     2.924402  s :     2.924402
      pz      :     1.023610  p :     3.234000
      px      :     1.171472
      py      :     1.038917
      dz2     :     0.005632  d :     0.101718
      dxz     :     0.033018
      dyz     :     0.005982
      dx2y2   :     0.018113
      dxy     :     0.038973
  1 C s       :     2.924402  s :     2.924402
      pz      :     1.023610  p :     3.234000
      px      :     1.171472
      py      :     1.038917
      dz2     :     0.005632  d :     0.101718
      dxz     :     0.033018
      dyz     :     0.005982
      dx2y2   :     0.018113
      dxy     :     0.038973
  2 H s       :     0.869944  s :     0.869944
  3 H s       :     0.869937  s :     0.869937
  4 H s       :     0.869937  s :     0.869937
  5 H s       :     0.869943  s :     0.869943


                      *****************************
                      * MAYER POPULATION ANALYSIS *
                      *****************************

  NA   - Mulliken gross atomic population
  ZA   - Total nuclear charge
  QA   - Mulliken gross atomic charge
  VA   - Mayer's total valence
  BVA  - Mayer's bonded valence
  FA   - Mayer's free valence

  ATOM       NA         ZA         QA         VA         BVA        FA
  0 C      6.3118     6.0000    -0.3118     3.9354     3.9354     0.0000
  1 C      6.3118     6.0000    -0.3118     3.9354     3.9354    -0.0000
  2 H      0.8441     1.0000     0.1559     0.9372     0.9372    -0.0000
  3 H      0.8441     1.0000     0.1559     0.9372     0.9372     0.0000
  4 H      0.8441     1.0000     0.1559     0.9372     0.9372    -0.0000
  5 H      0.8441     1.0000     0.1559     0.9372     0.9372     0.0000

  Mayer bond orders larger than 0.1
B(  0-C ,  1-C ) :   2.0775 B(  0-C ,  2-H ) :   0.9396 B(  0-C ,  3-H ) :   0.9396 
B(  1-C ,  4-H ) :   0.9396 B(  1-C ,  5-H ) :   0.9396 

-------
TIMINGS
-------

Total SCF time: 0 days 0 hours 0 min 3 sec 

Total time                  ....       3.565 sec
Sum of individual times     ....       3.440 sec  ( 96.5%)

Fock matrix formation       ....       3.009 sec  ( 84.4%)
  XC integration            ....       0.908 sec  ( 30.2% of F)
    Basis function eval.    ....       0.370 sec  ( 40.7% of XC)
    Density eval.           ....       0.043 sec  (  4.7% of XC)
    XC-Functional eval.     ....       0.235 sec  ( 25.9% of XC)
    XC-Potential eval.      ....       0.052 sec  (  5.7% of XC)
Diagonalization             ....       0.005 sec  (  0.1%)
Density matrix formation    ....       0.000 sec  (  0.0%)
Population analysis         ....       0.010 sec  (  0.3%)
Initial guess               ....       0.143 sec  (  4.0%)
Orbital Transformation      ....       0.000 sec  (  0.0%)
Orbital Orthonormalization  ....       0.000 sec  (  0.0%)
DIIS solution               ....       0.000 sec  (  0.0%)
Grid generation             ....       0.274 sec  (  7.7%)


-------------------------------------------------------------------------------
                          DFT DISPERSION CORRECTION                            
                                                                               
                              DFTD3 V3.1  Rev 1                                
                              USING zero damping                               
-------------------------------------------------------------------------------
The omegaB97X-D3 functional is recognized. Fit by Chai et al.
Active option DFTDOPT                   ...         3   

molecular C6(AA) [au] = 294.253631 


            DFT-D V3
 parameters
 s6 scaling factor         :     1.0000 
 rs6 scaling factor        :     1.2810 
 s8 scaling factor         :     1.0000 
 rs8 scaling factor        :     1.0940 
 Damping factor alpha6     :    14.0000 
 Damping factor alpha8     :    16.0000 
 ad hoc parameters k1-k3   :    16.0000     1.3333    -4.0000 

 Edisp/kcal,au: -0.142661593276  -0.000227345696 
 E6   /kcal   :  -0.046242790 
 E8   /kcal   :  -0.096418803 
 % E8         :  67.585676725 

-------------------------   ----------------
Dispersion correction           -0.000227346
-------------------------   ----------------


-------------------------   --------------------
FINAL SINGLE POINT ENERGY       -78.490166027791
-------------------------   --------------------


                            ***************************************
                            *     ORCA property calculations      *
                            ***************************************

                                    ---------------------
                                    Active property flags
                                    ---------------------
   (+) Dipole Moment


------------------------------------------------------------------------------
                       ORCA ELECTRIC PROPERTIES CALCULATION
------------------------------------------------------------------------------

Dipole Moment Calculation                       ... on
Quadrupole Moment Calculation                   ... off
Polarizability Calculation                      ... off
GBWName                                         ... Scan_3.gbw
Electron density file                           ... Scan_3.scfp.tmp

-------------
DIPOLE MOMENT
-------------
                                X             Y             Z
Electronic contribution:      0.00000      -0.00003       0.00004
Nuclear contribution   :     -0.00000       0.00005      -0.00006
                        -----------------------------------------
Total Dipole Moment    :     -0.00000       0.00002      -0.00002
                        -----------------------------------------
Magnitude (a.u.)       :      0.00002
Magnitude (Debye)      :      0.00006


Timings for individual modules:

Sum of individual times         ...        3.896 sec (=   0.065 min)
GTO integral calculation        ...        0.297 sec (=   0.005 min)   7.6 %
SCF iterations                  ...        3.599 sec (=   0.060 min)  92.4 %
                             ****ORCA TERMINATED NORMALLY****
TOTAL RUN TIME: 0 days 0 hours 0 minutes 4 seconds 216 msec
