
                                 *****************
                                 * O   R   C   A *
                                 *****************

           --- An Ab Initio, DFT and Semiempirical electronic structure package ---

                  #######################################################
                  #                        -***-                        #
                  #  Department of molecular theory and spectroscopy    #
                  #              Directorship: Frank Neese              #
                  # Max Planck Institute for Chemical Energy Conversion #
                  #                  D-45470 Muelheim/Ruhr              #
                  #                       Germany                       #
                  #                                                     #
                  #                  All rights reserved                #
                  #                        -***-                        #
                  #######################################################


                         Program Version 4.0.0.2 - RELEASE -


 With contributions from (in alphabetic order):
   Daniel Aravena         : Magnetic Properties
   Michael Atanasov       : Ab Initio Ligand Field Theory
   Ute Becker             : Parallelization
   Martin Brehm           : Molecular dynamics
   Dmytro Bykov           : SCF Hessian
   Vijay G. Chilkuri      : MRCI spin determinant printing
   Dipayan Datta          : RHF DLPNO-CCSD density
   Achintya Kumar Dutta   : EOM-CC, STEOM-CC
   Dmitry Ganyushin       : Spin-Orbit,Spin-Spin,Magnetic field MRCI
   Yang Guo               : DLPNO-NEVPT2, CIM, IAO-localization
   Andreas Hansen         : Spin unrestricted coupled pair/coupled cluster methods
   Lee Huntington         : MR-EOM, pCC
   Robert Izsak           : Overlap fitted RIJCOSX, COSX-SCS-MP3, EOM
   Christian Kollmar      : KDIIS, OOCD, Brueckner-CCSD(T), CCSD density
   Simone Kossmann        : Meta GGA functionals, TD-DFT gradient, OOMP2, MP2 Hessian
   Martin Krupicka        : AUTO-CI
   Dagmar Lenk            : GEPOL surface
   Dimitrios Liakos       : Extrapolation schemes; parallel MDCI
   Dimitrios Manganas     : ROCIS; embedding schemes
   Dimitrios Pantazis     : SARC Basis sets
   Taras Petrenko         : DFT Hessian,TD-DFT gradient, ASA, ECA, R-Raman, ABS, FL, XAS/XES, NRVS
   Peter Pinski           : DLPNO-MP2
   Christoph Reimann      : Effective Core Potentials
   Marius Retegan         : Local ZFS, SOC
   Christoph Riplinger    : Optimizer, TS searches, QM/MM, DLPNO-CCSD(T), (RO)-DLPNO pert. Triples
   Tobias Risthaus        : Range-separated hybrids, TD-DFT gradient, RPA, STAB
   Michael Roemelt        : Restricted open shell CIS
   Masaaki Saitow         : Open-shell DLPNO
   Barbara Sandhoefer     : DKH picture change effects
   Kantharuban Sivalingam : CASSCF convergence, NEVPT2, FIC-MRCI
   Georgi Stoychev        : AutoAux
   Boris Wezisla          : Elementary symmetry handling
   Frank Wennmohs         : Technical directorship


 We gratefully acknowledge several colleagues who have allowed us to
 interface, adapt or use parts of their codes:
   Stefan Grimme, W. Hujo, H. Kruse,             : VdW corrections, initial TS optimization,
                  C. Bannwarth                     DFT functionals, gCP, sTDA/sTD-DF
   Ed Valeev                                     : LibInt (2-el integral package), F12 methods
   Garnet Chan, S. Sharma, J. Yang, R. Olivares  : DMRG
   Ulf Ekstrom                                   : XCFun DFT Library
   Mihaly Kallay                                 : mrcc  (arbitrary order and MRCC methods)
   Jiri Pittner, Ondrej Demel                    : Mk-CCSD
   Frank Weinhold                                : gennbo (NPA and NBO analysis)
   Christopher J. Cramer and Donald G. Truhlar   : smd solvation model


 Your calculation uses the libint2 library for the computation of 2-el integrals
 For citations please refer to: http://libint.valeyev.net

 This ORCA versions uses:
   CBLAS   interface :  Fast vector & matrix operations
   LAPACKE interface :  Fast linear algebra routines
   SCALAPACK package :  Parallel linear algebra routines


Your calculation utilizes the atom-pairwise dispersion correction
with the zero-damping scheme (D30)
Cite in your paper:
S.Grimme, J.Antony, S.Ehrlich and H.Krieg, J.Chem.Phys., 132, (2010), 154104 
   

XCFun DFT library Copyright 2009-2010 Ulf Ekstrom and contributors.
See http://admol.org/xcfun for more information. This is free soft-
ware; see the source code for copying conditions. There is ABSOLUTELY
NO WARRANTY; not even for MERCHANTABILITY or FITNESS FOR A PARTICULAR
PURPOSE. For details see the documentation. Scientific users of this 
library should cite U. Ekstrom, L. Visscher, R. Bast, A. J. Thorvald-
sen and K. Ruud; J.Chem.Theor.Comp. 2010, DOI: 10.1021/ct100117s
XCFun Version 0.99 
Your calculation utilizes the basis: 6-31G(d)
   H-He, Li-Ne : W. J. Hehre, R. Ditchfield and J.A. Pople, J. Chem. Phys. 56, 2257 (1972).
                 Note: He and Ne are unpublished basis sets taken from the Gaussian program.
                 Note: Li and B from J. D. Dill and J. A. Pople, J. Chem. Phys. 62, 2921 (1975).
   Na - Ar     : M. M. Francl, W. J. Pietro, W. J. Hehre, J. S. Binkley, M. S. Gordon, 
                 D. J. DeFrees and J. A. Pople, J. Chem. Phys. 77, 3654 (1982).
   K - Zn      : V. A. Rassolov, J. A. Pople, M. A. Ratner, and T. L. Windus, J. Chem. Phys. 109, 1223 (1998).

================================================================================
                                        WARNINGS
                       Please study these warnings very carefully!
================================================================================

Warning: TCutStore was < 0. Adjusted to Thresh (uncritical)

INFO   : the flag for use of LIBINT has been found!

================================================================================
                                       INPUT FILE
================================================================================
NAME = initial30.inp
|  1> ! WB97X-D3 6-31G(d) VerySlowConv
|  2> ! KDIIS NOSOSCF
|  3> %base "Scan_30"
|  4> 
|  5> %scf
|  6> maxiter 999
|  7> end
|  8> 
|  9> * xyz 0 1
| 10> C         -2.696076455172    0.990080148995    0.325005074698
| 11> C          0.658345464778    1.560459838707   -0.325000986149
| 12> H         -2.736777886147    0.626604519659   -0.688625956122
| 13> H         -2.744294886589    2.048704805845    0.520473311832
| 14> H          0.706525419000    0.501836487514   -0.520478508814
| 15> H          0.699008344130    1.923944199281    0.688627064555
| 16> **                         ****END OF INPUT****
================================================================================

                       ****************************
                       * Single Point Calculation *
                       ****************************

---------------------------------
CARTESIAN COORDINATES (ANGSTROEM)
---------------------------------
  C     -2.696076    0.990080    0.325005
  C      0.658345    1.560460   -0.325001
  H     -2.736778    0.626605   -0.688626
  H     -2.744295    2.048705    0.520473
  H      0.706525    0.501836   -0.520479
  H      0.699008    1.923944    0.688627

----------------------------
CARTESIAN COORDINATES (A.U.)
----------------------------
  NO LB      ZA    FRAG     MASS         X           Y           Z
   0 C     6.0000    0    12.011   -5.094846    1.870980    0.614171
   1 C     6.0000    0    12.011    1.244093    2.948842   -0.614163
   2 H     1.0000    0     1.008   -5.171761    1.184111   -1.301314
   3 H     1.0000    0     1.008   -5.185966    3.871491    0.983552
   4 H     1.0000    0     1.008    1.335140    0.948334   -0.983562
   5 H     1.0000    0     1.008    1.320934    3.635728    1.301317

--------------------------------
INTERNAL COORDINATES (ANGSTROEM)
--------------------------------
 C      0   0   0     0.000000000000     0.00000000     0.00000000
 C      1   0   0     3.464099780118     0.00000000     0.00000000
 H      1   2   0     1.077598722274    85.15909484     0.00000000
 H      1   2   3     1.077598725383    85.15909367   239.26566765
 H      2   1   3     1.077597406060    85.15720403   300.73526211
 H      2   1   3     1.077597408735    85.15720348   179.99906925

---------------------------
INTERNAL COORDINATES (A.U.)
---------------------------
 C      0   0   0     0.000000000000     0.00000000     0.00000000
 C      1   0   0     6.546199885000     0.00000000     0.00000000
 H      1   2   0     2.036366467361    85.15909484     0.00000000
 H      1   2   3     2.036366473237    85.15909367   239.26566765
 H      2   1   3     2.036363980077    85.15720403   300.73526211
 H      2   1   3     2.036363985133    85.15720348   179.99906925

---------------------
BASIS SET INFORMATION
---------------------
There are 2 groups of distinct atoms

 Group   1 Type C   : 10s4p1d contracted to 3s2p1d pattern {631/31/1}
 Group   2 Type H   : 4s contracted to 2s pattern {31}

Atom   0C    basis set group =>   1
Atom   1C    basis set group =>   1
Atom   2H    basis set group =>   2
Atom   3H    basis set group =>   2
Atom   4H    basis set group =>   2
Atom   5H    basis set group =>   2
------------------------------------------------------------------------------
                           ORCA GTO INTEGRAL CALCULATION
------------------------------------------------------------------------------

                         BASIS SET STATISTICS AND STARTUP INFO

 # of primitive gaussian shells          ...   46
 # of primitive gaussian functions       ...   70
 # of contracted shells                  ...   20
 # of contracted basis functions         ...   36
 Highest angular momentum                ...    2
 Maximum contraction depth               ...    6
 Integral package used                   ... LIBINT
 Integral threshhold            Thresh   ...  1.000e-10
 Primitive cut-off              TCut     ...  1.000e-11


------------------------------ INTEGRAL EVALUATION ----------------------------


 * One electron integrals 
 Pre-screening matrix                    ... done
 Shell pair data                         ... done (   0.000 sec)

-------------------------------------------------------------------------------
                                 ORCA SCF
-------------------------------------------------------------------------------

------------
SCF SETTINGS
------------
Hamiltonian:
 Density Functional     Method          .... DFT(GTOs)
 Exchange Functional    Exchange        .... WB97X-D3
 Correlation Functional Correlation     .... WB97X-D3
 Gradients option       PostSCFGGA      .... off
 Hybrid DFT is turned on
   Fraction HF Exchange ScalHFX         ....  0.195728
   Scaling of DF-GGA-X  ScalDFX         ....  0.000000
   Scaling of DF-GGA-C  ScalDFC         ....  1.000000
   Scaling of DF-LDA-C  ScalLDAC        ....  1.000000
   Perturbative correction              ....  0.000000
 Long-range corrected/Screened/Range-Separated Hybrid DFT is turned on
   Amount of maximum screened exact exchange              ....  0.804272
   Range separation parameter mu (erf(mu*r12)/r12)        ....  0.250000


General Settings:
 Integral files         IntName         .... Scan_30
 Hartree-Fock type      HFTyp           .... RHF
 Total Charge           Charge          ....    0
 Multiplicity           Mult            ....    1
 Number of Electrons    NEL             ....   16
 Basis Dimension        Dim             ....   36
 Nuclear Repulsion      ENuc            ....     22.0164105207 Eh

Convergence Acceleration:
 DIIS                   CNVDIIS         .... on
   Start iteration      DIISMaxIt       ....     0
   Startup error        DIISStart       ....  0.200000
   # of expansion vecs  DIISMaxEq       ....     5
   Bias factor          DIISBfac        ....   1.050
   Max. coefficient     DIISMaxC        ....  10.000
 Newton-Raphson         CNVNR           .... off
 SOSCF                  CNVSOSCF        .... off
 Level Shifting         CNVShift        .... off
 Zerner damping         CNVZerner       .... off
 Static damping         CNVDamp         .... off
 Fernandez-Rico         CNVRico         .... off

SCF Procedure:
 Maximum # iterations   MaxIter         ....   999
 SCF integral mode      SCFMode         .... Direct
   Integral package                     .... LIBINT
 Reset frequeny         DirectResetFreq ....    20
 Integral Threshold     Thresh          ....  1.000e-10 Eh
 Primitive CutOff       TCut            ....  1.000e-11 Eh

Convergence Tolerance:
 Convergence Check Mode ConvCheckMode   .... All-Criteria
 Convergence forced     ConvForced      .... 0
 Energy Change          TolE            ....  1.000e-06 Eh
 Max Density Change     TolMaxP         ....  1.000e-05
 RMS Density Change     TolRMSP         ....  1.000e-06
 DIIS Error             TolErr          ....  1.000e-06


Diagonalization of the overlap matrix:
Smallest eigenvalue                        ... 3.379e-02
Time for diagonalization                   ...    0.001 sec
Threshold for overlap eigenvalues          ... 1.000e-08
Number of eigenvalues below threshold      ... 0
Time for construction of square roots      ...    0.012 sec
Total time needed                          ...    0.013 sec

-------------------
DFT GRID GENERATION
-------------------

General Integration Accuracy     IntAcc      ...  4.340
Radial Grid Type                 RadialGrid  ... Gauss-Chebyshev
Angular Grid (max. acc.)         AngularGrid ... Lebedev-110
Angular grid pruning method      GridPruning ... 3 (G Style)
Weight generation scheme         WeightScheme... Becke
Basis function cutoff            BFCut       ...    1.0000e-10
Integration weight cutoff        WCut        ...    1.0000e-14
Grids for H and He will be reduced by one unit

# of grid points (after initial pruning)     ...   6488 (   0.0 sec)
# of grid points (after weights+screening)   ...   6370 (   0.0 sec)
nearest neighbour list constructed           ...    0.0 sec
Grid point re-assignment to atoms done       ...    0.0 sec
Grid point division into batches done        ...    0.0 sec
Reduced shell lists constructed in    0.1 sec

Total number of grid points                  ...     6370
Total number of batches                      ...      104
Average number of points per batch           ...       61
Average number of grid points per atom       ...     1062
Average number of shells per batch           ...    15.93 (79.67%)
Average number of basis functions per batch  ...    28.56 (79.34%)
Average number of large shells per batch     ...    13.24 (83.08%)
Average number of large basis fcns per batch ...    23.37 (81.83%)
Maximum spatial batch extension              ...  19.53, 20.93, 21.59 au
Average spatial batch extension              ...   5.35,  4.87,  5.00 au

Time for grid setup =    0.122 sec

------------------------------
INITIAL GUESS: MODEL POTENTIAL
------------------------------
Loading Hartree-Fock densities                     ... done
Calculating cut-offs                               ... done
Setting up the integral package                    ... done
Initializing the effective Hamiltonian             ... done
Starting the Coulomb interaction                   ... done (   0.0 sec)
Reading the grid                                   ... done
Mapping shells                                     ... done
Starting the XC term evaluation                    ... done (   0.1 sec)
  promolecular density results
     # of electrons  =     15.997681881
     EX              =    -11.195099948
     EC              =     -0.449932384
     EX+EC           =    -11.645032332
Transforming the Hamiltonian                       ... done (   0.0 sec)
Diagonalizing the Hamiltonian                      ... done (   0.0 sec)
Back transforming the eigenvectors                 ... done (   0.0 sec)
Now organizing SCF variables                       ... done
                      ------------------
                      INITIAL GUESS DONE (   0.4 sec)
                      ------------------
--------------
SCF ITERATIONS
--------------
ITER       Energy         Delta-E        Max-DP      RMS-DP      [F,P]   Gradient Norm
               ***  Starting incremental Fock matrix formation  ***
                             ****Resetting KDIIS****
                             ****Turning on KDIIS(Cayley)****
  0    -78.1818217175   0.000000000000 0.01217369  0.00105084  0.0504447   0.048511408
  1    -78.1879492416  -0.006127524102 0.01303243  0.00125872  0.0434470   0.041826680
  2    -78.1941296257  -0.006180384041 0.02167323  0.00210857  0.0351774   0.033787421
  3    -78.2015519227  -0.007422297042 0.03284052  0.00323297  0.0212971   0.020432909
  4    -78.2058415247  -0.004289602021 0.00172205  0.00016903  0.0003338   0.000246705
  5    -78.2058458458  -0.000004321094 0.00037511  0.00004376  0.0002364   0.000191545
  6    -78.2058470544  -0.000001208579 0.00080588  0.00009292  0.0001663   0.000105233
  7    -78.2058483844  -0.000001329962 0.00036006  0.00004557  0.0000611   0.000032963
                          ***Energy convergence achieved***
  8    -78.2058485339  -0.000000149496 0.00003318  0.00000372  0.0000100   0.000009582

            ***Energy convergence in two consecutive cycles with***
                    ***'reasonable' density convergence***
                       *** signaling convergence ***

                    *** KDIIS BlockDiag ( 0.000 sec) ***

               *****************************************************
               *                     SUCCESS                       *
               *           SCF CONVERGED AFTER   9 CYCLES          *
               *****************************************************

Setting up the final grid:

General Integration Accuracy     IntAcc      ...  4.670
Radial Grid Type                 RadialGrid  ... Gauss-Chebyshev
Angular Grid (max. acc.)         AngularGrid ... Lebedev-302
Angular grid pruning method      GridPruning ... 3 (G Style)
Weight generation scheme         WeightScheme... Becke
Basis function cutoff            BFCut       ...    1.0000e-10
Integration weight cutoff        WCut        ...    1.0000e-14
Grids for H and He will be reduced by one unit

# of grid points (after initial pruning)     ...  26000 (   0.0 sec)
# of grid points (after weights+screening)   ...  25440 (   0.0 sec)
nearest neighbour list constructed           ...    0.0 sec
Grid point re-assignment to atoms done       ...    0.0 sec
Grid point division into batches done        ...    0.2 sec
Reduced shell lists constructed in    0.6 sec

Total number of grid points                  ...    25440
Total number of batches                      ...      400
Average number of points per batch           ...       63
Average number of grid points per atom       ...     4240
Average number of shells per batch           ...    14.26 (71.28%)
Average number of basis functions per batch  ...    25.44 (70.66%)
Average number of large shells per batch     ...    11.87 (83.26%)
Average number of large basis fcns per batch ...    20.83 (81.89%)
Maximum spatial batch extension              ...  18.78, 20.64, 20.12 au
Average spatial batch extension              ...   3.38,  3.30,  3.36 au

Final grid set up in    0.6 sec
Final integration                            ... done (   0.5 sec)
Change in XC energy                          ...     0.001259485
Integrated number of electrons               ...    15.999984508
Previous integrated no of electrons          ...    16.001905726

----------------
TOTAL SCF ENERGY
----------------

Total Energy       :          -78.20458905 Eh           -2128.05506 eV

Components:
Nuclear Repulsion  :           22.01641052 Eh             599.09699 eV
Electronic Energy  :         -100.22099957 Eh           -2727.15204 eV
One Electron Energy:         -147.12922476 Eh           -4003.58974 eV
Two Electron Energy:           46.90822519 Eh            1276.43770 eV

Virial components:
Potential Energy   :         -156.15075723 Eh           -4249.07812 eV
Kinetic Energy     :           77.94616818 Eh            2121.02307 eV
Virial Ratio       :            2.00331538


DFT components:
N(Alpha)           :        7.999992254122 electrons
N(Beta)            :        7.999992254122 electrons
N(Total)           :       15.999984508244 electrons
E(XC)              :       -8.146189493953 Eh       

---------------
SCF CONVERGENCE
---------------

  Last Energy change         ...   -1.9531e-09  Tolerance :   1.0000e-06
  Last MAX-Density change    ...    1.4748e-05  Tolerance :   1.0000e-05
  Last RMS-Density change    ...    1.3038e-06  Tolerance :   1.0000e-06
  Last DIIS Error            ...    2.5723e-06  Tolerance :   1.0000e-06

             **** THE GBW FILE WAS UPDATED (Scan_30.gbw) ****
             **** DENSITY FILE WAS UPDATED (Scan_30.scfp.tmp) ****
             **** ENERGY FILE WAS UPDATED (Scan_30.en.tmp) ****
----------------
ORBITAL ENERGIES
----------------

  NO   OCC          E(Eh)            E(eV) 
   0   2.0000     -10.336860      -281.2802 
   1   2.0000     -10.336831      -281.2795 
   2   2.0000      -0.779598       -21.2139 
   3   2.0000      -0.773441       -21.0464 
   4   2.0000      -0.542297       -14.7567 
   5   2.0000      -0.538193       -14.6450 
   6   2.0000      -0.316677        -8.6172 
   7   2.0000      -0.310599        -8.4518 
   8   0.0000      -0.044374        -1.2075 
   9   0.0000      -0.000916        -0.0249 
  10   0.0000       0.200630         5.4594 
  11   0.0000       0.223171         6.0728 
  12   0.0000       0.276128         7.5138 
  13   0.0000       0.277199         7.5430 
  14   0.0000       0.584825        15.9139 
  15   0.0000       0.637878        17.3575 
  16   0.0000       0.640350        17.4248 
  17   0.0000       0.674644        18.3580 
  18   0.0000       0.680722        18.5234 
  19   0.0000       0.712548        19.3894 
  20   0.0000       0.752347        20.4724 
  21   0.0000       0.906983        24.6803 
  22   0.0000       1.016483        27.6599 
  23   0.0000       1.018114        27.7043 
  24   0.0000       1.020055        27.7571 
  25   0.0000       1.069171        29.0936 
  26   0.0000       1.742783        47.4235 
  27   0.0000       1.742917        47.4272 
  28   0.0000       1.788736        48.6740 
  29   0.0000       1.788784        48.6753 
  30   0.0000       1.792804        48.7847 
  31   0.0000       1.795459        48.8569 
  32   0.0000       2.174688        59.1763 
  33   0.0000       2.186180        59.4890 
  34   0.0000       2.298190        62.5369 
  35   0.0000       2.325753        63.2870 

                    ********************************
                    * MULLIKEN POPULATION ANALYSIS *
                    ********************************

-----------------------
MULLIKEN ATOMIC CHARGES
-----------------------
   0 C :   -0.351696
   1 C :   -0.351698
   2 H :    0.175862
   3 H :    0.175835
   4 H :    0.175836
   5 H :    0.175862
Sum of atomic charges:    0.0000000

--------------------------------
MULLIKEN REDUCED ORBITAL CHARGES
--------------------------------
  0 C s       :     3.680846  s :     3.680846
      pz      :     1.364849  p :     2.648271
      px      :     0.019102
      py      :     1.264321
      dz2     :     0.013053  d :     0.022579
      dxz     :     0.000111
      dyz     :     0.001205
      dx2y2   :     0.008079
      dxy     :     0.000131
  1 C s       :     3.680836  s :     3.680836
      pz      :     1.364868  p :     2.648282
      px      :     0.019078
      py      :     1.264336
      dz2     :     0.013053  d :     0.022579
      dxz     :     0.000111
      dyz     :     0.001205
      dx2y2   :     0.008079
      dxy     :     0.000131
  2 H s       :     0.824138  s :     0.824138
  3 H s       :     0.824165  s :     0.824165
  4 H s       :     0.824164  s :     0.824164
  5 H s       :     0.824138  s :     0.824138


                     *******************************
                     * LOEWDIN POPULATION ANALYSIS *
                     *******************************

----------------------
LOEWDIN ATOMIC CHARGES
----------------------
   0 C :   -0.255407
   1 C :   -0.255410
   2 H :    0.127762
   3 H :    0.127645
   4 H :    0.127646
   5 H :    0.127763

-------------------------------
LOEWDIN REDUCED ORBITAL CHARGES
-------------------------------
  0 C s       :     3.422825  s :     3.422825
      pz      :     1.436175  p :     2.800417
      px      :     0.019978
      py      :     1.344265
      dz2     :     0.018401  d :     0.032164
      dxz     :     0.000133
      dyz     :     0.002489
      dx2y2   :     0.010976
      dxy     :     0.000166
  1 C s       :     3.422819  s :     3.422819
      pz      :     1.436194  p :     2.800427
      px      :     0.019954
      py      :     1.344279
      dz2     :     0.018401  d :     0.032164
      dxz     :     0.000132
      dyz     :     0.002490
      dx2y2   :     0.010976
      dxy     :     0.000165
  2 H s       :     0.872238  s :     0.872238
  3 H s       :     0.872355  s :     0.872355
  4 H s       :     0.872354  s :     0.872354
  5 H s       :     0.872237  s :     0.872237


                      *****************************
                      * MAYER POPULATION ANALYSIS *
                      *****************************

  NA   - Mulliken gross atomic population
  ZA   - Total nuclear charge
  QA   - Mulliken gross atomic charge
  VA   - Mayer's total valence
  BVA  - Mayer's bonded valence
  FA   - Mayer's free valence

  ATOM       NA         ZA         QA         VA         BVA        FA
  0 C      6.3517     6.0000    -0.3517     1.8483     1.8483     0.0000
  1 C      6.3517     6.0000    -0.3517     1.8483     1.8483    -0.0000
  2 H      0.8241     1.0000     0.1759     0.9238     0.9238     0.0000
  3 H      0.8242     1.0000     0.1758     0.9243     0.9243     0.0000
  4 H      0.8242     1.0000     0.1758     0.9243     0.9243    -0.0000
  5 H      0.8241     1.0000     0.1759     0.9238     0.9238    -0.0000

  Mayer bond orders larger than 0.1
B(  0-C ,  2-H ) :   0.9220 B(  0-C ,  3-H ) :   0.9224 B(  1-C ,  4-H ) :   0.9224 
B(  1-C ,  5-H ) :   0.9220 

-------
TIMINGS
-------

Total SCF time: 0 days 0 hours 0 min 8 sec 

Total time                  ....       8.733 sec
Sum of individual times     ....       8.291 sec  ( 94.9%)

Fock matrix formation       ....       7.161 sec  ( 82.0%)
  XC integration            ....       2.511 sec  ( 35.1% of F)
    Basis function eval.    ....       0.803 sec  ( 32.0% of XC)
    Density eval.           ....       0.084 sec  (  3.4% of XC)
    XC-Functional eval.     ....       0.703 sec  ( 28.0% of XC)
    XC-Potential eval.      ....       0.120 sec  (  4.8% of XC)
Diagonalization             ....       0.087 sec  (  1.0%)
Density matrix formation    ....       0.000 sec  (  0.0%)
Population analysis         ....       0.029 sec  (  0.3%)
Initial guess               ....       0.288 sec  (  3.3%)
Orbital Transformation      ....       0.000 sec  (  0.0%)
Orbital Orthonormalization  ....       0.000 sec  (  0.0%)
DIIS solution               ....       0.000 sec  (  0.0%)
Grid generation             ....       0.725 sec  (  8.3%)


-------------------------------------------------------------------------------
                          DFT DISPERSION CORRECTION                            
                                                                               
                              DFTD3 V3.1  Rev 1                                
                              USING zero damping                               
-------------------------------------------------------------------------------
The omegaB97X-D3 functional is recognized. Fit by Chai et al.
Active option DFTDOPT                   ...         3   

molecular C6(AA) [au] = 320.297479 


            DFT-D V3
 parameters
 s6 scaling factor         :     1.0000 
 rs6 scaling factor        :     1.2810 
 s8 scaling factor         :     1.0000 
 rs8 scaling factor        :     1.0940 
 Damping factor alpha6     :    14.0000 
 Damping factor alpha8     :    16.0000 
 ad hoc parameters k1-k3   :    16.0000     1.3333    -4.0000 

 Edisp/kcal,au: -0.394382801678  -0.000628488933 
 E6   /kcal   :  -0.202019173 
 E8   /kcal   :  -0.192363629 
 % E8         :  48.775866426 

-------------------------   ----------------
Dispersion correction           -0.000628489
-------------------------   ----------------


-------------------------   --------------------
FINAL SINGLE POINT ENERGY       -78.205217539766
-------------------------   --------------------


                            ***************************************
                            *     ORCA property calculations      *
                            ***************************************

                                    ---------------------
                                    Active property flags
                                    ---------------------
   (+) Dipole Moment


------------------------------------------------------------------------------
                       ORCA ELECTRIC PROPERTIES CALCULATION
------------------------------------------------------------------------------

Dipole Moment Calculation                       ... on
Quadrupole Moment Calculation                   ... off
Polarizability Calculation                      ... off
GBWName                                         ... Scan_30.gbw
Electron density file                           ... Scan_30.scfp.tmp

-------------
DIPOLE MOMENT
-------------
                                X             Y             Z
Electronic contribution:      0.00000      -0.00001       0.00001
Nuclear contribution   :     -0.00006       0.00001      -0.00001
                        -----------------------------------------
Total Dipole Moment    :     -0.00006      -0.00000       0.00000
                        -----------------------------------------
Magnitude (a.u.)       :      0.00006
Magnitude (Debye)      :      0.00016


Timings for individual modules:

Sum of individual times         ...        9.713 sec (=   0.162 min)
GTO integral calculation        ...        0.850 sec (=   0.014 min)   8.8 %
SCF iterations                  ...        8.863 sec (=   0.148 min)  91.2 %
                             ****ORCA TERMINATED NORMALLY****
TOTAL RUN TIME: 0 days 0 hours 0 minutes 11 seconds 71 msec
