
                                 *****************
                                 * O   R   C   A *
                                 *****************

           --- An Ab Initio, DFT and Semiempirical electronic structure package ---

                  #######################################################
                  #                        -***-                        #
                  #  Department of molecular theory and spectroscopy    #
                  #              Directorship: Frank Neese              #
                  # Max Planck Institute for Chemical Energy Conversion #
                  #                  D-45470 Muelheim/Ruhr              #
                  #                       Germany                       #
                  #                                                     #
                  #                  All rights reserved                #
                  #                        -***-                        #
                  #######################################################


                         Program Version 4.0.0.2 - RELEASE -


 With contributions from (in alphabetic order):
   Daniel Aravena         : Magnetic Properties
   Michael Atanasov       : Ab Initio Ligand Field Theory
   Ute Becker             : Parallelization
   Martin Brehm           : Molecular dynamics
   Dmytro Bykov           : SCF Hessian
   Vijay G. Chilkuri      : MRCI spin determinant printing
   Dipayan Datta          : RHF DLPNO-CCSD density
   Achintya Kumar Dutta   : EOM-CC, STEOM-CC
   Dmitry Ganyushin       : Spin-Orbit,Spin-Spin,Magnetic field MRCI
   Yang Guo               : DLPNO-NEVPT2, CIM, IAO-localization
   Andreas Hansen         : Spin unrestricted coupled pair/coupled cluster methods
   Lee Huntington         : MR-EOM, pCC
   Robert Izsak           : Overlap fitted RIJCOSX, COSX-SCS-MP3, EOM
   Christian Kollmar      : KDIIS, OOCD, Brueckner-CCSD(T), CCSD density
   Simone Kossmann        : Meta GGA functionals, TD-DFT gradient, OOMP2, MP2 Hessian
   Martin Krupicka        : AUTO-CI
   Dagmar Lenk            : GEPOL surface
   Dimitrios Liakos       : Extrapolation schemes; parallel MDCI
   Dimitrios Manganas     : ROCIS; embedding schemes
   Dimitrios Pantazis     : SARC Basis sets
   Taras Petrenko         : DFT Hessian,TD-DFT gradient, ASA, ECA, R-Raman, ABS, FL, XAS/XES, NRVS
   Peter Pinski           : DLPNO-MP2
   Christoph Reimann      : Effective Core Potentials
   Marius Retegan         : Local ZFS, SOC
   Christoph Riplinger    : Optimizer, TS searches, QM/MM, DLPNO-CCSD(T), (RO)-DLPNO pert. Triples
   Tobias Risthaus        : Range-separated hybrids, TD-DFT gradient, RPA, STAB
   Michael Roemelt        : Restricted open shell CIS
   Masaaki Saitow         : Open-shell DLPNO
   Barbara Sandhoefer     : DKH picture change effects
   Kantharuban Sivalingam : CASSCF convergence, NEVPT2, FIC-MRCI
   Georgi Stoychev        : AutoAux
   Boris Wezisla          : Elementary symmetry handling
   Frank Wennmohs         : Technical directorship


 We gratefully acknowledge several colleagues who have allowed us to
 interface, adapt or use parts of their codes:
   Stefan Grimme, W. Hujo, H. Kruse,             : VdW corrections, initial TS optimization,
                  C. Bannwarth                     DFT functionals, gCP, sTDA/sTD-DF
   Ed Valeev                                     : LibInt (2-el integral package), F12 methods
   Garnet Chan, S. Sharma, J. Yang, R. Olivares  : DMRG
   Ulf Ekstrom                                   : XCFun DFT Library
   Mihaly Kallay                                 : mrcc  (arbitrary order and MRCC methods)
   Jiri Pittner, Ondrej Demel                    : Mk-CCSD
   Frank Weinhold                                : gennbo (NPA and NBO analysis)
   Christopher J. Cramer and Donald G. Truhlar   : smd solvation model


 Your calculation uses the libint2 library for the computation of 2-el integrals
 For citations please refer to: http://libint.valeyev.net

 This ORCA versions uses:
   CBLAS   interface :  Fast vector & matrix operations
   LAPACKE interface :  Fast linear algebra routines
   SCALAPACK package :  Parallel linear algebra routines


Your calculation utilizes the atom-pairwise dispersion correction
with the zero-damping scheme (D30)
Cite in your paper:
S.Grimme, J.Antony, S.Ehrlich and H.Krieg, J.Chem.Phys., 132, (2010), 154104 
   

XCFun DFT library Copyright 2009-2010 Ulf Ekstrom and contributors.
See http://admol.org/xcfun for more information. This is free soft-
ware; see the source code for copying conditions. There is ABSOLUTELY
NO WARRANTY; not even for MERCHANTABILITY or FITNESS FOR A PARTICULAR
PURPOSE. For details see the documentation. Scientific users of this 
library should cite U. Ekstrom, L. Visscher, R. Bast, A. J. Thorvald-
sen and K. Ruud; J.Chem.Theor.Comp. 2010, DOI: 10.1021/ct100117s
XCFun Version 0.99 
Your calculation utilizes the basis: 6-31G(d)
   H-He, Li-Ne : W. J. Hehre, R. Ditchfield and J.A. Pople, J. Chem. Phys. 56, 2257 (1972).
                 Note: He and Ne are unpublished basis sets taken from the Gaussian program.
                 Note: Li and B from J. D. Dill and J. A. Pople, J. Chem. Phys. 62, 2921 (1975).
   Na - Ar     : M. M. Francl, W. J. Pietro, W. J. Hehre, J. S. Binkley, M. S. Gordon, 
                 D. J. DeFrees and J. A. Pople, J. Chem. Phys. 77, 3654 (1982).
   K - Zn      : V. A. Rassolov, J. A. Pople, M. A. Ratner, and T. L. Windus, J. Chem. Phys. 109, 1223 (1998).

================================================================================
                                        WARNINGS
                       Please study these warnings very carefully!
================================================================================

Warning: TCutStore was < 0. Adjusted to Thresh (uncritical)

INFO   : the flag for use of LIBINT has been found!

================================================================================
                                       INPUT FILE
================================================================================
NAME = initial31.inp
|  1> ! WB97X-D3 6-31G(d) VerySlowConv
|  2> ! KDIIS NOSOSCF
|  3> %base "Scan_31"
|  4> 
|  5> %scf
|  6> maxiter 999
|  7> end
|  8> 
|  9> * xyz 0 1
| 10> C         -2.747891954373    0.986486113043    0.328910118835
| 11> C          0.710091628116    1.564023899243   -0.328871200443
| 12> H         -2.743800128937    0.624342344432   -0.685967076711
| 13> H         -2.751316957846    2.046401328125    0.523097080354
| 14> H          0.713582240487    0.504131569933   -0.523139567932
| 15> H          0.706065172553    1.926244745225    0.685970645896
| 16> **                         ****END OF INPUT****
================================================================================

                       ****************************
                       * Single Point Calculation *
                       ****************************

---------------------------------
CARTESIAN COORDINATES (ANGSTROEM)
---------------------------------
  C     -2.747892    0.986486    0.328910
  C      0.710092    1.564024   -0.328871
  H     -2.743800    0.624342   -0.685967
  H     -2.751317    2.046401    0.523097
  H      0.713582    0.504132   -0.523140
  H      0.706065    1.926245    0.685971

----------------------------
CARTESIAN COORDINATES (A.U.)
----------------------------
  NO LB      ZA    FRAG     MASS         X           Y           Z
   0 C     6.0000    0    12.011   -5.192763    1.864189    0.621550
   1 C     6.0000    0    12.011    1.341879    2.955577   -0.621477
   2 H     1.0000    0     1.008   -5.185031    1.179836   -1.296290
   3 H     1.0000    0     1.008   -5.199236    3.867138    0.988510
   4 H     1.0000    0     1.008    1.348475    0.952671   -0.988591
   5 H     1.0000    0     1.008    1.334270    3.640075    1.296297

--------------------------------
INTERNAL COORDINATES (ANGSTROEM)
--------------------------------
 C      0   0   0     0.000000000000     0.00000000     0.00000000
 C      1   0   0     3.567054333094     0.00000000     0.00000000
 H      1   2   0     1.077562329621    82.93792580     0.00000000
 H      1   2   3     1.077562327587    82.93792714   238.44364207
 H      2   1   3     1.077554700566    82.94228745   301.56002025
 H      2   1   3     1.077554697771    82.94228872   179.99633754

---------------------------
INTERNAL COORDINATES (A.U.)
---------------------------
 C      0   0   0     0.000000000000     0.00000000     0.00000000
 C      1   0   0     6.740755794364     0.00000000     0.00000000
 H      1   2   0     2.036297695214    82.93792580     0.00000000
 H      1   2   3     2.036297691371    82.93792714   238.44364207
 H      2   1   3     2.036283278389    82.94228745   301.56002025
 H      2   1   3     2.036283273108    82.94228872   179.99633754

---------------------
BASIS SET INFORMATION
---------------------
There are 2 groups of distinct atoms

 Group   1 Type C   : 10s4p1d contracted to 3s2p1d pattern {631/31/1}
 Group   2 Type H   : 4s contracted to 2s pattern {31}

Atom   0C    basis set group =>   1
Atom   1C    basis set group =>   1
Atom   2H    basis set group =>   2
Atom   3H    basis set group =>   2
Atom   4H    basis set group =>   2
Atom   5H    basis set group =>   2
------------------------------------------------------------------------------
                           ORCA GTO INTEGRAL CALCULATION
------------------------------------------------------------------------------

                         BASIS SET STATISTICS AND STARTUP INFO

 # of primitive gaussian shells          ...   46
 # of primitive gaussian functions       ...   70
 # of contracted shells                  ...   20
 # of contracted basis functions         ...   36
 Highest angular momentum                ...    2
 Maximum contraction depth               ...    6
 Integral package used                   ... LIBINT
 Integral threshhold            Thresh   ...  1.000e-10
 Primitive cut-off              TCut     ...  1.000e-11


------------------------------ INTEGRAL EVALUATION ----------------------------


 * One electron integrals 
 Pre-screening matrix                    ... done
 Shell pair data                         ... done (   0.008 sec)

-------------------------------------------------------------------------------
                                 ORCA SCF
-------------------------------------------------------------------------------

------------
SCF SETTINGS
------------
Hamiltonian:
 Density Functional     Method          .... DFT(GTOs)
 Exchange Functional    Exchange        .... WB97X-D3
 Correlation Functional Correlation     .... WB97X-D3
 Gradients option       PostSCFGGA      .... off
 Hybrid DFT is turned on
   Fraction HF Exchange ScalHFX         ....  0.195728
   Scaling of DF-GGA-X  ScalDFX         ....  0.000000
   Scaling of DF-GGA-C  ScalDFC         ....  1.000000
   Scaling of DF-LDA-C  ScalLDAC        ....  1.000000
   Perturbative correction              ....  0.000000
 Long-range corrected/Screened/Range-Separated Hybrid DFT is turned on
   Amount of maximum screened exact exchange              ....  0.804272
   Range separation parameter mu (erf(mu*r12)/r12)        ....  0.250000


General Settings:
 Integral files         IntName         .... Scan_31
 Hartree-Fock type      HFTyp           .... RHF
 Total Charge           Charge          ....    0
 Multiplicity           Mult            ....    1
 Number of Electrons    NEL             ....   16
 Basis Dimension        Dim             ....   36
 Nuclear Repulsion      ENuc            ....     21.7989221257 Eh

Convergence Acceleration:
 DIIS                   CNVDIIS         .... on
   Start iteration      DIISMaxIt       ....     0
   Startup error        DIISStart       ....  0.200000
   # of expansion vecs  DIISMaxEq       ....     5
   Bias factor          DIISBfac        ....   1.050
   Max. coefficient     DIISMaxC        ....  10.000
 Newton-Raphson         CNVNR           .... off
 SOSCF                  CNVSOSCF        .... off
 Level Shifting         CNVShift        .... off
 Zerner damping         CNVZerner       .... off
 Static damping         CNVDamp         .... off
 Fernandez-Rico         CNVRico         .... off

SCF Procedure:
 Maximum # iterations   MaxIter         ....   999
 SCF integral mode      SCFMode         .... Direct
   Integral package                     .... LIBINT
 Reset frequeny         DirectResetFreq ....    20
 Integral Threshold     Thresh          ....  1.000e-10 Eh
 Primitive CutOff       TCut            ....  1.000e-11 Eh

Convergence Tolerance:
 Convergence Check Mode ConvCheckMode   .... All-Criteria
 Convergence forced     ConvForced      .... 0
 Energy Change          TolE            ....  1.000e-06 Eh
 Max Density Change     TolMaxP         ....  1.000e-05
 RMS Density Change     TolRMSP         ....  1.000e-06
 DIIS Error             TolErr          ....  1.000e-06


Diagonalization of the overlap matrix:
Smallest eigenvalue                        ... 3.417e-02
Time for diagonalization                   ...    0.001 sec
Threshold for overlap eigenvalues          ... 1.000e-08
Number of eigenvalues below threshold      ... 0
Time for construction of square roots      ...    0.009 sec
Total time needed                          ...    0.010 sec

-------------------
DFT GRID GENERATION
-------------------

General Integration Accuracy     IntAcc      ...  4.340
Radial Grid Type                 RadialGrid  ... Gauss-Chebyshev
Angular Grid (max. acc.)         AngularGrid ... Lebedev-110
Angular grid pruning method      GridPruning ... 3 (G Style)
Weight generation scheme         WeightScheme... Becke
Basis function cutoff            BFCut       ...    1.0000e-10
Integration weight cutoff        WCut        ...    1.0000e-14
Grids for H and He will be reduced by one unit

# of grid points (after initial pruning)     ...   6488 (   0.0 sec)
# of grid points (after weights+screening)   ...   6374 (   0.0 sec)
nearest neighbour list constructed           ...    0.0 sec
Grid point re-assignment to atoms done       ...    0.0 sec
Grid point division into batches done        ...    0.0 sec
Reduced shell lists constructed in    0.1 sec

Total number of grid points                  ...     6374
Total number of batches                      ...      104
Average number of points per batch           ...       61
Average number of grid points per atom       ...     1062
Average number of shells per batch           ...    15.87 (79.33%)
Average number of basis functions per batch  ...    28.46 (79.05%)
Average number of large shells per batch     ...    13.18 (83.07%)
Average number of large basis fcns per batch ...    23.24 (81.66%)
Maximum spatial batch extension              ...  19.62, 20.93, 21.59 au
Average spatial batch extension              ...   5.30,  4.87,  5.05 au

Time for grid setup =    0.200 sec

------------------------------
INITIAL GUESS: MODEL POTENTIAL
------------------------------
Loading Hartree-Fock densities                     ... done
Calculating cut-offs                               ... done
Setting up the integral package                    ... done
Initializing the effective Hamiltonian             ... done
Starting the Coulomb interaction                   ... done (   0.0 sec)
Reading the grid                                   ... done
Mapping shells                                     ... done
Starting the XC term evaluation                    ... done (   0.1 sec)
  promolecular density results
     # of electrons  =     15.998770390
     EX              =    -11.195084343
     EC              =     -0.449722411
     EX+EC           =    -11.644806754
Transforming the Hamiltonian                       ... done (   0.0 sec)
Diagonalizing the Hamiltonian                      ... done (   0.0 sec)
Back transforming the eigenvectors                 ... done (   0.0 sec)
Now organizing SCF variables                       ... done
                      ------------------
                      INITIAL GUESS DONE (   0.4 sec)
                      ------------------
--------------
SCF ITERATIONS
--------------
ITER       Energy         Delta-E        Max-DP      RMS-DP      [F,P]   Gradient Norm
               ***  Starting incremental Fock matrix formation  ***
                             ****Resetting KDIIS****
                             ****Turning on KDIIS(Cayley)****
  0    -78.1812484680   0.000000000000 0.01226555  0.00105482  0.0499326   0.048720896
  1    -78.1874241167  -0.006175648716 0.01310036  0.00126246  0.0429869   0.042007582
  2    -78.1936504309  -0.006226314241 0.02172957  0.00211542  0.0347872   0.033931599
  3    -78.2011222291  -0.007471798181 0.03273831  0.00324273  0.0210548   0.020526805
  4    -78.2054434551  -0.004321225997 0.00234150  0.00023213  0.0003810   0.000273706
  5    -78.2054495618  -0.000006106670 0.00045688  0.00005354  0.0003979   0.000303428
  6    -78.2054512933  -0.000001731561 0.00084051  0.00009840  0.0002342   0.000183336
  7    -78.2054527549  -0.000001461562 0.00037653  0.00003784  0.0000463   0.000031508
                          ***Energy convergence achieved***
  8    -78.2054528369  -0.000000081979 0.00006404  0.00000499  0.0000074   0.000008166
                           ***RMSP convergence achieved***
                           ***MAXP convergence achieved***
                    *** KDIIS BlockDiag ( 0.001 sec) ***

               *****************************************************
               *                     SUCCESS                       *
               *           SCF CONVERGED AFTER   9 CYCLES          *
               *****************************************************

Setting up the final grid:

General Integration Accuracy     IntAcc      ...  4.670
Radial Grid Type                 RadialGrid  ... Gauss-Chebyshev
Angular Grid (max. acc.)         AngularGrid ... Lebedev-302
Angular grid pruning method      GridPruning ... 3 (G Style)
Weight generation scheme         WeightScheme... Becke
Basis function cutoff            BFCut       ...    1.0000e-10
Integration weight cutoff        WCut        ...    1.0000e-14
Grids for H and He will be reduced by one unit

# of grid points (after initial pruning)     ...  26000 (   0.0 sec)
# of grid points (after weights+screening)   ...  25464 (   0.0 sec)
nearest neighbour list constructed           ...    0.0 sec
Grid point re-assignment to atoms done       ...    0.0 sec
Grid point division into batches done        ...    0.2 sec
Reduced shell lists constructed in    0.4 sec

Total number of grid points                  ...    25464
Total number of batches                      ...      400
Average number of points per batch           ...       63
Average number of grid points per atom       ...     4244
Average number of shells per batch           ...    14.15 (70.74%)
Average number of basis functions per batch  ...    25.26 (70.16%)
Average number of large shells per batch     ...    11.82 (83.55%)
Average number of large basis fcns per batch ...    20.71 (81.98%)
Maximum spatial batch extension              ...  20.27, 20.64, 19.40 au
Average spatial batch extension              ...   3.36,  3.33,  3.31 au

Final grid set up in    0.4 sec
Final integration                            ... done (   0.6 sec)
Change in XC energy                          ...     0.001366346
Integrated number of electrons               ...    15.999984433
Previous integrated no of electrons          ...    16.002342335

----------------
TOTAL SCF ENERGY
----------------

Total Energy       :          -78.20408649 Eh           -2128.04138 eV

Components:
Nuclear Repulsion  :           21.79892213 Eh             593.17883 eV
Electronic Energy  :         -100.00300862 Eh           -2721.22021 eV
One Electron Energy:         -146.67996860 Eh           -3991.36486 eV
Two Electron Energy:           46.67695998 Eh            1270.14465 eV

Virial components:
Potential Energy   :         -156.15322334 Eh           -4249.14523 eV
Kinetic Energy     :           77.94913684 Eh            2121.10385 eV
Virial Ratio       :            2.00327072


DFT components:
N(Alpha)           :        7.999992216262 electrons
N(Beta)            :        7.999992216262 electrons
N(Total)           :       15.999984432524 electrons
E(XC)              :       -8.146389132660 Eh       

---------------
SCF CONVERGENCE
---------------

  Last Energy change         ...   -1.3301e-09  Tolerance :   1.0000e-06
  Last MAX-Density change    ...    5.5556e-06  Tolerance :   1.0000e-05
  Last RMS-Density change    ...    6.5387e-07  Tolerance :   1.0000e-06
  Last DIIS Error            ...    1.8093e-06  Tolerance :   1.0000e-06

             **** THE GBW FILE WAS UPDATED (Scan_31.gbw) ****
             **** DENSITY FILE WAS UPDATED (Scan_31.scfp.tmp) ****
             **** ENERGY FILE WAS UPDATED (Scan_31.en.tmp) ****
----------------
ORBITAL ENERGIES
----------------

  NO   OCC          E(Eh)            E(eV) 
   0   2.0000     -10.337537      -281.2987 
   1   2.0000     -10.337513      -281.2980 
   2   2.0000      -0.780366       -21.2348 
   3   2.0000      -0.774931       -21.0869 
   4   2.0000      -0.543155       -14.7800 
   5   2.0000      -0.539443       -14.6790 
   6   2.0000      -0.316902        -8.6234 
   7   2.0000      -0.311245        -8.4694 
   8   0.0000      -0.042142        -1.1467 
   9   0.0000      -0.004899        -0.1333 
  10   0.0000       0.199694         5.4339 
  11   0.0000       0.221745         6.0340 
  12   0.0000       0.272961         7.4277 
  13   0.0000       0.278081         7.5670 
  14   0.0000       0.582160        15.8414 
  15   0.0000       0.641894        17.4668 
  16   0.0000       0.643046        17.4982 
  17   0.0000       0.669427        18.2160 
  18   0.0000       0.676885        18.4190 
  19   0.0000       0.715187        19.4612 
  20   0.0000       0.753543        20.5049 
  21   0.0000       0.887516        24.1505 
  22   0.0000       1.014756        27.6129 
  23   0.0000       1.016705        27.6659 
  24   0.0000       1.021418        27.7942 
  25   0.0000       1.059562        28.8321 
  26   0.0000       1.742173        47.4069 
  27   0.0000       1.742245        47.4089 
  28   0.0000       1.788261        48.6611 
  29   0.0000       1.788272        48.6614 
  30   0.0000       1.791791        48.7571 
  31   0.0000       1.793533        48.8045 
  32   0.0000       2.171121        59.0792 
  33   0.0000       2.188263        59.5457 
  34   0.0000       2.299597        62.5752 
  35   0.0000       2.322204        63.1904 

                    ********************************
                    * MULLIKEN POPULATION ANALYSIS *
                    ********************************

-----------------------
MULLIKEN ATOMIC CHARGES
-----------------------
   0 C :   -0.349409
   1 C :   -0.349429
   2 H :    0.174743
   3 H :    0.174666
   4 H :    0.174676
   5 H :    0.174753
Sum of atomic charges:    0.0000000

--------------------------------
MULLIKEN REDUCED ORBITAL CHARGES
--------------------------------
  0 C s       :     3.681561  s :     3.681561
      pz      :     1.373665  p :     2.645196
      px      :     0.000556
      py      :     1.270975
      dz2     :     0.013220  d :     0.022652
      dxz     :     0.000002
      dyz     :     0.001201
      dx2y2   :     0.008228
      dxy     :     0.000002
  1 C s       :     3.681512  s :     3.681512
      pz      :     1.373704  p :     2.645267
      px      :     0.000562
      py      :     1.271001
      dz2     :     0.013218  d :     0.022650
      dxz     :     0.000002
      dyz     :     0.001202
      dx2y2   :     0.008227
      dxy     :     0.000002
  2 H s       :     0.825257  s :     0.825257
  3 H s       :     0.825334  s :     0.825334
  4 H s       :     0.825324  s :     0.825324
  5 H s       :     0.825247  s :     0.825247


                     *******************************
                     * LOEWDIN POPULATION ANALYSIS *
                     *******************************

----------------------
LOEWDIN ATOMIC CHARGES
----------------------
   0 C :   -0.254368
   1 C :   -0.254386
   2 H :    0.127275
   3 H :    0.127093
   4 H :    0.127102
   5 H :    0.127284

-------------------------------
LOEWDIN REDUCED ORBITAL CHARGES
-------------------------------
  0 C s       :     3.423722  s :     3.423722
      pz      :     1.445767  p :     2.798387
      px      :     0.000781
      py      :     1.351839
      dz2     :     0.018628  d :     0.032259
      dxz     :     0.000002
      dyz     :     0.002479
      dx2y2   :     0.011149
      dxy     :     0.000002
  1 C s       :     3.423681  s :     3.423681
      pz      :     1.445800  p :     2.798448
      px      :     0.000787
      py      :     1.351862
      dz2     :     0.018625  d :     0.032256
      dxz     :     0.000002
      dyz     :     0.002480
      dx2y2   :     0.011147
      dxy     :     0.000002
  2 H s       :     0.872725  s :     0.872725
  3 H s       :     0.872907  s :     0.872907
  4 H s       :     0.872898  s :     0.872898
  5 H s       :     0.872716  s :     0.872716


                      *****************************
                      * MAYER POPULATION ANALYSIS *
                      *****************************

  NA   - Mulliken gross atomic population
  ZA   - Total nuclear charge
  QA   - Mulliken gross atomic charge
  VA   - Mayer's total valence
  BVA  - Mayer's bonded valence
  FA   - Mayer's free valence

  ATOM       NA         ZA         QA         VA         BVA        FA
  0 C      6.3494     6.0000    -0.3494     1.8453     1.8453     0.0000
  1 C      6.3494     6.0000    -0.3494     1.8453     1.8453    -0.0000
  2 H      0.8253     1.0000     0.1747     0.9239     0.9239     0.0000
  3 H      0.8253     1.0000     0.1747     0.9243     0.9243     0.0000
  4 H      0.8253     1.0000     0.1747     0.9243     0.9243    -0.0000
  5 H      0.8252     1.0000     0.1748     0.9239     0.9239    -0.0000

  Mayer bond orders larger than 0.1
B(  0-C ,  2-H ) :   0.9218 B(  0-C ,  3-H ) :   0.9223 B(  1-C ,  4-H ) :   0.9223 
B(  1-C ,  5-H ) :   0.9218 

-------
TIMINGS
-------

Total SCF time: 0 days 0 hours 0 min 9 sec 

Total time                  ....       9.333 sec
Sum of individual times     ....       8.829 sec  ( 94.6%)

Fock matrix formation       ....       7.778 sec  ( 83.3%)
  XC integration            ....       2.991 sec  ( 38.5% of F)
    Basis function eval.    ....       0.948 sec  ( 31.7% of XC)
    Density eval.           ....       0.068 sec  (  2.3% of XC)
    XC-Functional eval.     ....       0.879 sec  ( 29.4% of XC)
    XC-Potential eval.      ....       0.160 sec  (  5.4% of XC)
Diagonalization             ....       0.196 sec  (  2.1%)
Density matrix formation    ....       0.000 sec  (  0.0%)
Population analysis         ....       0.019 sec  (  0.2%)
Initial guess               ....       0.202 sec  (  2.2%)
Orbital Transformation      ....       0.000 sec  (  0.0%)
Orbital Orthonormalization  ....       0.000 sec  (  0.0%)
DIIS solution               ....       0.000 sec  (  0.0%)
Grid generation             ....       0.633 sec  (  6.8%)


-------------------------------------------------------------------------------
                          DFT DISPERSION CORRECTION                            
                                                                               
                              DFTD3 V3.1  Rev 1                                
                              USING zero damping                               
-------------------------------------------------------------------------------
The omegaB97X-D3 functional is recognized. Fit by Chai et al.
Active option DFTDOPT                   ...         3   

molecular C6(AA) [au] = 320.301556 


            DFT-D V3
 parameters
 s6 scaling factor         :     1.0000 
 rs6 scaling factor        :     1.2810 
 s8 scaling factor         :     1.0000 
 rs8 scaling factor        :     1.0940 
 Damping factor alpha6     :    14.0000 
 Damping factor alpha8     :    16.0000 
 ad hoc parameters k1-k3   :    16.0000     1.3333    -4.0000 

 Edisp/kcal,au: -0.388376509883  -0.000618917298 
 E6   /kcal   :  -0.206264518 
 E8   /kcal   :  -0.182111992 
 % E8         :  46.890578430 

-------------------------   ----------------
Dispersion correction           -0.000618917
-------------------------   ----------------


-------------------------   --------------------
FINAL SINGLE POINT ENERGY       -78.204705409902
-------------------------   --------------------


                            ***************************************
                            *     ORCA property calculations      *
                            ***************************************

                                    ---------------------
                                    Active property flags
                                    ---------------------
   (+) Dipole Moment


------------------------------------------------------------------------------
                       ORCA ELECTRIC PROPERTIES CALCULATION
------------------------------------------------------------------------------

Dipole Moment Calculation                       ... on
Quadrupole Moment Calculation                   ... off
Polarizability Calculation                      ... off
GBWName                                         ... Scan_31.gbw
Electron density file                           ... Scan_31.scfp.tmp

-------------
DIPOLE MOMENT
-------------
                                X             Y             Z
Electronic contribution:     -0.00001      -0.00006       0.00007
Nuclear contribution   :      0.00011       0.00008      -0.00009
                        -----------------------------------------
Total Dipole Moment    :      0.00010       0.00002      -0.00002
                        -----------------------------------------
Magnitude (a.u.)       :      0.00010
Magnitude (Debye)      :      0.00026


Timings for individual modules:

Sum of individual times         ...       10.368 sec (=   0.173 min)
GTO integral calculation        ...        0.796 sec (=   0.013 min)   7.7 %
SCF iterations                  ...        9.572 sec (=   0.160 min)  92.3 %
                             ****ORCA TERMINATED NORMALLY****
TOTAL RUN TIME: 0 days 0 hours 0 minutes 11 seconds 430 msec
