
                                 *****************
                                 * O   R   C   A *
                                 *****************

           --- An Ab Initio, DFT and Semiempirical electronic structure package ---

                  #######################################################
                  #                        -***-                        #
                  #  Department of molecular theory and spectroscopy    #
                  #              Directorship: Frank Neese              #
                  # Max Planck Institute for Chemical Energy Conversion #
                  #                  D-45470 Muelheim/Ruhr              #
                  #                       Germany                       #
                  #                                                     #
                  #                  All rights reserved                #
                  #                        -***-                        #
                  #######################################################


                         Program Version 4.0.0.2 - RELEASE -


 With contributions from (in alphabetic order):
   Daniel Aravena         : Magnetic Properties
   Michael Atanasov       : Ab Initio Ligand Field Theory
   Ute Becker             : Parallelization
   Martin Brehm           : Molecular dynamics
   Dmytro Bykov           : SCF Hessian
   Vijay G. Chilkuri      : MRCI spin determinant printing
   Dipayan Datta          : RHF DLPNO-CCSD density
   Achintya Kumar Dutta   : EOM-CC, STEOM-CC
   Dmitry Ganyushin       : Spin-Orbit,Spin-Spin,Magnetic field MRCI
   Yang Guo               : DLPNO-NEVPT2, CIM, IAO-localization
   Andreas Hansen         : Spin unrestricted coupled pair/coupled cluster methods
   Lee Huntington         : MR-EOM, pCC
   Robert Izsak           : Overlap fitted RIJCOSX, COSX-SCS-MP3, EOM
   Christian Kollmar      : KDIIS, OOCD, Brueckner-CCSD(T), CCSD density
   Simone Kossmann        : Meta GGA functionals, TD-DFT gradient, OOMP2, MP2 Hessian
   Martin Krupicka        : AUTO-CI
   Dagmar Lenk            : GEPOL surface
   Dimitrios Liakos       : Extrapolation schemes; parallel MDCI
   Dimitrios Manganas     : ROCIS; embedding schemes
   Dimitrios Pantazis     : SARC Basis sets
   Taras Petrenko         : DFT Hessian,TD-DFT gradient, ASA, ECA, R-Raman, ABS, FL, XAS/XES, NRVS
   Peter Pinski           : DLPNO-MP2
   Christoph Reimann      : Effective Core Potentials
   Marius Retegan         : Local ZFS, SOC
   Christoph Riplinger    : Optimizer, TS searches, QM/MM, DLPNO-CCSD(T), (RO)-DLPNO pert. Triples
   Tobias Risthaus        : Range-separated hybrids, TD-DFT gradient, RPA, STAB
   Michael Roemelt        : Restricted open shell CIS
   Masaaki Saitow         : Open-shell DLPNO
   Barbara Sandhoefer     : DKH picture change effects
   Kantharuban Sivalingam : CASSCF convergence, NEVPT2, FIC-MRCI
   Georgi Stoychev        : AutoAux
   Boris Wezisla          : Elementary symmetry handling
   Frank Wennmohs         : Technical directorship


 We gratefully acknowledge several colleagues who have allowed us to
 interface, adapt or use parts of their codes:
   Stefan Grimme, W. Hujo, H. Kruse,             : VdW corrections, initial TS optimization,
                  C. Bannwarth                     DFT functionals, gCP, sTDA/sTD-DF
   Ed Valeev                                     : LibInt (2-el integral package), F12 methods
   Garnet Chan, S. Sharma, J. Yang, R. Olivares  : DMRG
   Ulf Ekstrom                                   : XCFun DFT Library
   Mihaly Kallay                                 : mrcc  (arbitrary order and MRCC methods)
   Jiri Pittner, Ondrej Demel                    : Mk-CCSD
   Frank Weinhold                                : gennbo (NPA and NBO analysis)
   Christopher J. Cramer and Donald G. Truhlar   : smd solvation model


 Your calculation uses the libint2 library for the computation of 2-el integrals
 For citations please refer to: http://libint.valeyev.net

 This ORCA versions uses:
   CBLAS   interface :  Fast vector & matrix operations
   LAPACKE interface :  Fast linear algebra routines
   SCALAPACK package :  Parallel linear algebra routines


Your calculation utilizes the atom-pairwise dispersion correction
with the zero-damping scheme (D30)
Cite in your paper:
S.Grimme, J.Antony, S.Ehrlich and H.Krieg, J.Chem.Phys., 132, (2010), 154104 
   

XCFun DFT library Copyright 2009-2010 Ulf Ekstrom and contributors.
See http://admol.org/xcfun for more information. This is free soft-
ware; see the source code for copying conditions. There is ABSOLUTELY
NO WARRANTY; not even for MERCHANTABILITY or FITNESS FOR A PARTICULAR
PURPOSE. For details see the documentation. Scientific users of this 
library should cite U. Ekstrom, L. Visscher, R. Bast, A. J. Thorvald-
sen and K. Ruud; J.Chem.Theor.Comp. 2010, DOI: 10.1021/ct100117s
XCFun Version 0.99 
Your calculation utilizes the basis: 6-31G(d)
   H-He, Li-Ne : W. J. Hehre, R. Ditchfield and J.A. Pople, J. Chem. Phys. 56, 2257 (1972).
                 Note: He and Ne are unpublished basis sets taken from the Gaussian program.
                 Note: Li and B from J. D. Dill and J. A. Pople, J. Chem. Phys. 62, 2921 (1975).
   Na - Ar     : M. M. Francl, W. J. Pietro, W. J. Hehre, J. S. Binkley, M. S. Gordon, 
                 D. J. DeFrees and J. A. Pople, J. Chem. Phys. 77, 3654 (1982).
   K - Zn      : V. A. Rassolov, J. A. Pople, M. A. Ratner, and T. L. Windus, J. Chem. Phys. 109, 1223 (1998).

================================================================================
                                        WARNINGS
                       Please study these warnings very carefully!
================================================================================

Warning: TCutStore was < 0. Adjusted to Thresh (uncritical)

INFO   : the flag for use of LIBINT has been found!

================================================================================
                                       INPUT FILE
================================================================================
NAME = initial32.inp
|  1> ! WB97X-D3 6-31G(d) VerySlowConv
|  2> ! KDIIS NOSOSCF
|  3> %base "Scan_32"
|  4> 
|  5> %scf
|  6> maxiter 999
|  7> end
|  8> 
|  9> * xyz 0 1
| 10> C         -2.800144595187    0.984581706881    0.330825157570
| 11> C          0.762409037792    1.565958925934   -0.330821856391
| 12> H         -2.754676418428    0.621251821091   -0.682508031916
| 13> H         -2.762193819228    2.043417697705    0.526647008511
| 14> H          0.724426579297    0.507126009543   -0.526649479994
| 15> H          0.716909215753    1.929293838845    0.682507202220
| 16> **                         ****END OF INPUT****
================================================================================

                       ****************************
                       * Single Point Calculation *
                       ****************************

---------------------------------
CARTESIAN COORDINATES (ANGSTROEM)
---------------------------------
  C     -2.800145    0.984582    0.330825
  C      0.762409    1.565959   -0.330822
  H     -2.754676    0.621252   -0.682508
  H     -2.762194    2.043418    0.526647
  H      0.724427    0.507126   -0.526649
  H      0.716909    1.929294    0.682507

----------------------------
CARTESIAN COORDINATES (A.U.)
----------------------------
  NO LB      ZA    FRAG     MASS         X           Y           Z
   0 C     6.0000    0    12.011   -5.291506    1.860590    0.625169
   1 C     6.0000    0    12.011    1.440744    2.959234   -0.625163
   2 H     1.0000    0     1.008   -5.205584    1.173996   -1.289753
   3 H     1.0000    0     1.008   -5.219790    3.861500    0.995219
   4 H     1.0000    0     1.008    1.368968    0.958329   -0.995223
   5 H     1.0000    0     1.008    1.354762    3.645837    1.289752

--------------------------------
INTERNAL COORDINATES (ANGSTROEM)
--------------------------------
 C      0   0   0     0.000000000000     0.00000000     0.00000000
 C      1   0   0     3.669818064941     0.00000000     0.00000000
 H      1   2   0     1.077460028920    80.96089650     0.00000000
 H      1   2   3     1.077460029034    80.96089831   237.39773238
 H      2   1   3     1.077459173311    80.95931723   302.60295256
 H      2   1   3     1.077459174990    80.95931811   179.99931464

---------------------------
INTERNAL COORDINATES (A.U.)
---------------------------
 C      0   0   0     0.000000000000     0.00000000     0.00000000
 C      1   0   0     6.934951104056     0.00000000     0.00000000
 H      1   2   0     2.036104374905    80.96089650     0.00000000
 H      1   2   3     2.036104375121    80.96089831   237.39773238
 H      2   1   3     2.036102758039    80.95931723   302.60295256
 H      2   1   3     2.036102761213    80.95931811   179.99931464

---------------------
BASIS SET INFORMATION
---------------------
There are 2 groups of distinct atoms

 Group   1 Type C   : 10s4p1d contracted to 3s2p1d pattern {631/31/1}
 Group   2 Type H   : 4s contracted to 2s pattern {31}

Atom   0C    basis set group =>   1
Atom   1C    basis set group =>   1
Atom   2H    basis set group =>   2
Atom   3H    basis set group =>   2
Atom   4H    basis set group =>   2
Atom   5H    basis set group =>   2
------------------------------------------------------------------------------
                           ORCA GTO INTEGRAL CALCULATION
------------------------------------------------------------------------------

                         BASIS SET STATISTICS AND STARTUP INFO

 # of primitive gaussian shells          ...   46
 # of primitive gaussian functions       ...   70
 # of contracted shells                  ...   20
 # of contracted basis functions         ...   36
 Highest angular momentum                ...    2
 Maximum contraction depth               ...    6
 Integral package used                   ... LIBINT
 Integral threshhold            Thresh   ...  1.000e-10
 Primitive cut-off              TCut     ...  1.000e-11


------------------------------ INTEGRAL EVALUATION ----------------------------


 * One electron integrals 
 Pre-screening matrix                    ... done
 Shell pair data                         ... done (   0.000 sec)

-------------------------------------------------------------------------------
                                 ORCA SCF
-------------------------------------------------------------------------------

------------
SCF SETTINGS
------------
Hamiltonian:
 Density Functional     Method          .... DFT(GTOs)
 Exchange Functional    Exchange        .... WB97X-D3
 Correlation Functional Correlation     .... WB97X-D3
 Gradients option       PostSCFGGA      .... off
 Hybrid DFT is turned on
   Fraction HF Exchange ScalHFX         ....  0.195728
   Scaling of DF-GGA-X  ScalDFX         ....  0.000000
   Scaling of DF-GGA-C  ScalDFC         ....  1.000000
   Scaling of DF-LDA-C  ScalLDAC        ....  1.000000
   Perturbative correction              ....  0.000000
 Long-range corrected/Screened/Range-Separated Hybrid DFT is turned on
   Amount of maximum screened exact exchange              ....  0.804272
   Range separation parameter mu (erf(mu*r12)/r12)        ....  0.250000


General Settings:
 Integral files         IntName         .... Scan_32
 Hartree-Fock type      HFTyp           .... RHF
 Total Charge           Charge          ....    0
 Multiplicity           Mult            ....    1
 Number of Electrons    NEL             ....   16
 Basis Dimension        Dim             ....   36
 Nuclear Repulsion      ENuc            ....     21.5880102447 Eh

Convergence Acceleration:
 DIIS                   CNVDIIS         .... on
   Start iteration      DIISMaxIt       ....     0
   Startup error        DIISStart       ....  0.200000
   # of expansion vecs  DIISMaxEq       ....     5
   Bias factor          DIISBfac        ....   1.050
   Max. coefficient     DIISMaxC        ....  10.000
 Newton-Raphson         CNVNR           .... off
 SOSCF                  CNVSOSCF        .... off
 Level Shifting         CNVShift        .... off
 Zerner damping         CNVZerner       .... off
 Static damping         CNVDamp         .... off
 Fernandez-Rico         CNVRico         .... off

SCF Procedure:
 Maximum # iterations   MaxIter         ....   999
 SCF integral mode      SCFMode         .... Direct
   Integral package                     .... LIBINT
 Reset frequeny         DirectResetFreq ....    20
 Integral Threshold     Thresh          ....  1.000e-10 Eh
 Primitive CutOff       TCut            ....  1.000e-11 Eh

Convergence Tolerance:
 Convergence Check Mode ConvCheckMode   .... All-Criteria
 Convergence forced     ConvForced      .... 0
 Energy Change          TolE            ....  1.000e-06 Eh
 Max Density Change     TolMaxP         ....  1.000e-05
 RMS Density Change     TolRMSP         ....  1.000e-06
 DIIS Error             TolErr          ....  1.000e-06


Diagonalization of the overlap matrix:
Smallest eigenvalue                        ... 3.453e-02
Time for diagonalization                   ...    0.001 sec
Threshold for overlap eigenvalues          ... 1.000e-08
Number of eigenvalues below threshold      ... 0
Time for construction of square roots      ...    0.028 sec
Total time needed                          ...    0.029 sec

-------------------
DFT GRID GENERATION
-------------------

General Integration Accuracy     IntAcc      ...  4.340
Radial Grid Type                 RadialGrid  ... Gauss-Chebyshev
Angular Grid (max. acc.)         AngularGrid ... Lebedev-110
Angular grid pruning method      GridPruning ... 3 (G Style)
Weight generation scheme         WeightScheme... Becke
Basis function cutoff            BFCut       ...    1.0000e-10
Integration weight cutoff        WCut        ...    1.0000e-14
Grids for H and He will be reduced by one unit

# of grid points (after initial pruning)     ...   6488 (   0.0 sec)
# of grid points (after weights+screening)   ...   6374 (   0.0 sec)
nearest neighbour list constructed           ...    0.0 sec
Grid point re-assignment to atoms done       ...    0.0 sec
Grid point division into batches done        ...    0.0 sec
Reduced shell lists constructed in    0.0 sec

Total number of grid points                  ...     6374
Total number of batches                      ...      104
Average number of points per batch           ...       61
Average number of grid points per atom       ...     1062
Average number of shells per batch           ...    15.69 (78.43%)
Average number of basis functions per batch  ...    28.07 (77.96%)
Average number of large shells per batch     ...    13.13 (83.73%)
Average number of large basis fcns per batch ...    23.11 (82.35%)
Maximum spatial batch extension              ...  19.48, 20.93, 21.59 au
Average spatial batch extension              ...   5.33,  4.87,  4.96 au

Time for grid setup =    0.060 sec

------------------------------
INITIAL GUESS: MODEL POTENTIAL
------------------------------
Loading Hartree-Fock densities                     ... done
Calculating cut-offs                               ... done
Setting up the integral package                    ... done
Initializing the effective Hamiltonian             ... done
Starting the Coulomb interaction                   ... done (   0.0 sec)
Reading the grid                                   ... done
Mapping shells                                     ... done
Starting the XC term evaluation                    ... done (   0.1 sec)
  promolecular density results
     # of electrons  =     15.999425008
     EX              =    -11.195085890
     EC              =     -0.449555384
     EX+EC           =    -11.644641274
Transforming the Hamiltonian                       ... done (   0.0 sec)
Diagonalizing the Hamiltonian                      ... done (   0.0 sec)
Back transforming the eigenvectors                 ... done (   0.0 sec)
Now organizing SCF variables                       ... done
                      ------------------
                      INITIAL GUESS DONE (   0.3 sec)
                      ------------------
--------------
SCF ITERATIONS
--------------
ITER       Energy         Delta-E        Max-DP      RMS-DP      [F,P]   Gradient Norm
               ***  Starting incremental Fock matrix formation  ***
                             ****Resetting KDIIS****
                             ****Turning on KDIIS(Cayley)****
  0    -78.1806919918   0.000000000000 0.01221903  0.00105704  0.0492925   0.048876125
  1    -78.1869240589  -0.006232067154 0.01299521  0.00126691  0.0424197   0.042140981
  2    -78.1932144478  -0.006290388879 0.02157309  0.00213265  0.0343187   0.034049067
  3    -78.2007897693  -0.007575321456 0.03244723  0.00328512  0.0207495   0.020592336
  4    -78.2051733370  -0.004383567746 0.00192507  0.00017418  0.0003787   0.000254584
  5    -78.2051781751  -0.000004838102 0.00044863  0.00005381  0.0002159   0.000184473
  6    -78.2051797398  -0.000001564715 0.00095349  0.00010804  0.0001593   0.000099523
  7    -78.2051812381  -0.000001498210 0.00028892  0.00003306  0.0000424   0.000026405
                          ***Energy convergence achieved***
  8    -78.2051813118  -0.000000073776 0.00003768  0.00000351  0.0000066   0.000006889
                           ***RMSP convergence achieved***
                           ***MAXP convergence achieved***
                    *** KDIIS BlockDiag ( 0.001 sec) ***

               *****************************************************
               *                     SUCCESS                       *
               *           SCF CONVERGED AFTER   9 CYCLES          *
               *****************************************************

Setting up the final grid:

General Integration Accuracy     IntAcc      ...  4.670
Radial Grid Type                 RadialGrid  ... Gauss-Chebyshev
Angular Grid (max. acc.)         AngularGrid ... Lebedev-302
Angular grid pruning method      GridPruning ... 3 (G Style)
Weight generation scheme         WeightScheme... Becke
Basis function cutoff            BFCut       ...    1.0000e-10
Integration weight cutoff        WCut        ...    1.0000e-14
Grids for H and He will be reduced by one unit

# of grid points (after initial pruning)     ...  26000 (   0.0 sec)
# of grid points (after weights+screening)   ...  25454 (   0.0 sec)
nearest neighbour list constructed           ...    0.0 sec
Grid point re-assignment to atoms done       ...    0.0 sec
Grid point division into batches done        ...    0.1 sec
Reduced shell lists constructed in    0.2 sec

Total number of grid points                  ...    25454
Total number of batches                      ...      400
Average number of points per batch           ...       63
Average number of grid points per atom       ...     4242
Average number of shells per batch           ...    14.01 (70.05%)
Average number of basis functions per batch  ...    24.87 (69.09%)
Average number of large shells per batch     ...    11.72 (83.64%)
Average number of large basis fcns per batch ...    20.51 (82.46%)
Maximum spatial batch extension              ...  20.88, 20.81, 19.80 au
Average spatial batch extension              ...   3.36,  3.34,  3.28 au

Final grid set up in    0.3 sec
Final integration                            ... done (   0.5 sec)
Change in XC energy                          ...     0.001315157
Integrated number of electrons               ...    15.999983501
Previous integrated no of electrons          ...    16.002516035

----------------
TOTAL SCF ENERGY
----------------

Total Energy       :          -78.20386616 Eh           -2128.03539 eV

Components:
Nuclear Repulsion  :           21.58801024 Eh             587.43962 eV
Electronic Energy  :          -99.79187640 Eh           -2715.47501 eV
One Electron Energy:         -146.24849140 Eh           -3979.62377 eV
Two Electron Energy:           46.45661500 Eh            1264.14876 eV

Virial components:
Potential Energy   :         -156.15369398 Eh           -4249.15804 eV
Kinetic Energy     :           77.94982782 Eh            2121.12265 eV
Virial Ratio       :            2.00325900


DFT components:
N(Alpha)           :        7.999991750393 electrons
N(Beta)            :        7.999991750393 electrons
N(Total)           :       15.999983500786 electrons
E(XC)              :       -8.146233598868 Eh       

---------------
SCF CONVERGENCE
---------------

  Last Energy change         ...   -7.6092e-10  Tolerance :   1.0000e-06
  Last MAX-Density change    ...    7.1000e-06  Tolerance :   1.0000e-05
  Last RMS-Density change    ...    7.7624e-07  Tolerance :   1.0000e-06
  Last DIIS Error            ...    1.8435e-06  Tolerance :   1.0000e-06

             **** THE GBW FILE WAS UPDATED (Scan_32.gbw) ****
             **** DENSITY FILE WAS UPDATED (Scan_32.scfp.tmp) ****
             **** ENERGY FILE WAS UPDATED (Scan_32.en.tmp) ****
----------------
ORBITAL ENERGIES
----------------

  NO   OCC          E(Eh)            E(eV) 
   0   2.0000     -10.338085      -281.3136 
   1   2.0000     -10.338066      -281.3131 
   2   2.0000      -0.780798       -21.2466 
   3   2.0000      -0.776018       -21.1165 
   4   2.0000      -0.543732       -14.7957 
   5   2.0000      -0.540396       -14.7049 
   6   2.0000      -0.316641        -8.6162 
   7   2.0000      -0.312000        -8.4900 
   8   0.0000      -0.039847        -1.0843 
   9   0.0000      -0.008392        -0.2283 
  10   0.0000       0.199104         5.4179 
  11   0.0000       0.220561         6.0018 
  12   0.0000       0.270131         7.3506 
  13   0.0000       0.279235         7.5984 
  14   0.0000       0.582331        15.8460 
  15   0.0000       0.645000        17.5513 
  16   0.0000       0.645786        17.5727 
  17   0.0000       0.665454        18.1079 
  18   0.0000       0.673779        18.3345 
  19   0.0000       0.716874        19.5071 
  20   0.0000       0.754649        20.5350 
  21   0.0000       0.867851        23.6154 
  22   0.0000       1.011731        27.5306 
  23   0.0000       1.017426        27.6856 
  24   0.0000       1.023080        27.8394 
  25   0.0000       1.052434        28.6382 
  26   0.0000       1.741616        47.3918 
  27   0.0000       1.741656        47.3929 
  28   0.0000       1.787735        48.6467 
  29   0.0000       1.787795        48.6484 
  30   0.0000       1.791331        48.7446 
  31   0.0000       1.792443        48.7749 
  32   0.0000       2.168717        59.0138 
  33   0.0000       2.189574        59.5813 
  34   0.0000       2.300968        62.6125 
  35   0.0000       2.319243        63.1098 

                    ********************************
                    * MULLIKEN POPULATION ANALYSIS *
                    ********************************

-----------------------
MULLIKEN ATOMIC CHARGES
-----------------------
   0 C :   -0.347469
   1 C :   -0.347471
   2 H :    0.173776
   3 H :    0.173693
   4 H :    0.173694
   5 H :    0.173777
Sum of atomic charges:    0.0000000

--------------------------------
MULLIKEN REDUCED ORBITAL CHARGES
--------------------------------
  0 C s       :     3.681739  s :     3.681739
      pz      :     1.368059  p :     2.643049
      px      :     0.007694
      py      :     1.267295
      dz2     :     0.013143  d :     0.022682
      dxz     :     0.000097
      dyz     :     0.001204
      dx2y2   :     0.008156
      dxy     :     0.000082
  1 C s       :     3.681736  s :     3.681736
      pz      :     1.368054  p :     2.643053
      px      :     0.007707
      py      :     1.267292
      dz2     :     0.013142  d :     0.022681
      dxz     :     0.000097
      dyz     :     0.001204
      dx2y2   :     0.008155
      dxy     :     0.000082
  2 H s       :     0.826224  s :     0.826224
  3 H s       :     0.826307  s :     0.826307
  4 H s       :     0.826306  s :     0.826306
  5 H s       :     0.826223  s :     0.826223


                     *******************************
                     * LOEWDIN POPULATION ANALYSIS *
                     *******************************

----------------------
LOEWDIN ATOMIC CHARGES
----------------------
   0 C :   -0.253586
   1 C :   -0.253587
   2 H :    0.126870
   3 H :    0.126716
   4 H :    0.126717
   5 H :    0.126871

-------------------------------
LOEWDIN REDUCED ORBITAL CHARGES
-------------------------------
  0 C s       :     3.424082  s :     3.424082
      pz      :     1.440477  p :     2.797197
      px      :     0.008008
      py      :     1.348713
      dz2     :     0.018530  d :     0.032308
      dxz     :     0.000121
      dyz     :     0.002488
      dx2y2   :     0.011062
      dxy     :     0.000106
  1 C s       :     3.424080  s :     3.424080
      pz      :     1.440470  p :     2.797200
      px      :     0.008021
      py      :     1.348709
      dz2     :     0.018530  d :     0.032307
      dxz     :     0.000122
      dyz     :     0.002488
      dx2y2   :     0.011062
      dxy     :     0.000106
  2 H s       :     0.873130  s :     0.873130
  3 H s       :     0.873284  s :     0.873284
  4 H s       :     0.873283  s :     0.873283
  5 H s       :     0.873129  s :     0.873129


                      *****************************
                      * MAYER POPULATION ANALYSIS *
                      *****************************

  NA   - Mulliken gross atomic population
  ZA   - Total nuclear charge
  QA   - Mulliken gross atomic charge
  VA   - Mayer's total valence
  BVA  - Mayer's bonded valence
  FA   - Mayer's free valence

  ATOM       NA         ZA         QA         VA         BVA        FA
  0 C      6.3475     6.0000    -0.3475     1.8454     1.8454    -0.0000
  1 C      6.3475     6.0000    -0.3475     1.8454     1.8454     0.0000
  2 H      0.8262     1.0000     0.1738     0.9239     0.9239     0.0000
  3 H      0.8263     1.0000     0.1737     0.9244     0.9244     0.0000
  4 H      0.8263     1.0000     0.1737     0.9244     0.9244    -0.0000
  5 H      0.8262     1.0000     0.1738     0.9239     0.9239    -0.0000

  Mayer bond orders larger than 0.1
B(  0-C ,  2-H ) :   0.9217 B(  0-C ,  3-H ) :   0.9222 B(  1-C ,  4-H ) :   0.9222 
B(  1-C ,  5-H ) :   0.9217 

-------
TIMINGS
-------

Total SCF time: 0 days 0 hours 0 min 8 sec 

Total time                  ....       8.014 sec
Sum of individual times     ....       7.652 sec  ( 95.5%)

Fock matrix formation       ....       6.928 sec  ( 86.5%)
  XC integration            ....       2.379 sec  ( 34.3% of F)
    Basis function eval.    ....       0.683 sec  ( 28.7% of XC)
    Density eval.           ....       0.108 sec  (  4.5% of XC)
    XC-Functional eval.     ....       0.574 sec  ( 24.1% of XC)
    XC-Potential eval.      ....       0.063 sec  (  2.6% of XC)
Diagonalization             ....       0.074 sec  (  0.9%)
Density matrix formation    ....       0.000 sec  (  0.0%)
Population analysis         ....       0.012 sec  (  0.1%)
Initial guess               ....       0.271 sec  (  3.4%)
Orbital Transformation      ....       0.000 sec  (  0.0%)
Orbital Orthonormalization  ....       0.000 sec  (  0.0%)
DIIS solution               ....       0.000 sec  (  0.0%)
Grid generation             ....       0.367 sec  (  4.6%)


-------------------------------------------------------------------------------
                          DFT DISPERSION CORRECTION                            
                                                                               
                              DFTD3 V3.1  Rev 1                                
                              USING zero damping                               
-------------------------------------------------------------------------------
The omegaB97X-D3 functional is recognized. Fit by Chai et al.
Active option DFTDOPT                   ...         3   

molecular C6(AA) [au] = 320.304225 


            DFT-D V3
 parameters
 s6 scaling factor         :     1.0000 
 rs6 scaling factor        :     1.2810 
 s8 scaling factor         :     1.0000 
 rs8 scaling factor        :     1.0940 
 Damping factor alpha6     :    14.0000 
 Damping factor alpha8     :    16.0000 
 ad hoc parameters k1-k3   :    16.0000     1.3333    -4.0000 

 Edisp/kcal,au: -0.377456010721  -0.000601514377 
 E6   /kcal   :  -0.208766224 
 E8   /kcal   :  -0.168689787 
 % E8         :  44.691244052 

-------------------------   ----------------
Dispersion correction           -0.000601514
-------------------------   ----------------


-------------------------   --------------------
FINAL SINGLE POINT ENERGY       -78.204467670074
-------------------------   --------------------


                            ***************************************
                            *     ORCA property calculations      *
                            ***************************************

                                    ---------------------
                                    Active property flags
                                    ---------------------
   (+) Dipole Moment


------------------------------------------------------------------------------
                       ORCA ELECTRIC PROPERTIES CALCULATION
------------------------------------------------------------------------------

Dipole Moment Calculation                       ... on
Quadrupole Moment Calculation                   ... off
Polarizability Calculation                      ... off
GBWName                                         ... Scan_32.gbw
Electron density file                           ... Scan_32.scfp.tmp

-------------
DIPOLE MOMENT
-------------
                                X             Y             Z
Electronic contribution:      0.00001      -0.00000       0.00001
Nuclear contribution   :     -0.00005       0.00001      -0.00001
                        -----------------------------------------
Total Dipole Moment    :     -0.00004       0.00000      -0.00000
                        -----------------------------------------
Magnitude (a.u.)       :      0.00005
Magnitude (Debye)      :      0.00011


Timings for individual modules:

Sum of individual times         ...        9.098 sec (=   0.152 min)
GTO integral calculation        ...        0.999 sec (=   0.017 min)  11.0 %
SCF iterations                  ...        8.099 sec (=   0.135 min)  89.0 %
                             ****ORCA TERMINATED NORMALLY****
TOTAL RUN TIME: 0 days 0 hours 0 minutes 10 seconds 388 msec
