
                                 *****************
                                 * O   R   C   A *
                                 *****************

           --- An Ab Initio, DFT and Semiempirical electronic structure package ---

                  #######################################################
                  #                        -***-                        #
                  #  Department of molecular theory and spectroscopy    #
                  #              Directorship: Frank Neese              #
                  # Max Planck Institute for Chemical Energy Conversion #
                  #                  D-45470 Muelheim/Ruhr              #
                  #                       Germany                       #
                  #                                                     #
                  #                  All rights reserved                #
                  #                        -***-                        #
                  #######################################################


                         Program Version 4.0.0.2 - RELEASE -


 With contributions from (in alphabetic order):
   Daniel Aravena         : Magnetic Properties
   Michael Atanasov       : Ab Initio Ligand Field Theory
   Ute Becker             : Parallelization
   Martin Brehm           : Molecular dynamics
   Dmytro Bykov           : SCF Hessian
   Vijay G. Chilkuri      : MRCI spin determinant printing
   Dipayan Datta          : RHF DLPNO-CCSD density
   Achintya Kumar Dutta   : EOM-CC, STEOM-CC
   Dmitry Ganyushin       : Spin-Orbit,Spin-Spin,Magnetic field MRCI
   Yang Guo               : DLPNO-NEVPT2, CIM, IAO-localization
   Andreas Hansen         : Spin unrestricted coupled pair/coupled cluster methods
   Lee Huntington         : MR-EOM, pCC
   Robert Izsak           : Overlap fitted RIJCOSX, COSX-SCS-MP3, EOM
   Christian Kollmar      : KDIIS, OOCD, Brueckner-CCSD(T), CCSD density
   Simone Kossmann        : Meta GGA functionals, TD-DFT gradient, OOMP2, MP2 Hessian
   Martin Krupicka        : AUTO-CI
   Dagmar Lenk            : GEPOL surface
   Dimitrios Liakos       : Extrapolation schemes; parallel MDCI
   Dimitrios Manganas     : ROCIS; embedding schemes
   Dimitrios Pantazis     : SARC Basis sets
   Taras Petrenko         : DFT Hessian,TD-DFT gradient, ASA, ECA, R-Raman, ABS, FL, XAS/XES, NRVS
   Peter Pinski           : DLPNO-MP2
   Christoph Reimann      : Effective Core Potentials
   Marius Retegan         : Local ZFS, SOC
   Christoph Riplinger    : Optimizer, TS searches, QM/MM, DLPNO-CCSD(T), (RO)-DLPNO pert. Triples
   Tobias Risthaus        : Range-separated hybrids, TD-DFT gradient, RPA, STAB
   Michael Roemelt        : Restricted open shell CIS
   Masaaki Saitow         : Open-shell DLPNO
   Barbara Sandhoefer     : DKH picture change effects
   Kantharuban Sivalingam : CASSCF convergence, NEVPT2, FIC-MRCI
   Georgi Stoychev        : AutoAux
   Boris Wezisla          : Elementary symmetry handling
   Frank Wennmohs         : Technical directorship


 We gratefully acknowledge several colleagues who have allowed us to
 interface, adapt or use parts of their codes:
   Stefan Grimme, W. Hujo, H. Kruse,             : VdW corrections, initial TS optimization,
                  C. Bannwarth                     DFT functionals, gCP, sTDA/sTD-DF
   Ed Valeev                                     : LibInt (2-el integral package), F12 methods
   Garnet Chan, S. Sharma, J. Yang, R. Olivares  : DMRG
   Ulf Ekstrom                                   : XCFun DFT Library
   Mihaly Kallay                                 : mrcc  (arbitrary order and MRCC methods)
   Jiri Pittner, Ondrej Demel                    : Mk-CCSD
   Frank Weinhold                                : gennbo (NPA and NBO analysis)
   Christopher J. Cramer and Donald G. Truhlar   : smd solvation model


 Your calculation uses the libint2 library for the computation of 2-el integrals
 For citations please refer to: http://libint.valeyev.net

 This ORCA versions uses:
   CBLAS   interface :  Fast vector & matrix operations
   LAPACKE interface :  Fast linear algebra routines
   SCALAPACK package :  Parallel linear algebra routines


Your calculation utilizes the atom-pairwise dispersion correction
with the zero-damping scheme (D30)
Cite in your paper:
S.Grimme, J.Antony, S.Ehrlich and H.Krieg, J.Chem.Phys., 132, (2010), 154104 
   

XCFun DFT library Copyright 2009-2010 Ulf Ekstrom and contributors.
See http://admol.org/xcfun for more information. This is free soft-
ware; see the source code for copying conditions. There is ABSOLUTELY
NO WARRANTY; not even for MERCHANTABILITY or FITNESS FOR A PARTICULAR
PURPOSE. For details see the documentation. Scientific users of this 
library should cite U. Ekstrom, L. Visscher, R. Bast, A. J. Thorvald-
sen and K. Ruud; J.Chem.Theor.Comp. 2010, DOI: 10.1021/ct100117s
XCFun Version 0.99 
Your calculation utilizes the basis: 6-31G(d)
   H-He, Li-Ne : W. J. Hehre, R. Ditchfield and J.A. Pople, J. Chem. Phys. 56, 2257 (1972).
                 Note: He and Ne are unpublished basis sets taken from the Gaussian program.
                 Note: Li and B from J. D. Dill and J. A. Pople, J. Chem. Phys. 62, 2921 (1975).
   Na - Ar     : M. M. Francl, W. J. Pietro, W. J. Hehre, J. S. Binkley, M. S. Gordon, 
                 D. J. DeFrees and J. A. Pople, J. Chem. Phys. 77, 3654 (1982).
   K - Zn      : V. A. Rassolov, J. A. Pople, M. A. Ratner, and T. L. Windus, J. Chem. Phys. 109, 1223 (1998).

================================================================================
                                        WARNINGS
                       Please study these warnings very carefully!
================================================================================

Warning: TCutStore was < 0. Adjusted to Thresh (uncritical)

INFO   : the flag for use of LIBINT has been found!

================================================================================
                                       INPUT FILE
================================================================================
NAME = initial33.inp
|  1> ! WB97X-D3 6-31G(d) VerySlowConv
|  2> ! KDIIS NOSOSCF
|  3> %base "Scan_33"
|  4> 
|  5> %scf
|  6> maxiter 999
|  7> end
|  8> 
|  9> * xyz 0 1
| 10> C         -2.852764992434    0.983915865389    0.331281151366
| 11> C          0.815038040572    1.566624737166   -0.331277758681
| 12> H         -2.769428832647    0.617608006338   -0.678459207007
| 13> H         -2.776947003203    2.039917174127    0.530817662263
| 14> H          0.739175434279    0.510627505939   -0.530819364397
| 15> H          0.731657353433    1.932936711041    0.678457516457
| 16> **                         ****END OF INPUT****
================================================================================

                       ****************************
                       * Single Point Calculation *
                       ****************************

---------------------------------
CARTESIAN COORDINATES (ANGSTROEM)
---------------------------------
  C     -2.852765    0.983916    0.331281
  C      0.815038    1.566625   -0.331278
  H     -2.769429    0.617608   -0.678459
  H     -2.776947    2.039917    0.530818
  H      0.739175    0.510628   -0.530819
  H      0.731657    1.932937    0.678458

----------------------------
CARTESIAN COORDINATES (A.U.)
----------------------------
  NO LB      ZA    FRAG     MASS         X           Y           Z
   0 C     6.0000    0    12.011   -5.390945    1.859332    0.626031
   1 C     6.0000    0    12.011    1.540199    2.960492   -0.626024
   2 H     1.0000    0     1.008   -5.233462    1.167110   -1.282102
   3 H     1.0000    0     1.008   -5.247669    3.854885    1.003100
   4 H     1.0000    0     1.008    1.396839    0.964946   -1.003103
   5 H     1.0000    0     1.008    1.382632    3.652721    1.282099

--------------------------------
INTERNAL COORDINATES (ANGSTROEM)
--------------------------------
 C      0   0   0     0.000000000000     0.00000000     0.00000000
 C      1   0   0     3.772441255667     0.00000000     0.00000000
 H      1   2   0     1.077358786319    79.20497303     0.00000000
 H      1   2   3     1.077358784588    79.20497534   236.22106069
 H      2   1   3     1.077358872338    79.20271021   303.77974078
 H      2   1   3     1.077358866418    79.20271274   179.99919862

---------------------------
INTERNAL COORDINATES (A.U.)
---------------------------
 C      0   0   0     0.000000000000     0.00000000     0.00000000
 C      1   0   0     7.128880829517     0.00000000     0.00000000
 H      1   2   0     2.035913054116    79.20497303     0.00000000
 H      1   2   3     2.035913050845    79.20497534   236.22106069
 H      2   1   3     2.035913216668    79.20271021   303.77974078
 H      2   1   3     2.035913205482    79.20271274   179.99919862

---------------------
BASIS SET INFORMATION
---------------------
There are 2 groups of distinct atoms

 Group   1 Type C   : 10s4p1d contracted to 3s2p1d pattern {631/31/1}
 Group   2 Type H   : 4s contracted to 2s pattern {31}

Atom   0C    basis set group =>   1
Atom   1C    basis set group =>   1
Atom   2H    basis set group =>   2
Atom   3H    basis set group =>   2
Atom   4H    basis set group =>   2
Atom   5H    basis set group =>   2
------------------------------------------------------------------------------
                           ORCA GTO INTEGRAL CALCULATION
------------------------------------------------------------------------------

                         BASIS SET STATISTICS AND STARTUP INFO

 # of primitive gaussian shells          ...   46
 # of primitive gaussian functions       ...   70
 # of contracted shells                  ...   20
 # of contracted basis functions         ...   36
 Highest angular momentum                ...    2
 Maximum contraction depth               ...    6
 Integral package used                   ... LIBINT
 Integral threshhold            Thresh   ...  1.000e-10
 Primitive cut-off              TCut     ...  1.000e-11


------------------------------ INTEGRAL EVALUATION ----------------------------


 * One electron integrals 
 Pre-screening matrix                    ... done
 Shell pair data                         ... done (   0.000 sec)

-------------------------------------------------------------------------------
                                 ORCA SCF
-------------------------------------------------------------------------------

------------
SCF SETTINGS
------------
Hamiltonian:
 Density Functional     Method          .... DFT(GTOs)
 Exchange Functional    Exchange        .... WB97X-D3
 Correlation Functional Correlation     .... WB97X-D3
 Gradients option       PostSCFGGA      .... off
 Hybrid DFT is turned on
   Fraction HF Exchange ScalHFX         ....  0.195728
   Scaling of DF-GGA-X  ScalDFX         ....  0.000000
   Scaling of DF-GGA-C  ScalDFC         ....  1.000000
   Scaling of DF-LDA-C  ScalLDAC        ....  1.000000
   Perturbative correction              ....  0.000000
 Long-range corrected/Screened/Range-Separated Hybrid DFT is turned on
   Amount of maximum screened exact exchange              ....  0.804272
   Range separation parameter mu (erf(mu*r12)/r12)        ....  0.250000


General Settings:
 Integral files         IntName         .... Scan_33
 Hartree-Fock type      HFTyp           .... RHF
 Total Charge           Charge          ....    0
 Multiplicity           Mult            ....    1
 Number of Electrons    NEL             ....   16
 Basis Dimension        Dim             ....   36
 Nuclear Repulsion      ENuc            ....     21.3825844276 Eh

Convergence Acceleration:
 DIIS                   CNVDIIS         .... on
   Start iteration      DIISMaxIt       ....     0
   Startup error        DIISStart       ....  0.200000
   # of expansion vecs  DIISMaxEq       ....     5
   Bias factor          DIISBfac        ....   1.050
   Max. coefficient     DIISMaxC        ....  10.000
 Newton-Raphson         CNVNR           .... off
 SOSCF                  CNVSOSCF        .... off
 Level Shifting         CNVShift        .... off
 Zerner damping         CNVZerner       .... off
 Static damping         CNVDamp         .... off
 Fernandez-Rico         CNVRico         .... off

SCF Procedure:
 Maximum # iterations   MaxIter         ....   999
 SCF integral mode      SCFMode         .... Direct
   Integral package                     .... LIBINT
 Reset frequeny         DirectResetFreq ....    20
 Integral Threshold     Thresh          ....  1.000e-10 Eh
 Primitive CutOff       TCut            ....  1.000e-11 Eh

Convergence Tolerance:
 Convergence Check Mode ConvCheckMode   .... All-Criteria
 Convergence forced     ConvForced      .... 0
 Energy Change          TolE            ....  1.000e-06 Eh
 Max Density Change     TolMaxP         ....  1.000e-05
 RMS Density Change     TolRMSP         ....  1.000e-06
 DIIS Error             TolErr          ....  1.000e-06


Diagonalization of the overlap matrix:
Smallest eigenvalue                        ... 3.485e-02
Time for diagonalization                   ...    0.001 sec
Threshold for overlap eigenvalues          ... 1.000e-08
Number of eigenvalues below threshold      ... 0
Time for construction of square roots      ...    0.011 sec
Total time needed                          ...    0.012 sec

-------------------
DFT GRID GENERATION
-------------------

General Integration Accuracy     IntAcc      ...  4.340
Radial Grid Type                 RadialGrid  ... Gauss-Chebyshev
Angular Grid (max. acc.)         AngularGrid ... Lebedev-110
Angular grid pruning method      GridPruning ... 3 (G Style)
Weight generation scheme         WeightScheme... Becke
Basis function cutoff            BFCut       ...    1.0000e-10
Integration weight cutoff        WCut        ...    1.0000e-14
Grids for H and He will be reduced by one unit

# of grid points (after initial pruning)     ...   6488 (   0.0 sec)
# of grid points (after weights+screening)   ...   6378 (   0.0 sec)
nearest neighbour list constructed           ...    0.0 sec
Grid point re-assignment to atoms done       ...    0.0 sec
Grid point division into batches done        ...    0.0 sec
Reduced shell lists constructed in    0.0 sec

Total number of grid points                  ...     6378
Total number of batches                      ...      104
Average number of points per batch           ...       61
Average number of grid points per atom       ...     1063
Average number of shells per batch           ...    15.41 (77.05%)
Average number of basis functions per batch  ...    27.35 (75.98%)
Average number of large shells per batch     ...    13.09 (84.92%)
Average number of large basis fcns per batch ...    23.01 (84.12%)
Maximum spatial batch extension              ...  19.29, 20.92, 21.59 au
Average spatial batch extension              ...   5.34,  4.87,  5.04 au

Time for grid setup =    0.054 sec

------------------------------
INITIAL GUESS: MODEL POTENTIAL
------------------------------
Loading Hartree-Fock densities                     ... done
Calculating cut-offs                               ... done
Setting up the integral package                    ... done
Initializing the effective Hamiltonian             ... done
Starting the Coulomb interaction                   ... done (   0.0 sec)
Reading the grid                                   ... done
Mapping shells                                     ... done
Starting the XC term evaluation                    ... done (   0.1 sec)
  promolecular density results
     # of electrons  =     15.999692791
     EX              =    -11.195073766
     EC              =     -0.449420684
     EX+EC           =    -11.644494450
Transforming the Hamiltonian                       ... done (   0.0 sec)
Diagonalizing the Hamiltonian                      ... done (   0.0 sec)
Back transforming the eigenvectors                 ... done (   0.0 sec)
Now organizing SCF variables                       ... done
                      ------------------
                      INITIAL GUESS DONE (   0.5 sec)
                      ------------------
--------------
SCF ITERATIONS
--------------
ITER       Energy         Delta-E        Max-DP      RMS-DP      [F,P]   Gradient Norm
               ***  Starting incremental Fock matrix formation  ***
                             ****Resetting KDIIS****
                             ****Turning on KDIIS(Cayley)****
  0    -78.1801858064   0.000000000000 0.01210600  0.00105761  0.0485606   0.049008313
  1    -78.1864709335  -0.006285127113 0.01283892  0.00126935  0.0417771   0.042253271
  2    -78.1928210470  -0.006350113523 0.02135036  0.00214557  0.0337914   0.034150110
  3    -78.2004938425  -0.007672795474 0.03204728  0.00330951  0.0204119   0.020647871
  4    -78.2049311808  -0.004437338267 0.00169054  0.00013621  0.0003142   0.000237132
  5    -78.2049341761  -0.000002995379 0.00034149  0.00004375  0.0001833   0.000130288
  6    -78.2049352151  -0.000001038919 0.00081073  0.00009542  0.0001362   0.000078806
  7    -78.2049363997  -0.000001184624 0.00025360  0.00003125  0.0000375   0.000023623
                          ***Energy convergence achieved***
  8    -78.2049364677  -0.000000068002 0.00004174  0.00000327  0.0000053   0.000005714
                           ***RMSP convergence achieved***
                           ***MAXP convergence achieved***
                    *** KDIIS BlockDiag ( 0.000 sec) ***

               *****************************************************
               *                     SUCCESS                       *
               *           SCF CONVERGED AFTER   9 CYCLES          *
               *****************************************************

Setting up the final grid:

General Integration Accuracy     IntAcc      ...  4.670
Radial Grid Type                 RadialGrid  ... Gauss-Chebyshev
Angular Grid (max. acc.)         AngularGrid ... Lebedev-302
Angular grid pruning method      GridPruning ... 3 (G Style)
Weight generation scheme         WeightScheme... Becke
Basis function cutoff            BFCut       ...    1.0000e-10
Integration weight cutoff        WCut        ...    1.0000e-14
Grids for H and He will be reduced by one unit

# of grid points (after initial pruning)     ...  26000 (   0.0 sec)
# of grid points (after weights+screening)   ...  25454 (   0.0 sec)
nearest neighbour list constructed           ...    0.0 sec
Grid point re-assignment to atoms done       ...    0.0 sec
Grid point division into batches done        ...    0.3 sec
Reduced shell lists constructed in    0.4 sec

Total number of grid points                  ...    25454
Total number of batches                      ...      400
Average number of points per batch           ...       63
Average number of grid points per atom       ...     4242
Average number of shells per batch           ...    13.74 (68.70%)
Average number of basis functions per batch  ...    24.35 (67.65%)
Average number of large shells per batch     ...    11.68 (85.03%)
Average number of large basis fcns per batch ...    20.49 (84.14%)
Maximum spatial batch extension              ...  20.69, 20.64, 19.79 au
Average spatial batch extension              ...   3.46,  3.36,  3.35 au

Final grid set up in    0.5 sec
Final integration                            ... done (   0.5 sec)
Change in XC energy                          ...     0.001167925
Integrated number of electrons               ...    15.999982218
Previous integrated no of electrons          ...    16.002503100

----------------
TOTAL SCF ENERGY
----------------

Total Energy       :          -78.20376854 Eh           -2128.03273 eV

Components:
Nuclear Repulsion  :           21.38258443 Eh             581.84970 eV
Electronic Energy  :          -99.58635297 Eh           -2709.88243 eV
One Electron Energy:         -145.83138310 Eh           -3968.27368 eV
Two Electron Energy:           46.24503013 Eh            1258.39125 eV

Virial components:
Potential Energy   :         -156.15346060 Eh           -4249.15169 eV
Kinetic Energy     :           77.94969205 Eh            2121.11896 eV
Virial Ratio       :            2.00325949


DFT components:
N(Alpha)           :        7.999991109187 electrons
N(Beta)            :        7.999991109187 electrons
N(Total)           :       15.999982218375 electrons
E(XC)              :       -8.145982162700 Eh       

---------------
SCF CONVERGENCE
---------------

  Last Energy change         ...   -7.2791e-10  Tolerance :   1.0000e-06
  Last MAX-Density change    ...    6.5693e-06  Tolerance :   1.0000e-05
  Last RMS-Density change    ...    8.3675e-07  Tolerance :   1.0000e-06
  Last DIIS Error            ...    1.2347e-06  Tolerance :   1.0000e-06

             **** THE GBW FILE WAS UPDATED (Scan_33.gbw) ****
             **** DENSITY FILE WAS UPDATED (Scan_33.scfp.tmp) ****
             **** ENERGY FILE WAS UPDATED (Scan_33.en.tmp) ****
----------------
ORBITAL ENERGIES
----------------

  NO   OCC          E(Eh)            E(eV) 
   0   2.0000     -10.338490      -281.3246 
   1   2.0000     -10.338475      -281.3242 
   2   2.0000      -0.781004       -21.2522 
   3   2.0000      -0.776814       -21.1382 
   4   2.0000      -0.544082       -14.8052 
   5   2.0000      -0.541112       -14.7244 
   6   2.0000      -0.316134        -8.6024 
   7   2.0000      -0.312703        -8.5091 
   8   0.0000      -0.037704        -1.0260 
   9   0.0000      -0.011391        -0.3100 
  10   0.0000       0.198770         5.4088 
  11   0.0000       0.219563         5.9746 
  12   0.0000       0.267730         7.2853 
  13   0.0000       0.280449         7.6314 
  14   0.0000       0.584448        15.9036 
  15   0.0000       0.647463        17.6184 
  16   0.0000       0.648417        17.6443 
  17   0.0000       0.662504        18.0276 
  18   0.0000       0.671366        18.2688 
  19   0.0000       0.717595        19.5268 
  20   0.0000       0.755743        20.5648 
  21   0.0000       0.849004        23.1026 
  22   0.0000       1.009101        27.4590 
  23   0.0000       1.018407        27.7123 
  24   0.0000       1.024804        27.8863 
  25   0.0000       1.047318        28.4990 
  26   0.0000       1.741118        47.3782 
  27   0.0000       1.741142        47.3789 
  28   0.0000       1.787277        48.6343 
  29   0.0000       1.787341        48.6360 
  30   0.0000       1.791198        48.7410 
  31   0.0000       1.791916        48.7605 
  32   0.0000       2.167259        58.9741 
  33   0.0000       2.190048        59.5942 
  34   0.0000       2.302207        62.6462 
  35   0.0000       2.316811        63.0436 

                    ********************************
                    * MULLIKEN POPULATION ANALYSIS *
                    ********************************

-----------------------
MULLIKEN ATOMIC CHARGES
-----------------------
   0 C :   -0.345937
   1 C :   -0.345937
   2 H :    0.172999
   3 H :    0.172938
   4 H :    0.172938
   5 H :    0.172999
Sum of atomic charges:   -0.0000000

--------------------------------
MULLIKEN REDUCED ORBITAL CHARGES
--------------------------------
  0 C s       :     3.681841  s :     3.681841
      pz      :     1.352379  p :     2.641405
      px      :     0.032650
      py      :     1.256376
      dz2     :     0.012892  d :     0.022691
      dxz     :     0.000342
      dyz     :     0.001212
      dx2y2   :     0.007927
      dxy     :     0.000318
  1 C s       :     3.681841  s :     3.681841
      pz      :     1.352356  p :     2.641404
      px      :     0.032688
      py      :     1.256361
      dz2     :     0.012892  d :     0.022691
      dxz     :     0.000343
      dyz     :     0.001212
      dx2y2   :     0.007926
      dxy     :     0.000319
  2 H s       :     0.827001  s :     0.827001
  3 H s       :     0.827062  s :     0.827062
  4 H s       :     0.827062  s :     0.827062
  5 H s       :     0.827001  s :     0.827001


                     *******************************
                     * LOEWDIN POPULATION ANALYSIS *
                     *******************************

----------------------
LOEWDIN ATOMIC CHARGES
----------------------
   0 C :   -0.252969
   1 C :   -0.252969
   2 H :    0.126518
   3 H :    0.126451
   4 H :    0.126452
   5 H :    0.126518

-------------------------------
LOEWDIN REDUCED ORBITAL CHARGES
-------------------------------
  0 C s       :     3.424280  s :     3.424280
      pz      :     1.424730  p :     2.796355
      px      :     0.033589
      py      :     1.338036
      dz2     :     0.018200  d :     0.032334
      dxz     :     0.000425
      dyz     :     0.002509
      dx2y2   :     0.010789
      dxy     :     0.000411
  1 C s       :     3.424280  s :     3.424280
      pz      :     1.424706  p :     2.796354
      px      :     0.033628
      py      :     1.338020
      dz2     :     0.018199  d :     0.032334
      dxz     :     0.000426
      dyz     :     0.002509
      dx2y2   :     0.010789
      dxy     :     0.000412
  2 H s       :     0.873482  s :     0.873482
  3 H s       :     0.873549  s :     0.873549
  4 H s       :     0.873548  s :     0.873548
  5 H s       :     0.873482  s :     0.873482


                      *****************************
                      * MAYER POPULATION ANALYSIS *
                      *****************************

  NA   - Mulliken gross atomic population
  ZA   - Total nuclear charge
  QA   - Mulliken gross atomic charge
  VA   - Mayer's total valence
  BVA  - Mayer's bonded valence
  FA   - Mayer's free valence

  ATOM       NA         ZA         QA         VA         BVA        FA
  0 C      6.3459     6.0000    -0.3459     1.8463     1.8463     0.0000
  1 C      6.3459     6.0000    -0.3459     1.8463     1.8463    -0.0000
  2 H      0.8270     1.0000     0.1730     0.9239     0.9239     0.0000
  3 H      0.8271     1.0000     0.1729     0.9244     0.9244    -0.0000
  4 H      0.8271     1.0000     0.1729     0.9244     0.9244    -0.0000
  5 H      0.8270     1.0000     0.1730     0.9239     0.9239    -0.0000

  Mayer bond orders larger than 0.1
B(  0-C ,  2-H ) :   0.9216 B(  0-C ,  3-H ) :   0.9221 B(  1-C ,  4-H ) :   0.9221 
B(  1-C ,  5-H ) :   0.9216 

-------
TIMINGS
-------

Total SCF time: 0 days 0 hours 0 min 8 sec 

Total time                  ....       8.738 sec
Sum of individual times     ....       8.210 sec  ( 94.0%)

Fock matrix formation       ....       6.873 sec  ( 78.6%)
  XC integration            ....       2.339 sec  ( 34.0% of F)
    Basis function eval.    ....       0.651 sec  ( 27.8% of XC)
    Density eval.           ....       0.156 sec  (  6.7% of XC)
    XC-Functional eval.     ....       0.450 sec  ( 19.2% of XC)
    XC-Potential eval.      ....       0.040 sec  (  1.7% of XC)
Diagonalization             ....       0.334 sec  (  3.8%)
Density matrix formation    ....       0.000 sec  (  0.0%)
Population analysis         ....       0.049 sec  (  0.6%)
Initial guess               ....       0.403 sec  (  4.6%)
Orbital Transformation      ....       0.000 sec  (  0.0%)
Orbital Orthonormalization  ....       0.000 sec  (  0.0%)
DIIS solution               ....       0.000 sec  (  0.0%)
Grid generation             ....       0.551 sec  (  6.3%)


-------------------------------------------------------------------------------
                          DFT DISPERSION CORRECTION                            
                                                                               
                              DFTD3 V3.1  Rev 1                                
                              USING zero damping                               
-------------------------------------------------------------------------------
The omegaB97X-D3 functional is recognized. Fit by Chai et al.
Active option DFTDOPT                   ...         3   

molecular C6(AA) [au] = 320.306117 


            DFT-D V3
 parameters
 s6 scaling factor         :     1.0000 
 rs6 scaling factor        :     1.2810 
 s8 scaling factor         :     1.0000 
 rs8 scaling factor        :     1.0940 
 Damping factor alpha6     :    14.0000 
 Damping factor alpha8     :    16.0000 
 ad hoc parameters k1-k3   :    16.0000     1.3333    -4.0000 

 Edisp/kcal,au: -0.362157712648  -0.000577134990 
 E6   /kcal   :  -0.209141552 
 E8   /kcal   :  -0.153016161 
 % E8         :  42.251250144 

-------------------------   ----------------
Dispersion correction           -0.000577135
-------------------------   ----------------


-------------------------   --------------------
FINAL SINGLE POINT ENERGY       -78.204345678656
-------------------------   --------------------


                            ***************************************
                            *     ORCA property calculations      *
                            ***************************************

                                    ---------------------
                                    Active property flags
                                    ---------------------
   (+) Dipole Moment


------------------------------------------------------------------------------
                       ORCA ELECTRIC PROPERTIES CALCULATION
------------------------------------------------------------------------------

Dipole Moment Calculation                       ... on
Quadrupole Moment Calculation                   ... off
Polarizability Calculation                      ... off
GBWName                                         ... Scan_33.gbw
Electron density file                           ... Scan_33.scfp.tmp

-------------
DIPOLE MOMENT
-------------
                                X             Y             Z
Electronic contribution:      0.00001      -0.00000       0.00000
Nuclear contribution   :     -0.00007       0.00001      -0.00001
                        -----------------------------------------
Total Dipole Moment    :     -0.00006       0.00001      -0.00001
                        -----------------------------------------
Magnitude (a.u.)       :      0.00006
Magnitude (Debye)      :      0.00016


Timings for individual modules:

Sum of individual times         ...        9.579 sec (=   0.160 min)
GTO integral calculation        ...        0.676 sec (=   0.011 min)   7.1 %
SCF iterations                  ...        8.903 sec (=   0.148 min)  92.9 %
                             ****ORCA TERMINATED NORMALLY****
TOTAL RUN TIME: 0 days 0 hours 0 minutes 10 seconds 596 msec
