
                                 *****************
                                 * O   R   C   A *
                                 *****************

           --- An Ab Initio, DFT and Semiempirical electronic structure package ---

                  #######################################################
                  #                        -***-                        #
                  #  Department of molecular theory and spectroscopy    #
                  #              Directorship: Frank Neese              #
                  # Max Planck Institute for Chemical Energy Conversion #
                  #                  D-45470 Muelheim/Ruhr              #
                  #                       Germany                       #
                  #                                                     #
                  #                  All rights reserved                #
                  #                        -***-                        #
                  #######################################################


                         Program Version 4.0.0.2 - RELEASE -


 With contributions from (in alphabetic order):
   Daniel Aravena         : Magnetic Properties
   Michael Atanasov       : Ab Initio Ligand Field Theory
   Ute Becker             : Parallelization
   Martin Brehm           : Molecular dynamics
   Dmytro Bykov           : SCF Hessian
   Vijay G. Chilkuri      : MRCI spin determinant printing
   Dipayan Datta          : RHF DLPNO-CCSD density
   Achintya Kumar Dutta   : EOM-CC, STEOM-CC
   Dmitry Ganyushin       : Spin-Orbit,Spin-Spin,Magnetic field MRCI
   Yang Guo               : DLPNO-NEVPT2, CIM, IAO-localization
   Andreas Hansen         : Spin unrestricted coupled pair/coupled cluster methods
   Lee Huntington         : MR-EOM, pCC
   Robert Izsak           : Overlap fitted RIJCOSX, COSX-SCS-MP3, EOM
   Christian Kollmar      : KDIIS, OOCD, Brueckner-CCSD(T), CCSD density
   Simone Kossmann        : Meta GGA functionals, TD-DFT gradient, OOMP2, MP2 Hessian
   Martin Krupicka        : AUTO-CI
   Dagmar Lenk            : GEPOL surface
   Dimitrios Liakos       : Extrapolation schemes; parallel MDCI
   Dimitrios Manganas     : ROCIS; embedding schemes
   Dimitrios Pantazis     : SARC Basis sets
   Taras Petrenko         : DFT Hessian,TD-DFT gradient, ASA, ECA, R-Raman, ABS, FL, XAS/XES, NRVS
   Peter Pinski           : DLPNO-MP2
   Christoph Reimann      : Effective Core Potentials
   Marius Retegan         : Local ZFS, SOC
   Christoph Riplinger    : Optimizer, TS searches, QM/MM, DLPNO-CCSD(T), (RO)-DLPNO pert. Triples
   Tobias Risthaus        : Range-separated hybrids, TD-DFT gradient, RPA, STAB
   Michael Roemelt        : Restricted open shell CIS
   Masaaki Saitow         : Open-shell DLPNO
   Barbara Sandhoefer     : DKH picture change effects
   Kantharuban Sivalingam : CASSCF convergence, NEVPT2, FIC-MRCI
   Georgi Stoychev        : AutoAux
   Boris Wezisla          : Elementary symmetry handling
   Frank Wennmohs         : Technical directorship


 We gratefully acknowledge several colleagues who have allowed us to
 interface, adapt or use parts of their codes:
   Stefan Grimme, W. Hujo, H. Kruse,             : VdW corrections, initial TS optimization,
                  C. Bannwarth                     DFT functionals, gCP, sTDA/sTD-DF
   Ed Valeev                                     : LibInt (2-el integral package), F12 methods
   Garnet Chan, S. Sharma, J. Yang, R. Olivares  : DMRG
   Ulf Ekstrom                                   : XCFun DFT Library
   Mihaly Kallay                                 : mrcc  (arbitrary order and MRCC methods)
   Jiri Pittner, Ondrej Demel                    : Mk-CCSD
   Frank Weinhold                                : gennbo (NPA and NBO analysis)
   Christopher J. Cramer and Donald G. Truhlar   : smd solvation model


 Your calculation uses the libint2 library for the computation of 2-el integrals
 For citations please refer to: http://libint.valeyev.net

 This ORCA versions uses:
   CBLAS   interface :  Fast vector & matrix operations
   LAPACKE interface :  Fast linear algebra routines
   SCALAPACK package :  Parallel linear algebra routines


Your calculation utilizes the atom-pairwise dispersion correction
with the zero-damping scheme (D30)
Cite in your paper:
S.Grimme, J.Antony, S.Ehrlich and H.Krieg, J.Chem.Phys., 132, (2010), 154104 
   

XCFun DFT library Copyright 2009-2010 Ulf Ekstrom and contributors.
See http://admol.org/xcfun for more information. This is free soft-
ware; see the source code for copying conditions. There is ABSOLUTELY
NO WARRANTY; not even for MERCHANTABILITY or FITNESS FOR A PARTICULAR
PURPOSE. For details see the documentation. Scientific users of this 
library should cite U. Ekstrom, L. Visscher, R. Bast, A. J. Thorvald-
sen and K. Ruud; J.Chem.Theor.Comp. 2010, DOI: 10.1021/ct100117s
XCFun Version 0.99 
Your calculation utilizes the basis: 6-31G(d)
   H-He, Li-Ne : W. J. Hehre, R. Ditchfield and J.A. Pople, J. Chem. Phys. 56, 2257 (1972).
                 Note: He and Ne are unpublished basis sets taken from the Gaussian program.
                 Note: Li and B from J. D. Dill and J. A. Pople, J. Chem. Phys. 62, 2921 (1975).
   Na - Ar     : M. M. Francl, W. J. Pietro, W. J. Hehre, J. S. Binkley, M. S. Gordon, 
                 D. J. DeFrees and J. A. Pople, J. Chem. Phys. 77, 3654 (1982).
   K - Zn      : V. A. Rassolov, J. A. Pople, M. A. Ratner, and T. L. Windus, J. Chem. Phys. 109, 1223 (1998).

================================================================================
                                        WARNINGS
                       Please study these warnings very carefully!
================================================================================

Warning: TCutStore was < 0. Adjusted to Thresh (uncritical)

INFO   : the flag for use of LIBINT has been found!

================================================================================
                                       INPUT FILE
================================================================================
NAME = initial35.inp
|  1> ! WB97X-D3 6-31G(d) VerySlowConv
|  2> ! KDIIS NOSOSCF
|  3> %base "Scan_35"
|  4> 
|  5> %scf
|  6> maxiter 999
|  7> end
|  8> 
|  9> * xyz 0 1
| 10> C         -2.956692547677    0.981510276511    0.333464399562
| 11> C          0.919152010345    1.569002952824   -0.333427656554
| 12> H         -2.845115837615    0.612283272330   -0.673078671168
| 13> H         -2.852636088524    2.034998748518    0.536543660963
| 14> H          0.814771384452    0.515558946245   -0.536562599817
| 15> H          0.807251079020    1.938275803571    0.673060867013
| 16> **                         ****END OF INPUT****
================================================================================

                       ****************************
                       * Single Point Calculation *
                       ****************************

---------------------------------
CARTESIAN COORDINATES (ANGSTROEM)
---------------------------------
  C     -2.956693    0.981510    0.333464
  C      0.919152    1.569003   -0.333428
  H     -2.845116    0.612283   -0.673079
  H     -2.852636    2.034999    0.536544
  H      0.814771    0.515559   -0.536563
  H      0.807251    1.938276    0.673061

----------------------------
CARTESIAN COORDINATES (A.U.)
----------------------------
  NO LB      ZA    FRAG     MASS         X           Y           Z
   0 C     6.0000    0    12.011   -5.587339    1.854786    0.630156
   1 C     6.0000    0    12.011    1.736946    2.964986   -0.630087
   2 H     1.0000    0     1.008   -5.376490    1.157048   -1.271934
   3 H     1.0000    0     1.008   -5.390701    3.845590    1.013921
   4 H     1.0000    0     1.008    1.539695    0.974265   -1.013956
   5 H     1.0000    0     1.008    1.525483    3.662810    1.271901

--------------------------------
INTERNAL COORDINATES (ANGSTROEM)
--------------------------------
 C      0   0   0     0.000000000000     0.00000000     0.00000000
 C      1   0   0     3.976438569522     0.00000000     0.00000000
 H      1   2   0     1.077917852194    78.05978305     0.00000000
 H      1   2   3     1.077917851116    78.05978201   235.40200880
 H      2   1   3     1.077916228300    78.04346121   304.60483814
 H      2   1   3     1.077916232739    78.04346015   179.99315075

---------------------------
INTERNAL COORDINATES (A.U.)
---------------------------
 C      0   0   0     0.000000000000     0.00000000     0.00000000
 C      1   0   0     7.514379884758     0.00000000     0.00000000
 H      1   2   0     2.036969535512    78.05978305     0.00000000
 H      1   2   3     2.036969533474    78.05978201   235.40200880
 H      2   1   3     2.036966466797    78.04346121   304.60483814
 H      2   1   3     2.036966475185    78.04346015   179.99315075

---------------------
BASIS SET INFORMATION
---------------------
There are 2 groups of distinct atoms

 Group   1 Type C   : 10s4p1d contracted to 3s2p1d pattern {631/31/1}
 Group   2 Type H   : 4s contracted to 2s pattern {31}

Atom   0C    basis set group =>   1
Atom   1C    basis set group =>   1
Atom   2H    basis set group =>   2
Atom   3H    basis set group =>   2
Atom   4H    basis set group =>   2
Atom   5H    basis set group =>   2
------------------------------------------------------------------------------
                           ORCA GTO INTEGRAL CALCULATION
------------------------------------------------------------------------------

                         BASIS SET STATISTICS AND STARTUP INFO

 # of primitive gaussian shells          ...   46
 # of primitive gaussian functions       ...   70
 # of contracted shells                  ...   20
 # of contracted basis functions         ...   36
 Highest angular momentum                ...    2
 Maximum contraction depth               ...    6
 Integral package used                   ... LIBINT
 Integral threshhold            Thresh   ...  1.000e-10
 Primitive cut-off              TCut     ...  1.000e-11


------------------------------ INTEGRAL EVALUATION ----------------------------


 * One electron integrals 
 Pre-screening matrix                    ... done
 Shell pair data                         ... done (   0.000 sec)

-------------------------------------------------------------------------------
                                 ORCA SCF
-------------------------------------------------------------------------------

------------
SCF SETTINGS
------------
Hamiltonian:
 Density Functional     Method          .... DFT(GTOs)
 Exchange Functional    Exchange        .... WB97X-D3
 Correlation Functional Correlation     .... WB97X-D3
 Gradients option       PostSCFGGA      .... off
 Hybrid DFT is turned on
   Fraction HF Exchange ScalHFX         ....  0.195728
   Scaling of DF-GGA-X  ScalDFX         ....  0.000000
   Scaling of DF-GGA-C  ScalDFC         ....  1.000000
   Scaling of DF-LDA-C  ScalLDAC        ....  1.000000
   Perturbative correction              ....  0.000000
 Long-range corrected/Screened/Range-Separated Hybrid DFT is turned on
   Amount of maximum screened exact exchange              ....  0.804272
   Range separation parameter mu (erf(mu*r12)/r12)        ....  0.250000


General Settings:
 Integral files         IntName         .... Scan_35
 Hartree-Fock type      HFTyp           .... RHF
 Total Charge           Charge          ....    0
 Multiplicity           Mult            ....    1
 Number of Electrons    NEL             ....   16
 Basis Dimension        Dim             ....   36
 Nuclear Repulsion      ENuc            ....     20.9436476488 Eh

Convergence Acceleration:
 DIIS                   CNVDIIS         .... on
   Start iteration      DIISMaxIt       ....     0
   Startup error        DIISStart       ....  0.200000
   # of expansion vecs  DIISMaxEq       ....     5
   Bias factor          DIISBfac        ....   1.050
   Max. coefficient     DIISMaxC        ....  10.000
 Newton-Raphson         CNVNR           .... off
 SOSCF                  CNVSOSCF        .... off
 Level Shifting         CNVShift        .... off
 Zerner damping         CNVZerner       .... off
 Static damping         CNVDamp         .... off
 Fernandez-Rico         CNVRico         .... off

SCF Procedure:
 Maximum # iterations   MaxIter         ....   999
 SCF integral mode      SCFMode         .... Direct
   Integral package                     .... LIBINT
 Reset frequeny         DirectResetFreq ....    20
 Integral Threshold     Thresh          ....  1.000e-10 Eh
 Primitive CutOff       TCut            ....  1.000e-11 Eh

Convergence Tolerance:
 Convergence Check Mode ConvCheckMode   .... All-Criteria
 Convergence forced     ConvForced      .... 0
 Energy Change          TolE            ....  1.000e-06 Eh
 Max Density Change     TolMaxP         ....  1.000e-05
 RMS Density Change     TolRMSP         ....  1.000e-06
 DIIS Error             TolErr          ....  1.000e-06


Diagonalization of the overlap matrix:
Smallest eigenvalue                        ... 3.540e-02
Time for diagonalization                   ...    0.001 sec
Threshold for overlap eigenvalues          ... 1.000e-08
Number of eigenvalues below threshold      ... 0
Time for construction of square roots      ...    0.027 sec
Total time needed                          ...    0.028 sec

-------------------
DFT GRID GENERATION
-------------------

General Integration Accuracy     IntAcc      ...  4.340
Radial Grid Type                 RadialGrid  ... Gauss-Chebyshev
Angular Grid (max. acc.)         AngularGrid ... Lebedev-110
Angular grid pruning method      GridPruning ... 3 (G Style)
Weight generation scheme         WeightScheme... Becke
Basis function cutoff            BFCut       ...    1.0000e-10
Integration weight cutoff        WCut        ...    1.0000e-14
Grids for H and He will be reduced by one unit

# of grid points (after initial pruning)     ...   6488 (   0.0 sec)
# of grid points (after weights+screening)   ...   6382 (   0.0 sec)
nearest neighbour list constructed           ...    0.0 sec
Grid point re-assignment to atoms done       ...    0.0 sec
Grid point division into batches done        ...    0.0 sec
Reduced shell lists constructed in    0.1 sec

Total number of grid points                  ...     6382
Total number of batches                      ...      104
Average number of points per batch           ...       61
Average number of grid points per atom       ...     1064
Average number of shells per batch           ...    14.95 (74.76%)
Average number of basis functions per batch  ...    26.51 (73.65%)
Average number of large shells per batch     ...    12.90 (86.24%)
Average number of large basis fcns per batch ...    22.63 (85.34%)
Maximum spatial batch extension              ...  19.17, 21.79, 21.59 au
Average spatial batch extension              ...   5.47,  4.83,  5.07 au

Time for grid setup =    0.178 sec

------------------------------
INITIAL GUESS: MODEL POTENTIAL
------------------------------
Loading Hartree-Fock densities                     ... done
Calculating cut-offs                               ... done
Setting up the integral package                    ... done
Initializing the effective Hamiltonian             ... done
Starting the Coulomb interaction                   ... done (   0.0 sec)
Reading the grid                                   ... done
Mapping shells                                     ... done
Starting the XC term evaluation                    ... done (   0.1 sec)
  promolecular density results
     # of electrons  =     15.999637569
     EX              =    -11.194567598
     EC              =     -0.449131939
     EX+EC           =    -11.643699537
Transforming the Hamiltonian                       ... done (   0.0 sec)
Diagonalizing the Hamiltonian                      ... done (   0.0 sec)
Back transforming the eigenvectors                 ... done (   0.0 sec)
Now organizing SCF variables                       ... done
                      ------------------
                      INITIAL GUESS DONE (   0.4 sec)
                      ------------------
--------------
SCF ITERATIONS
--------------
ITER       Energy         Delta-E        Max-DP      RMS-DP      [F,P]   Gradient Norm
               ***  Starting incremental Fock matrix formation  ***
                             ****Resetting KDIIS****
                             ****Turning on KDIIS(Cayley)****
  0    -78.1802449259   0.000000000000 0.01200524  0.00105694  0.0478225   0.049069351
  1    -78.1865509019  -0.006305975978 0.01275179  0.00126842  0.0411313   0.042300944
  2    -78.1929160232  -0.006365121346 0.02121601  0.00214292  0.0332657   0.034188074
  3    -78.2006001185  -0.007684095309 0.03187433  0.00329780  0.0200954   0.020674649
  4    -78.2050383733  -0.004438254716 0.00161980  0.00011704  0.0002538   0.000214456
  5    -78.2050398772  -0.000001503926 0.00018532  0.00002444  0.0001138   0.000097092
                          ***Energy convergence achieved***
  6    -78.2050402536  -0.000000376462 0.00044149  0.00005503  0.0000890   0.000052845
  7    -78.2050407482  -0.000000494533 0.00024342  0.00003086  0.0000361   0.000020962

            ***Energy convergence in two consecutive cycles with***
                    ***'reasonable' density convergence***
                       *** signaling convergence ***

                    *** KDIIS BlockDiag ( 0.000 sec) ***

               *****************************************************
               *                     SUCCESS                       *
               *           SCF CONVERGED AFTER   8 CYCLES          *
               *****************************************************

Setting up the final grid:

General Integration Accuracy     IntAcc      ...  4.670
Radial Grid Type                 RadialGrid  ... Gauss-Chebyshev
Angular Grid (max. acc.)         AngularGrid ... Lebedev-302
Angular grid pruning method      GridPruning ... 3 (G Style)
Weight generation scheme         WeightScheme... Becke
Basis function cutoff            BFCut       ...    1.0000e-10
Integration weight cutoff        WCut        ...    1.0000e-14
Grids for H and He will be reduced by one unit

# of grid points (after initial pruning)     ...  26000 (   0.0 sec)
# of grid points (after weights+screening)   ...  25485 (   0.0 sec)
nearest neighbour list constructed           ...    0.0 sec
Grid point re-assignment to atoms done       ...    0.0 sec
Grid point division into batches done        ...    0.2 sec
Reduced shell lists constructed in    0.3 sec

Total number of grid points                  ...    25485
Total number of batches                      ...      400
Average number of points per batch           ...       63
Average number of grid points per atom       ...     4248
Average number of shells per batch           ...    13.38 (66.88%)
Average number of basis functions per batch  ...    23.54 (65.39%)
Average number of large shells per batch     ...    11.50 (86.00%)
Average number of large basis fcns per batch ...    20.18 (85.71%)
Maximum spatial batch extension              ...  21.27, 20.64, 20.59 au
Average spatial batch extension              ...   3.46,  3.37,  3.39 au

Final grid set up in    0.4 sec
Final integration                            ... done (   0.6 sec)
Change in XC energy                          ...     0.001084202
Integrated number of electrons               ...    15.999981370
Previous integrated no of electrons          ...    16.002573579

----------------
TOTAL SCF ENERGY
----------------

Total Energy       :          -78.20395662 Eh           -2128.03785 eV

Components:
Nuclear Repulsion  :           20.94364765 Eh             569.90563 eV
Electronic Energy  :          -99.14760427 Eh           -2697.94347 eV
One Electron Energy:         -144.95850027 Eh           -3944.52133 eV
Two Electron Energy:           45.81089600 Eh            1246.57785 eV

Virial components:
Potential Energy   :         -156.15035099 Eh           -4249.06707 eV
Kinetic Energy     :           77.94639437 Eh            2121.02922 eV
Virial Ratio       :            2.00330435


DFT components:
N(Alpha)           :        7.999990685196 electrons
N(Beta)            :        7.999990685196 electrons
N(Total)           :       15.999981370392 electrons
E(XC)              :       -8.145118409590 Eh       

---------------
SCF CONVERGENCE
---------------

  Last Energy change         ...   -7.2165e-08  Tolerance :   1.0000e-06
  Last MAX-Density change    ...    4.1905e-05  Tolerance :   1.0000e-05
  Last RMS-Density change    ...    2.9821e-06  Tolerance :   1.0000e-06
  Last DIIS Error            ...    4.5671e-06  Tolerance :   1.0000e-06

             **** THE GBW FILE WAS UPDATED (Scan_35.gbw) ****
             **** DENSITY FILE WAS UPDATED (Scan_35.scfp.tmp) ****
             **** ENERGY FILE WAS UPDATED (Scan_35.en.tmp) ****
----------------
ORBITAL ENERGIES
----------------

  NO   OCC          E(Eh)            E(eV) 
   0   2.0000     -10.338460      -281.3238 
   1   2.0000     -10.338450      -281.3235 
   2   2.0000      -0.780017       -21.2253 
   3   2.0000      -0.777146       -21.1472 
   4   2.0000      -0.543247       -14.7825 
   5   2.0000      -0.541157       -14.7256 
   6   2.0000      -0.315096        -8.5742 
   7   2.0000      -0.313209        -8.5229 
   8   0.0000      -0.033703        -0.9171 
   9   0.0000      -0.014642        -0.3984 
  10   0.0000       0.200247         5.4490 
  11   0.0000       0.217394         5.9156 
  12   0.0000       0.267114         7.2685 
  13   0.0000       0.280568         7.6346 
  14   0.0000       0.596564        16.2333 
  15   0.0000       0.650966        17.7137 
  16   0.0000       0.651946        17.7404 
  17   0.0000       0.660036        17.9605 
  18   0.0000       0.668309        18.1856 
  19   0.0000       0.715599        19.4724 
  20   0.0000       0.758463        20.6388 
  21   0.0000       0.817971        22.2581 
  22   0.0000       1.007744        27.4221 
  23   0.0000       1.021217        27.7887 
  24   0.0000       1.024381        27.8748 
  25   0.0000       1.041392        28.3377 
  26   0.0000       1.741373        47.3852 
  27   0.0000       1.741382        47.3854 
  28   0.0000       1.787415        48.6380 
  29   0.0000       1.787436        48.6386 
  30   0.0000       1.791578        48.7513 
  31   0.0000       1.791933        48.7610 
  32   0.0000       2.166762        58.9606 
  33   0.0000       2.186700        59.5031 
  34   0.0000       2.304277        62.7026 
  35   0.0000       2.313939        62.9655 

                    ********************************
                    * MULLIKEN POPULATION ANALYSIS *
                    ********************************

-----------------------
MULLIKEN ATOMIC CHARGES
-----------------------
   0 C :   -0.343790
   1 C :   -0.343787
   2 H :    0.171914
   3 H :    0.171874
   4 H :    0.171874
   5 H :    0.171915
Sum of atomic charges:    0.0000000

--------------------------------
MULLIKEN REDUCED ORBITAL CHARGES
--------------------------------
  0 C s       :     3.682306  s :     3.682306
      pz      :     1.334015  p :     2.638790
      px      :     0.061454
      py      :     1.243321
      dz2     :     0.012609  d :     0.022694
      dxz     :     0.000614
      dyz     :     0.001211
      dx2y2   :     0.007671
      dxy     :     0.000589
  1 C s       :     3.682303  s :     3.682303
      pz      :     1.333788  p :     2.638790
      px      :     0.061837
      py      :     1.243165
      dz2     :     0.012605  d :     0.022694
      dxz     :     0.000618
      dyz     :     0.001212
      dx2y2   :     0.007667
      dxy     :     0.000592
  2 H s       :     0.828086  s :     0.828086
  3 H s       :     0.828126  s :     0.828126
  4 H s       :     0.828126  s :     0.828126
  5 H s       :     0.828085  s :     0.828085


                     *******************************
                     * LOEWDIN POPULATION ANALYSIS *
                     *******************************

----------------------
LOEWDIN ATOMIC CHARGES
----------------------
   0 C :   -0.252042
   1 C :   -0.252039
   2 H :    0.126010
   3 H :    0.126030
   4 H :    0.126032
   5 H :    0.126010

-------------------------------
LOEWDIN REDUCED ORBITAL CHARGES
-------------------------------
  0 C s       :     3.425124  s :     3.425124
      pz      :     1.406253  p :     2.794565
      px      :     0.063180
      py      :     1.325132
      dz2     :     0.017823  d :     0.032354
      dxz     :     0.000763
      dyz     :     0.002522
      dx2y2   :     0.010483
      dxy     :     0.000762
  1 C s       :     3.425122  s :     3.425122
      pz      :     1.406019  p :     2.794564
      px      :     0.063575
      py      :     1.324971
      dz2     :     0.017817  d :     0.032353
      dxz     :     0.000768
      dyz     :     0.002522
      dx2y2   :     0.010479
      dxy     :     0.000767
  2 H s       :     0.873990  s :     0.873990
  3 H s       :     0.873970  s :     0.873970
  4 H s       :     0.873968  s :     0.873968
  5 H s       :     0.873990  s :     0.873990


                      *****************************
                      * MAYER POPULATION ANALYSIS *
                      *****************************

  NA   - Mulliken gross atomic population
  ZA   - Total nuclear charge
  QA   - Mulliken gross atomic charge
  VA   - Mayer's total valence
  BVA  - Mayer's bonded valence
  FA   - Mayer's free valence

  ATOM       NA         ZA         QA         VA         BVA        FA
  0 C      6.3438     6.0000    -0.3438     1.8463     1.8463    -0.0000
  1 C      6.3438     6.0000    -0.3438     1.8463     1.8463     0.0000
  2 H      0.8281     1.0000     0.1719     0.9241     0.9241    -0.0000
  3 H      0.8281     1.0000     0.1719     0.9246     0.9246    -0.0000
  4 H      0.8281     1.0000     0.1719     0.9246     0.9246     0.0000
  5 H      0.8281     1.0000     0.1719     0.9241     0.9241     0.0000

  Mayer bond orders larger than 0.1
B(  0-C ,  2-H ) :   0.9218 B(  0-C ,  3-H ) :   0.9223 B(  1-C ,  4-H ) :   0.9223 
B(  1-C ,  5-H ) :   0.9218 

-------
TIMINGS
-------

Total SCF time: 0 days 0 hours 0 min 7 sec 

Total time                  ....       7.543 sec
Sum of individual times     ....       6.955 sec  ( 92.2%)

Fock matrix formation       ....       6.095 sec  ( 80.8%)
  XC integration            ....       2.347 sec  ( 38.5% of F)
    Basis function eval.    ....       0.458 sec  ( 19.5% of XC)
    Density eval.           ....       0.179 sec  (  7.6% of XC)
    XC-Functional eval.     ....       0.651 sec  ( 27.7% of XC)
    XC-Potential eval.      ....       0.055 sec  (  2.3% of XC)
Diagonalization             ....       0.048 sec  (  0.6%)
Density matrix formation    ....       0.000 sec  (  0.0%)
Population analysis         ....       0.047 sec  (  0.6%)
Initial guess               ....       0.220 sec  (  2.9%)
Orbital Transformation      ....       0.000 sec  (  0.0%)
Orbital Orthonormalization  ....       0.000 sec  (  0.0%)
DIIS solution               ....       0.000 sec  (  0.0%)
Grid generation             ....       0.546 sec  (  7.2%)


-------------------------------------------------------------------------------
                          DFT DISPERSION CORRECTION                            
                                                                               
                              DFTD3 V3.1  Rev 1                                
                              USING zero damping                               
-------------------------------------------------------------------------------
The omegaB97X-D3 functional is recognized. Fit by Chai et al.
Active option DFTDOPT                   ...         3   

molecular C6(AA) [au] = 320.312530 


            DFT-D V3
 parameters
 s6 scaling factor         :     1.0000 
 rs6 scaling factor        :     1.2810 
 s8 scaling factor         :     1.0000 
 rs8 scaling factor        :     1.0940 
 Damping factor alpha6     :    14.0000 
 Damping factor alpha8     :    16.0000 
 ad hoc parameters k1-k3   :    16.0000     1.3333    -4.0000 

 Edisp/kcal,au: -0.310542759564  -0.000494881335 
 E6   /kcal   :  -0.195839430 
 E8   /kcal   :  -0.114703330 
 % E8         :  36.936404482 

-------------------------   ----------------
Dispersion correction           -0.000494881
-------------------------   ----------------


-------------------------   --------------------
FINAL SINGLE POINT ENERGY       -78.204451499477
-------------------------   --------------------


                            ***************************************
                            *     ORCA property calculations      *
                            ***************************************

                                    ---------------------
                                    Active property flags
                                    ---------------------
   (+) Dipole Moment


------------------------------------------------------------------------------
                       ORCA ELECTRIC PROPERTIES CALCULATION
------------------------------------------------------------------------------

Dipole Moment Calculation                       ... on
Quadrupole Moment Calculation                   ... off
Polarizability Calculation                      ... off
GBWName                                         ... Scan_35.gbw
Electron density file                           ... Scan_35.scfp.tmp

-------------
DIPOLE MOMENT
-------------
                                X             Y             Z
Electronic contribution:      0.00006      -0.00002       0.00002
Nuclear contribution   :     -0.00052       0.00007      -0.00009
                        -----------------------------------------
Total Dipole Moment    :     -0.00046       0.00006      -0.00007
                        -----------------------------------------
Magnitude (a.u.)       :      0.00047
Magnitude (Debye)      :      0.00119


Timings for individual modules:

Sum of individual times         ...        8.439 sec (=   0.141 min)
GTO integral calculation        ...        0.714 sec (=   0.012 min)   8.5 %
SCF iterations                  ...        7.725 sec (=   0.129 min)  91.5 %
                             ****ORCA TERMINATED NORMALLY****
TOTAL RUN TIME: 0 days 0 hours 0 minutes 9 seconds 540 msec
