
                                 *****************
                                 * O   R   C   A *
                                 *****************

           --- An Ab Initio, DFT and Semiempirical electronic structure package ---

                  #######################################################
                  #                        -***-                        #
                  #  Department of molecular theory and spectroscopy    #
                  #              Directorship: Frank Neese              #
                  # Max Planck Institute for Chemical Energy Conversion #
                  #                  D-45470 Muelheim/Ruhr              #
                  #                       Germany                       #
                  #                                                     #
                  #                  All rights reserved                #
                  #                        -***-                        #
                  #######################################################


                         Program Version 4.0.0.2 - RELEASE -


 With contributions from (in alphabetic order):
   Daniel Aravena         : Magnetic Properties
   Michael Atanasov       : Ab Initio Ligand Field Theory
   Ute Becker             : Parallelization
   Martin Brehm           : Molecular dynamics
   Dmytro Bykov           : SCF Hessian
   Vijay G. Chilkuri      : MRCI spin determinant printing
   Dipayan Datta          : RHF DLPNO-CCSD density
   Achintya Kumar Dutta   : EOM-CC, STEOM-CC
   Dmitry Ganyushin       : Spin-Orbit,Spin-Spin,Magnetic field MRCI
   Yang Guo               : DLPNO-NEVPT2, CIM, IAO-localization
   Andreas Hansen         : Spin unrestricted coupled pair/coupled cluster methods
   Lee Huntington         : MR-EOM, pCC
   Robert Izsak           : Overlap fitted RIJCOSX, COSX-SCS-MP3, EOM
   Christian Kollmar      : KDIIS, OOCD, Brueckner-CCSD(T), CCSD density
   Simone Kossmann        : Meta GGA functionals, TD-DFT gradient, OOMP2, MP2 Hessian
   Martin Krupicka        : AUTO-CI
   Dagmar Lenk            : GEPOL surface
   Dimitrios Liakos       : Extrapolation schemes; parallel MDCI
   Dimitrios Manganas     : ROCIS; embedding schemes
   Dimitrios Pantazis     : SARC Basis sets
   Taras Petrenko         : DFT Hessian,TD-DFT gradient, ASA, ECA, R-Raman, ABS, FL, XAS/XES, NRVS
   Peter Pinski           : DLPNO-MP2
   Christoph Reimann      : Effective Core Potentials
   Marius Retegan         : Local ZFS, SOC
   Christoph Riplinger    : Optimizer, TS searches, QM/MM, DLPNO-CCSD(T), (RO)-DLPNO pert. Triples
   Tobias Risthaus        : Range-separated hybrids, TD-DFT gradient, RPA, STAB
   Michael Roemelt        : Restricted open shell CIS
   Masaaki Saitow         : Open-shell DLPNO
   Barbara Sandhoefer     : DKH picture change effects
   Kantharuban Sivalingam : CASSCF convergence, NEVPT2, FIC-MRCI
   Georgi Stoychev        : AutoAux
   Boris Wezisla          : Elementary symmetry handling
   Frank Wennmohs         : Technical directorship


 We gratefully acknowledge several colleagues who have allowed us to
 interface, adapt or use parts of their codes:
   Stefan Grimme, W. Hujo, H. Kruse,             : VdW corrections, initial TS optimization,
                  C. Bannwarth                     DFT functionals, gCP, sTDA/sTD-DF
   Ed Valeev                                     : LibInt (2-el integral package), F12 methods
   Garnet Chan, S. Sharma, J. Yang, R. Olivares  : DMRG
   Ulf Ekstrom                                   : XCFun DFT Library
   Mihaly Kallay                                 : mrcc  (arbitrary order and MRCC methods)
   Jiri Pittner, Ondrej Demel                    : Mk-CCSD
   Frank Weinhold                                : gennbo (NPA and NBO analysis)
   Christopher J. Cramer and Donald G. Truhlar   : smd solvation model


 Your calculation uses the libint2 library for the computation of 2-el integrals
 For citations please refer to: http://libint.valeyev.net

 This ORCA versions uses:
   CBLAS   interface :  Fast vector & matrix operations
   LAPACKE interface :  Fast linear algebra routines
   SCALAPACK package :  Parallel linear algebra routines


Your calculation utilizes the atom-pairwise dispersion correction
with the zero-damping scheme (D30)
Cite in your paper:
S.Grimme, J.Antony, S.Ehrlich and H.Krieg, J.Chem.Phys., 132, (2010), 154104 
   

XCFun DFT library Copyright 2009-2010 Ulf Ekstrom and contributors.
See http://admol.org/xcfun for more information. This is free soft-
ware; see the source code for copying conditions. There is ABSOLUTELY
NO WARRANTY; not even for MERCHANTABILITY or FITNESS FOR A PARTICULAR
PURPOSE. For details see the documentation. Scientific users of this 
library should cite U. Ekstrom, L. Visscher, R. Bast, A. J. Thorvald-
sen and K. Ruud; J.Chem.Theor.Comp. 2010, DOI: 10.1021/ct100117s
XCFun Version 0.99 
Your calculation utilizes the basis: 6-31G(d)
   H-He, Li-Ne : W. J. Hehre, R. Ditchfield and J.A. Pople, J. Chem. Phys. 56, 2257 (1972).
                 Note: He and Ne are unpublished basis sets taken from the Gaussian program.
                 Note: Li and B from J. D. Dill and J. A. Pople, J. Chem. Phys. 62, 2921 (1975).
   Na - Ar     : M. M. Francl, W. J. Pietro, W. J. Hehre, J. S. Binkley, M. S. Gordon, 
                 D. J. DeFrees and J. A. Pople, J. Chem. Phys. 77, 3654 (1982).
   K - Zn      : V. A. Rassolov, J. A. Pople, M. A. Ratner, and T. L. Windus, J. Chem. Phys. 109, 1223 (1998).

================================================================================
                                        WARNINGS
                       Please study these warnings very carefully!
================================================================================

Warning: TCutStore was < 0. Adjusted to Thresh (uncritical)

INFO   : the flag for use of LIBINT has been found!

================================================================================
                                       INPUT FILE
================================================================================
NAME = initial37.inp
|  1> ! WB97X-D3 6-31G(d) VerySlowConv
|  2> ! KDIIS NOSOSCF
|  3> %base "Scan_37"
|  4> 
|  5> %scf
|  6> maxiter 999
|  7> end
|  8> 
|  9> * xyz 0 1
| 10> C         -3.060486374208    0.979607224369    0.335057416836
| 11> C          1.024003871961    1.570719142324   -0.334794308306
| 12> H         -2.926887668059    0.606891515266   -0.667514424902
| 13> H         -2.934409330837    2.029872466359    0.542333602962
| 14> H          0.896015633465    0.520774853601   -0.542468977185
| 15> H          0.888493867678    1.943764798082    0.667386690595
| 16> **                         ****END OF INPUT****
================================================================================

                       ****************************
                       * Single Point Calculation *
                       ****************************

---------------------------------
CARTESIAN COORDINATES (ANGSTROEM)
---------------------------------
  C     -3.060486    0.979607    0.335057
  C      1.024004    1.570719   -0.334794
  H     -2.926888    0.606892   -0.667514
  H     -2.934409    2.029872    0.542334
  H      0.896016    0.520775   -0.542469
  H      0.888494    1.943765    0.667387

----------------------------
CARTESIAN COORDINATES (A.U.)
----------------------------
  NO LB      ZA    FRAG     MASS         X           Y           Z
   0 C     6.0000    0    12.011   -5.783481    1.851189    0.633167
   1 C     6.0000    0    12.011    1.935087    2.968229   -0.632670
   2 H     1.0000    0     1.008   -5.531016    1.146859   -1.261419
   3 H     1.0000    0     1.008   -5.545230    3.835903    1.024862
   4 H     1.0000    0     1.008    1.693224    0.984122   -1.025118
   5 H     1.0000    0     1.008    1.679010    3.673183    1.261178

--------------------------------
INTERNAL COORDINATES (ANGSTROEM)
--------------------------------
 C      0   0   0     0.000000000000     0.00000000     0.00000000
 C      1   0   0     4.181049533822     0.00000000     0.00000000
 H      1   2   0     1.077922034260    77.22013411     0.00000000
 H      1   2   3     1.077922036482    77.22013345   234.65533715
 H      2   1   3     1.077911298164    77.12417522   305.38879335
 H      2   1   3     1.077911302983    77.12417306   179.95586862

---------------------------
INTERNAL COORDINATES (A.U.)
---------------------------
 C      0   0   0     0.000000000000     0.00000000     0.00000000
 C      1   0   0     7.901038571283     0.00000000     0.00000000
 H      1   2   0     2.036977438470    77.22013411     0.00000000
 H      1   2   3     2.036977442669    77.22013345   234.65533715
 H      2   1   3     2.036957150189    77.12417522   305.38879335
 H      2   1   3     2.036957159296    77.12417306   179.95586862

---------------------
BASIS SET INFORMATION
---------------------
There are 2 groups of distinct atoms

 Group   1 Type C   : 10s4p1d contracted to 3s2p1d pattern {631/31/1}
 Group   2 Type H   : 4s contracted to 2s pattern {31}

Atom   0C    basis set group =>   1
Atom   1C    basis set group =>   1
Atom   2H    basis set group =>   2
Atom   3H    basis set group =>   2
Atom   4H    basis set group =>   2
Atom   5H    basis set group =>   2
------------------------------------------------------------------------------
                           ORCA GTO INTEGRAL CALCULATION
------------------------------------------------------------------------------

                         BASIS SET STATISTICS AND STARTUP INFO

 # of primitive gaussian shells          ...   46
 # of primitive gaussian functions       ...   70
 # of contracted shells                  ...   20
 # of contracted basis functions         ...   36
 Highest angular momentum                ...    2
 Maximum contraction depth               ...    6
 Integral package used                   ... LIBINT
 Integral threshhold            Thresh   ...  1.000e-10
 Primitive cut-off              TCut     ...  1.000e-11


------------------------------ INTEGRAL EVALUATION ----------------------------


 * One electron integrals 
 Pre-screening matrix                    ... done
 Shell pair data                         ... done (   0.000 sec)

-------------------------------------------------------------------------------
                                 ORCA SCF
-------------------------------------------------------------------------------

------------
SCF SETTINGS
------------
Hamiltonian:
 Density Functional     Method          .... DFT(GTOs)
 Exchange Functional    Exchange        .... WB97X-D3
 Correlation Functional Correlation     .... WB97X-D3
 Gradients option       PostSCFGGA      .... off
 Hybrid DFT is turned on
   Fraction HF Exchange ScalHFX         ....  0.195728
   Scaling of DF-GGA-X  ScalDFX         ....  0.000000
   Scaling of DF-GGA-C  ScalDFC         ....  1.000000
   Scaling of DF-LDA-C  ScalLDAC        ....  1.000000
   Perturbative correction              ....  0.000000
 Long-range corrected/Screened/Range-Separated Hybrid DFT is turned on
   Amount of maximum screened exact exchange              ....  0.804272
   Range separation parameter mu (erf(mu*r12)/r12)        ....  0.250000


General Settings:
 Integral files         IntName         .... Scan_37
 Hartree-Fock type      HFTyp           .... RHF
 Total Charge           Charge          ....    0
 Multiplicity           Mult            ....    1
 Number of Electrons    NEL             ....   16
 Basis Dimension        Dim             ....   36
 Nuclear Repulsion      ENuc            ....     20.5436617300 Eh

Convergence Acceleration:
 DIIS                   CNVDIIS         .... on
   Start iteration      DIISMaxIt       ....     0
   Startup error        DIISStart       ....  0.200000
   # of expansion vecs  DIISMaxEq       ....     5
   Bias factor          DIISBfac        ....   1.050
   Max. coefficient     DIISMaxC        ....  10.000
 Newton-Raphson         CNVNR           .... off
 SOSCF                  CNVSOSCF        .... off
 Level Shifting         CNVShift        .... off
 Zerner damping         CNVZerner       .... off
 Static damping         CNVDamp         .... off
 Fernandez-Rico         CNVRico         .... off

SCF Procedure:
 Maximum # iterations   MaxIter         ....   999
 SCF integral mode      SCFMode         .... Direct
   Integral package                     .... LIBINT
 Reset frequeny         DirectResetFreq ....    20
 Integral Threshold     Thresh          ....  1.000e-10 Eh
 Primitive CutOff       TCut            ....  1.000e-11 Eh

Convergence Tolerance:
 Convergence Check Mode ConvCheckMode   .... All-Criteria
 Convergence forced     ConvForced      .... 0
 Energy Change          TolE            ....  1.000e-06 Eh
 Max Density Change     TolMaxP         ....  1.000e-05
 RMS Density Change     TolRMSP         ....  1.000e-06
 DIIS Error             TolErr          ....  1.000e-06


Diagonalization of the overlap matrix:
Smallest eigenvalue                        ... 3.575e-02
Time for diagonalization                   ...    0.001 sec
Threshold for overlap eigenvalues          ... 1.000e-08
Number of eigenvalues below threshold      ... 0
Time for construction of square roots      ...    0.005 sec
Total time needed                          ...    0.006 sec

-------------------
DFT GRID GENERATION
-------------------

General Integration Accuracy     IntAcc      ...  4.340
Radial Grid Type                 RadialGrid  ... Gauss-Chebyshev
Angular Grid (max. acc.)         AngularGrid ... Lebedev-110
Angular grid pruning method      GridPruning ... 3 (G Style)
Weight generation scheme         WeightScheme... Becke
Basis function cutoff            BFCut       ...    1.0000e-10
Integration weight cutoff        WCut        ...    1.0000e-14
Grids for H and He will be reduced by one unit

# of grid points (after initial pruning)     ...   6488 (   0.0 sec)
# of grid points (after weights+screening)   ...   6386 (   0.0 sec)
nearest neighbour list constructed           ...    0.0 sec
Grid point re-assignment to atoms done       ...    0.0 sec
Grid point division into batches done        ...    0.0 sec
Reduced shell lists constructed in    0.0 sec

Total number of grid points                  ...     6386
Total number of batches                      ...      102
Average number of points per batch           ...       62
Average number of grid points per atom       ...     1064
Average number of shells per batch           ...    14.60 (73.01%)
Average number of basis functions per batch  ...    25.79 (71.63%)
Average number of large shells per batch     ...    12.86 (88.10%)
Average number of large basis fcns per batch ...    22.71 (88.06%)
Maximum spatial batch extension              ...  19.35, 21.77, 21.94 au
Average spatial batch extension              ...   5.59,  5.11,  5.17 au

Time for grid setup =    0.048 sec

------------------------------
INITIAL GUESS: MODEL POTENTIAL
------------------------------
Loading Hartree-Fock densities                     ... done
Calculating cut-offs                               ... done
Setting up the integral package                    ... done
Initializing the effective Hamiltonian             ... done
Starting the Coulomb interaction                   ... done (   0.0 sec)
Reading the grid                                   ... done
Mapping shells                                     ... done
Starting the XC term evaluation                    ... done (   0.0 sec)
  promolecular density results
     # of electrons  =     15.999532199
     EX              =    -11.194436316
     EC              =     -0.448981098
     EX+EC           =    -11.643417414
Transforming the Hamiltonian                       ... done (   0.0 sec)
Diagonalizing the Hamiltonian                      ... done (   0.0 sec)
Back transforming the eigenvectors                 ... done (   0.0 sec)
Now organizing SCF variables                       ... done
                      ------------------
                      INITIAL GUESS DONE (   0.2 sec)
                      ------------------
--------------
SCF ITERATIONS
--------------
ITER       Energy         Delta-E        Max-DP      RMS-DP      [F,P]   Gradient Norm
               ***  Starting incremental Fock matrix formation  ***
                             ****Resetting KDIIS****
                             ****Turning on KDIIS(Cayley)****
  0    -78.1800963128   0.000000000000 0.01192879  0.00105718  0.0472233   0.049185775
  1    -78.1864340881  -0.006337775326 0.01269876  0.00126761  0.0406115   0.042395117
  2    -78.1928231257  -0.006389037545 0.02113102  0.00213880  0.0328448   0.034261945
  3    -78.2005253668  -0.007702241161 0.03178349  0.00328547  0.0198458   0.020724480
  4    -78.2049718173  -0.004446450480 0.00163055  0.00011209  0.0002748   0.000211656
                          ***Energy convergence achieved***
  5    -78.2049727726  -0.000000955304 0.00014523  0.00001552  0.0000997   0.000080135
  6    -78.2049729090  -0.000000136368 0.00018842  0.00002278  0.0000472   0.000030443
  7    -78.2049730255  -0.000000116551 0.00020042  0.00002490  0.0000296   0.000016051

            ***Energy convergence in two consecutive cycles with***
                    ***'reasonable' density convergence***
                       *** signaling convergence ***

                    *** KDIIS BlockDiag ( 0.000 sec) ***

               *****************************************************
               *                     SUCCESS                       *
               *           SCF CONVERGED AFTER   8 CYCLES          *
               *****************************************************

Setting up the final grid:

General Integration Accuracy     IntAcc      ...  4.670
Radial Grid Type                 RadialGrid  ... Gauss-Chebyshev
Angular Grid (max. acc.)         AngularGrid ... Lebedev-302
Angular grid pruning method      GridPruning ... 3 (G Style)
Weight generation scheme         WeightScheme... Becke
Basis function cutoff            BFCut       ...    1.0000e-10
Integration weight cutoff        WCut        ...    1.0000e-14
Grids for H and He will be reduced by one unit

# of grid points (after initial pruning)     ...  26000 (   0.0 sec)
# of grid points (after weights+screening)   ...  25515 (   0.0 sec)
nearest neighbour list constructed           ...    0.0 sec
Grid point re-assignment to atoms done       ...    0.0 sec
Grid point division into batches done        ...    0.1 sec
Reduced shell lists constructed in    0.2 sec

Total number of grid points                  ...    25515
Total number of batches                      ...      402
Average number of points per batch           ...       63
Average number of grid points per atom       ...     4252
Average number of shells per batch           ...    13.01 (65.06%)
Average number of basis functions per batch  ...    22.81 (63.37%)
Average number of large shells per batch     ...    11.32 (86.99%)
Average number of large basis fcns per batch ...    19.90 (87.21%)
Maximum spatial batch extension              ...  21.77, 21.17, 20.59 au
Average spatial batch extension              ...   3.41,  3.36,  3.36 au

Final grid set up in    0.2 sec
Final integration                            ... done (   0.2 sec)
Change in XC energy                          ...     0.001031389
Integrated number of electrons               ...    15.999979155
Previous integrated no of electrons          ...    16.002543936

----------------
TOTAL SCF ENERGY
----------------

Total Energy       :          -78.20394169 Eh           -2128.03744 eV

Components:
Nuclear Repulsion  :           20.54366173 Eh             559.02146 eV
Electronic Energy  :          -98.74760342 Eh           -2687.05890 eV
One Electron Energy:         -144.16371669 Eh           -3922.89417 eV
Two Electron Energy:           45.41611327 Eh            1235.83527 eV

Virial components:
Potential Energy   :         -156.14974924 Eh           -4249.05069 eV
Kinetic Energy     :           77.94580754 Eh            2121.01325 eV
Virial Ratio       :            2.00331171


DFT components:
N(Alpha)           :        7.999989577566 electrons
N(Beta)            :        7.999989577566 electrons
N(Total)           :       15.999979155132 electrons
E(XC)              :       -8.144987257559 Eh       

---------------
SCF CONVERGENCE
---------------

  Last Energy change         ...   -5.6221e-08  Tolerance :   1.0000e-06
  Last MAX-Density change    ...    4.0126e-05  Tolerance :   1.0000e-05
  Last RMS-Density change    ...    2.7031e-06  Tolerance :   1.0000e-06
  Last DIIS Error            ...    4.3299e-06  Tolerance :   1.0000e-06

             **** THE GBW FILE WAS UPDATED (Scan_37.gbw) ****
             **** DENSITY FILE WAS UPDATED (Scan_37.scfp.tmp) ****
             **** ENERGY FILE WAS UPDATED (Scan_37.en.tmp) ****
----------------
ORBITAL ENERGIES
----------------

  NO   OCC          E(Eh)            E(eV) 
   0   2.0000     -10.338196      -281.3166 
   1   2.0000     -10.338183      -281.3163 
   2   2.0000      -0.779220       -21.2036 
   3   2.0000      -0.777274       -21.1507 
   4   2.0000      -0.542675       -14.7669 
   5   2.0000      -0.541229       -14.7276 
   6   2.0000      -0.314177        -8.5492 
   7   2.0000      -0.313276        -8.5247 
   8   0.0000      -0.030496        -0.8298 
   9   0.0000      -0.016863        -0.4589 
  10   0.0000       0.201899         5.4940 
  11   0.0000       0.215725         5.8702 
  12   0.0000       0.267539         7.2801 
  13   0.0000       0.280368         7.6292 
  14   0.0000       0.610374        16.6091 
  15   0.0000       0.653403        17.7800 
  16   0.0000       0.654878        17.8201 
  17   0.0000       0.658609        17.9217 
  18   0.0000       0.666211        18.1285 
  19   0.0000       0.709824        19.3153 
  20   0.0000       0.760899        20.7051 
  21   0.0000       0.796389        21.6709 
  22   0.0000       1.008129        27.4326 
  23   0.0000       1.023843        27.8602 
  24   0.0000       1.024264        27.8717 
  25   0.0000       1.038059        28.2470 
  26   0.0000       1.741610        47.3916 
  27   0.0000       1.741614        47.3917 
  28   0.0000       1.787746        48.6470 
  29   0.0000       1.787762        48.6475 
  30   0.0000       1.792063        48.7645 
  31   0.0000       1.792245        48.7695 
  32   0.0000       2.168471        59.0071 
  33   0.0000       2.184240        59.4362 
  34   0.0000       2.305928        62.7475 
  35   0.0000       2.312130        62.9163 

                    ********************************
                    * MULLIKEN POPULATION ANALYSIS *
                    ********************************

-----------------------
MULLIKEN ATOMIC CHARGES
-----------------------
   0 C :   -0.342412
   1 C :   -0.342423
   2 H :    0.171216
   3 H :    0.171187
   4 H :    0.171202
   5 H :    0.171229
Sum of atomic charges:   -0.0000000

--------------------------------
MULLIKEN REDUCED ORBITAL CHARGES
--------------------------------
  0 C s       :     3.681971  s :     3.681971
      pz      :     1.316438  p :     2.637749
      px      :     0.090473
      py      :     1.230839
      dz2     :     0.012316  d :     0.022692
      dxz     :     0.000878
      dyz     :     0.001223
      dx2y2   :     0.007419
      dxy     :     0.000855
  1 C s       :     3.681964  s :     3.681964
      pz      :     1.314782  p :     2.637768
      px      :     0.093302
      py      :     1.229684
      dz2     :     0.012287  d :     0.022692
      dxz     :     0.000904
      dyz     :     0.001225
      dx2y2   :     0.007395
      dxy     :     0.000881
  2 H s       :     0.828784  s :     0.828784
  3 H s       :     0.828813  s :     0.828813
  4 H s       :     0.828798  s :     0.828798
  5 H s       :     0.828771  s :     0.828771


                     *******************************
                     * LOEWDIN POPULATION ANALYSIS *
                     *******************************

----------------------
LOEWDIN ATOMIC CHARGES
----------------------
   0 C :   -0.251472
   1 C :   -0.251466
   2 H :    0.125682
   3 H :    0.125782
   4 H :    0.125791
   5 H :    0.125684

-------------------------------
LOEWDIN REDUCED ORBITAL CHARGES
-------------------------------
  0 C s       :     3.425056  s :     3.425056
      pz      :     1.388395  p :     2.794054
      px      :     0.093032
      py      :     1.312627
      dz2     :     0.017430  d :     0.032363
      dxz     :     0.001092
      dyz     :     0.002552
      dx2y2   :     0.010180
      dxy     :     0.001109
  1 C s       :     3.425042  s :     3.425042
      pz      :     1.386684  p :     2.794062
      px      :     0.095942
      py      :     1.311436
      dz2     :     0.017391  d :     0.032362
      dxz     :     0.001124
      dyz     :     0.002555
      dx2y2   :     0.010150
      dxy     :     0.001142
  2 H s       :     0.874318  s :     0.874318
  3 H s       :     0.874218  s :     0.874218
  4 H s       :     0.874209  s :     0.874209
  5 H s       :     0.874316  s :     0.874316


                      *****************************
                      * MAYER POPULATION ANALYSIS *
                      *****************************

  NA   - Mulliken gross atomic population
  ZA   - Total nuclear charge
  QA   - Mulliken gross atomic charge
  VA   - Mayer's total valence
  BVA  - Mayer's bonded valence
  FA   - Mayer's free valence

  ATOM       NA         ZA         QA         VA         BVA        FA
  0 C      6.3424     6.0000    -0.3424     1.8460     1.8460     0.0000
  1 C      6.3424     6.0000    -0.3424     1.8460     1.8460    -0.0000
  2 H      0.8288     1.0000     0.1712     0.9242     0.9242     0.0000
  3 H      0.8288     1.0000     0.1712     0.9248     0.9248     0.0000
  4 H      0.8288     1.0000     0.1712     0.9247     0.9247    -0.0000
  5 H      0.8288     1.0000     0.1712     0.9242     0.9242    -0.0000

  Mayer bond orders larger than 0.1
B(  0-C ,  2-H ) :   0.9220 B(  0-C ,  3-H ) :   0.9225 B(  1-C ,  4-H ) :   0.9225 
B(  1-C ,  5-H ) :   0.9220 

-------
TIMINGS
-------

Total SCF time: 0 days 0 hours 0 min 3 sec 

Total time                  ....       3.039 sec
Sum of individual times     ....       2.915 sec  ( 95.9%)

Fock matrix formation       ....       2.494 sec  ( 82.1%)
  XC integration            ....       0.808 sec  ( 32.4% of F)
    Basis function eval.    ....       0.278 sec  ( 34.4% of XC)
    Density eval.           ....       0.037 sec  (  4.6% of XC)
    XC-Functional eval.     ....       0.247 sec  ( 30.6% of XC)
    XC-Potential eval.      ....       0.030 sec  (  3.7% of XC)
Diagonalization             ....       0.007 sec  (  0.2%)
Density matrix formation    ....       0.000 sec  (  0.0%)
Population analysis         ....       0.010 sec  (  0.3%)
Initial guess               ....       0.135 sec  (  4.5%)
Orbital Transformation      ....       0.000 sec  (  0.0%)
Orbital Orthonormalization  ....       0.000 sec  (  0.0%)
DIIS solution               ....       0.000 sec  (  0.0%)
Grid generation             ....       0.270 sec  (  8.9%)


-------------------------------------------------------------------------------
                          DFT DISPERSION CORRECTION                            
                                                                               
                              DFTD3 V3.1  Rev 1                                
                              USING zero damping                               
-------------------------------------------------------------------------------
The omegaB97X-D3 functional is recognized. Fit by Chai et al.
Active option DFTDOPT                   ...         3   

molecular C6(AA) [au] = 320.314669 


            DFT-D V3
 parameters
 s6 scaling factor         :     1.0000 
 rs6 scaling factor        :     1.2810 
 s8 scaling factor         :     1.0000 
 rs8 scaling factor        :     1.0940 
 Damping factor alpha6     :    14.0000 
 Damping factor alpha8     :    16.0000 
 ad hoc parameters k1-k3   :    16.0000     1.3333    -4.0000 

 Edisp/kcal,au: -0.258078493526  -0.000411274214 
 E6   /kcal   :  -0.174224599 
 E8   /kcal   :  -0.083853895 
 % E8         :  32.491624425 

-------------------------   ----------------
Dispersion correction           -0.000411274
-------------------------   ----------------


-------------------------   --------------------
FINAL SINGLE POINT ENERGY       -78.204352967387
-------------------------   --------------------


                            ***************************************
                            *     ORCA property calculations      *
                            ***************************************

                                    ---------------------
                                    Active property flags
                                    ---------------------
   (+) Dipole Moment


------------------------------------------------------------------------------
                       ORCA ELECTRIC PROPERTIES CALCULATION
------------------------------------------------------------------------------

Dipole Moment Calculation                       ... on
Quadrupole Moment Calculation                   ... off
Polarizability Calculation                      ... off
GBWName                                         ... Scan_37.gbw
Electron density file                           ... Scan_37.scfp.tmp

-------------
DIPOLE MOMENT
-------------
                                X             Y             Z
Electronic contribution:      0.00031      -0.00010       0.00010
Nuclear contribution   :     -0.00307       0.00052      -0.00063
                        -----------------------------------------
Total Dipole Moment    :     -0.00276       0.00042      -0.00054
                        -----------------------------------------
Magnitude (a.u.)       :      0.00285
Magnitude (Debye)      :      0.00724


Timings for individual modules:

Sum of individual times         ...        3.374 sec (=   0.056 min)
GTO integral calculation        ...        0.300 sec (=   0.005 min)   8.9 %
SCF iterations                  ...        3.073 sec (=   0.051 min)  91.1 %
                             ****ORCA TERMINATED NORMALLY****
TOTAL RUN TIME: 0 days 0 hours 0 minutes 3 seconds 692 msec
