
                                 *****************
                                 * O   R   C   A *
                                 *****************

           --- An Ab Initio, DFT and Semiempirical electronic structure package ---

                  #######################################################
                  #                        -***-                        #
                  #  Department of molecular theory and spectroscopy    #
                  #              Directorship: Frank Neese              #
                  # Max Planck Institute for Chemical Energy Conversion #
                  #                  D-45470 Muelheim/Ruhr              #
                  #                       Germany                       #
                  #                                                     #
                  #                  All rights reserved                #
                  #                        -***-                        #
                  #######################################################


                         Program Version 4.0.0.2 - RELEASE -


 With contributions from (in alphabetic order):
   Daniel Aravena         : Magnetic Properties
   Michael Atanasov       : Ab Initio Ligand Field Theory
   Ute Becker             : Parallelization
   Martin Brehm           : Molecular dynamics
   Dmytro Bykov           : SCF Hessian
   Vijay G. Chilkuri      : MRCI spin determinant printing
   Dipayan Datta          : RHF DLPNO-CCSD density
   Achintya Kumar Dutta   : EOM-CC, STEOM-CC
   Dmitry Ganyushin       : Spin-Orbit,Spin-Spin,Magnetic field MRCI
   Yang Guo               : DLPNO-NEVPT2, CIM, IAO-localization
   Andreas Hansen         : Spin unrestricted coupled pair/coupled cluster methods
   Lee Huntington         : MR-EOM, pCC
   Robert Izsak           : Overlap fitted RIJCOSX, COSX-SCS-MP3, EOM
   Christian Kollmar      : KDIIS, OOCD, Brueckner-CCSD(T), CCSD density
   Simone Kossmann        : Meta GGA functionals, TD-DFT gradient, OOMP2, MP2 Hessian
   Martin Krupicka        : AUTO-CI
   Dagmar Lenk            : GEPOL surface
   Dimitrios Liakos       : Extrapolation schemes; parallel MDCI
   Dimitrios Manganas     : ROCIS; embedding schemes
   Dimitrios Pantazis     : SARC Basis sets
   Taras Petrenko         : DFT Hessian,TD-DFT gradient, ASA, ECA, R-Raman, ABS, FL, XAS/XES, NRVS
   Peter Pinski           : DLPNO-MP2
   Christoph Reimann      : Effective Core Potentials
   Marius Retegan         : Local ZFS, SOC
   Christoph Riplinger    : Optimizer, TS searches, QM/MM, DLPNO-CCSD(T), (RO)-DLPNO pert. Triples
   Tobias Risthaus        : Range-separated hybrids, TD-DFT gradient, RPA, STAB
   Michael Roemelt        : Restricted open shell CIS
   Masaaki Saitow         : Open-shell DLPNO
   Barbara Sandhoefer     : DKH picture change effects
   Kantharuban Sivalingam : CASSCF convergence, NEVPT2, FIC-MRCI
   Georgi Stoychev        : AutoAux
   Boris Wezisla          : Elementary symmetry handling
   Frank Wennmohs         : Technical directorship


 We gratefully acknowledge several colleagues who have allowed us to
 interface, adapt or use parts of their codes:
   Stefan Grimme, W. Hujo, H. Kruse,             : VdW corrections, initial TS optimization,
                  C. Bannwarth                     DFT functionals, gCP, sTDA/sTD-DF
   Ed Valeev                                     : LibInt (2-el integral package), F12 methods
   Garnet Chan, S. Sharma, J. Yang, R. Olivares  : DMRG
   Ulf Ekstrom                                   : XCFun DFT Library
   Mihaly Kallay                                 : mrcc  (arbitrary order and MRCC methods)
   Jiri Pittner, Ondrej Demel                    : Mk-CCSD
   Frank Weinhold                                : gennbo (NPA and NBO analysis)
   Christopher J. Cramer and Donald G. Truhlar   : smd solvation model


 Your calculation uses the libint2 library for the computation of 2-el integrals
 For citations please refer to: http://libint.valeyev.net

 This ORCA versions uses:
   CBLAS   interface :  Fast vector & matrix operations
   LAPACKE interface :  Fast linear algebra routines
   SCALAPACK package :  Parallel linear algebra routines


Your calculation utilizes the atom-pairwise dispersion correction
with the zero-damping scheme (D30)
Cite in your paper:
S.Grimme, J.Antony, S.Ehrlich and H.Krieg, J.Chem.Phys., 132, (2010), 154104 
   

XCFun DFT library Copyright 2009-2010 Ulf Ekstrom and contributors.
See http://admol.org/xcfun for more information. This is free soft-
ware; see the source code for copying conditions. There is ABSOLUTELY
NO WARRANTY; not even for MERCHANTABILITY or FITNESS FOR A PARTICULAR
PURPOSE. For details see the documentation. Scientific users of this 
library should cite U. Ekstrom, L. Visscher, R. Bast, A. J. Thorvald-
sen and K. Ruud; J.Chem.Theor.Comp. 2010, DOI: 10.1021/ct100117s
XCFun Version 0.99 
Your calculation utilizes the basis: 6-31G(d)
   H-He, Li-Ne : W. J. Hehre, R. Ditchfield and J.A. Pople, J. Chem. Phys. 56, 2257 (1972).
                 Note: He and Ne are unpublished basis sets taken from the Gaussian program.
                 Note: Li and B from J. D. Dill and J. A. Pople, J. Chem. Phys. 62, 2921 (1975).
   Na - Ar     : M. M. Francl, W. J. Pietro, W. J. Hehre, J. S. Binkley, M. S. Gordon, 
                 D. J. DeFrees and J. A. Pople, J. Chem. Phys. 77, 3654 (1982).
   K - Zn      : V. A. Rassolov, J. A. Pople, M. A. Ratner, and T. L. Windus, J. Chem. Phys. 109, 1223 (1998).

================================================================================
                                        WARNINGS
                       Please study these warnings very carefully!
================================================================================

Warning: TCutStore was < 0. Adjusted to Thresh (uncritical)

INFO   : the flag for use of LIBINT has been found!

================================================================================
                                       INPUT FILE
================================================================================
NAME = initial38.inp
|  1> ! WB97X-D3 6-31G(d) VerySlowConv
|  2> ! KDIIS NOSOSCF
|  3> %base "Scan_38"
|  4> 
|  5> %scf
|  6> maxiter 999
|  7> end
|  8> 
|  9> * xyz 0 1
| 10> C         -3.110544786932    0.977506058689    0.337217523324
| 11> C          1.077565473331    1.572233986791   -0.336243015749
| 12> H         -2.980303621222    0.605103932725   -0.665902049633
| 13> H         -2.987826135969    2.028240860301    0.544078572832
| 14> H          0.947680874036    0.522689509120   -0.544578262744
| 15> H          0.940158196755    1.945855652374    0.665427231970
| 16> **                         ****END OF INPUT****
================================================================================

                       ****************************
                       * Single Point Calculation *
                       ****************************

---------------------------------
CARTESIAN COORDINATES (ANGSTROEM)
---------------------------------
  C     -3.110545    0.977506    0.337218
  C      1.077565    1.572234   -0.336243
  H     -2.980304    0.605104   -0.665902
  H     -2.987826    2.028241    0.544079
  H      0.947681    0.522690   -0.544578
  H      0.940158    1.945856    0.665427

----------------------------
CARTESIAN COORDINATES (A.U.)
----------------------------
  NO LB      ZA    FRAG     MASS         X           Y           Z
   0 C     6.0000    0    12.011   -5.878078    1.847219    0.637249
   1 C     6.0000    0    12.011    2.036304    2.971092   -0.635407
   2 H     1.0000    0     1.008   -5.631958    1.143481   -1.258373
   3 H     1.0000    0     1.008   -5.646173    3.832820    1.028159
   4 H     1.0000    0     1.008    1.790857    0.987740   -1.029104
   5 H     1.0000    0     1.008    1.776642    3.677134    1.257475

--------------------------------
INTERNAL COORDINATES (ANGSTROEM)
--------------------------------
 C      0   0   0     0.000000000000     0.00000000     0.00000000
 C      1   0   0     4.283400279950     0.00000000     0.00000000
 H      1   2   0     1.077912325895    77.49722854     0.00000000
 H      1   2   3     1.077912326869    77.49722915   234.86908073
 H      2   1   3     1.077876242842    77.13668111   305.29375385
 H      2   1   3     1.077876242346    77.13667979   179.83716688

---------------------------
INTERNAL COORDINATES (A.U.)
---------------------------
 C      0   0   0     0.000000000000     0.00000000     0.00000000
 C      1   0   0     8.094453451067     0.00000000     0.00000000
 H      1   2   0     2.036959092321    77.49722854     0.00000000
 H      1   2   3     2.036959094160    77.49722915   234.86908073
 H      2   1   3     2.036890905232    77.13668111   305.29375385
 H      2   1   3     2.036890904295    77.13667979   179.83716688

---------------------
BASIS SET INFORMATION
---------------------
There are 2 groups of distinct atoms

 Group   1 Type C   : 10s4p1d contracted to 3s2p1d pattern {631/31/1}
 Group   2 Type H   : 4s contracted to 2s pattern {31}

Atom   0C    basis set group =>   1
Atom   1C    basis set group =>   1
Atom   2H    basis set group =>   2
Atom   3H    basis set group =>   2
Atom   4H    basis set group =>   2
Atom   5H    basis set group =>   2
------------------------------------------------------------------------------
                           ORCA GTO INTEGRAL CALCULATION
------------------------------------------------------------------------------

                         BASIS SET STATISTICS AND STARTUP INFO

 # of primitive gaussian shells          ...   46
 # of primitive gaussian functions       ...   70
 # of contracted shells                  ...   20
 # of contracted basis functions         ...   36
 Highest angular momentum                ...    2
 Maximum contraction depth               ...    6
 Integral package used                   ... LIBINT
 Integral threshhold            Thresh   ...  1.000e-10
 Primitive cut-off              TCut     ...  1.000e-11


------------------------------ INTEGRAL EVALUATION ----------------------------


 * One electron integrals 
 Pre-screening matrix                    ... done
 Shell pair data                         ... done (   0.000 sec)

-------------------------------------------------------------------------------
                                 ORCA SCF
-------------------------------------------------------------------------------

------------
SCF SETTINGS
------------
Hamiltonian:
 Density Functional     Method          .... DFT(GTOs)
 Exchange Functional    Exchange        .... WB97X-D3
 Correlation Functional Correlation     .... WB97X-D3
 Gradients option       PostSCFGGA      .... off
 Hybrid DFT is turned on
   Fraction HF Exchange ScalHFX         ....  0.195728
   Scaling of DF-GGA-X  ScalDFX         ....  0.000000
   Scaling of DF-GGA-C  ScalDFC         ....  1.000000
   Scaling of DF-LDA-C  ScalLDAC        ....  1.000000
   Perturbative correction              ....  0.000000
 Long-range corrected/Screened/Range-Separated Hybrid DFT is turned on
   Amount of maximum screened exact exchange              ....  0.804272
   Range separation parameter mu (erf(mu*r12)/r12)        ....  0.250000


General Settings:
 Integral files         IntName         .... Scan_38
 Hartree-Fock type      HFTyp           .... RHF
 Total Charge           Charge          ....    0
 Multiplicity           Mult            ....    1
 Number of Electrons    NEL             ....   16
 Basis Dimension        Dim             ....   36
 Nuclear Repulsion      ENuc            ....     20.3464692630 Eh

Convergence Acceleration:
 DIIS                   CNVDIIS         .... on
   Start iteration      DIISMaxIt       ....     0
   Startup error        DIISStart       ....  0.200000
   # of expansion vecs  DIISMaxEq       ....     5
   Bias factor          DIISBfac        ....   1.050
   Max. coefficient     DIISMaxC        ....  10.000
 Newton-Raphson         CNVNR           .... off
 SOSCF                  CNVSOSCF        .... off
 Level Shifting         CNVShift        .... off
 Zerner damping         CNVZerner       .... off
 Static damping         CNVDamp         .... off
 Fernandez-Rico         CNVRico         .... off

SCF Procedure:
 Maximum # iterations   MaxIter         ....   999
 SCF integral mode      SCFMode         .... Direct
   Integral package                     .... LIBINT
 Reset frequeny         DirectResetFreq ....    20
 Integral Threshold     Thresh          ....  1.000e-10 Eh
 Primitive CutOff       TCut            ....  1.000e-11 Eh

Convergence Tolerance:
 Convergence Check Mode ConvCheckMode   .... All-Criteria
 Convergence forced     ConvForced      .... 0
 Energy Change          TolE            ....  1.000e-06 Eh
 Max Density Change     TolMaxP         ....  1.000e-05
 RMS Density Change     TolRMSP         ....  1.000e-06
 DIIS Error             TolErr          ....  1.000e-06


Diagonalization of the overlap matrix:
Smallest eigenvalue                        ... 3.588e-02
Time for diagonalization                   ...    0.001 sec
Threshold for overlap eigenvalues          ... 1.000e-08
Number of eigenvalues below threshold      ... 0
Time for construction of square roots      ...    0.004 sec
Total time needed                          ...    0.005 sec

-------------------
DFT GRID GENERATION
-------------------

General Integration Accuracy     IntAcc      ...  4.340
Radial Grid Type                 RadialGrid  ... Gauss-Chebyshev
Angular Grid (max. acc.)         AngularGrid ... Lebedev-110
Angular grid pruning method      GridPruning ... 3 (G Style)
Weight generation scheme         WeightScheme... Becke
Basis function cutoff            BFCut       ...    1.0000e-10
Integration weight cutoff        WCut        ...    1.0000e-14
Grids for H and He will be reduced by one unit

# of grid points (after initial pruning)     ...   6488 (   0.0 sec)
# of grid points (after weights+screening)   ...   6388 (   0.0 sec)
nearest neighbour list constructed           ...    0.0 sec
Grid point re-assignment to atoms done       ...    0.0 sec
Grid point division into batches done        ...    0.0 sec
Reduced shell lists constructed in    0.0 sec

Total number of grid points                  ...     6388
Total number of batches                      ...      103
Average number of points per batch           ...       62
Average number of grid points per atom       ...     1065
Average number of shells per batch           ...    14.38 (71.92%)
Average number of basis functions per batch  ...    25.42 (70.62%)
Average number of large shells per batch     ...    12.55 (87.23%)
Average number of large basis fcns per batch ...    22.14 (87.10%)
Maximum spatial batch extension              ...  19.52, 21.77, 21.93 au
Average spatial batch extension              ...   5.58,  5.09,  5.14 au

Time for grid setup =    0.044 sec

------------------------------
INITIAL GUESS: MODEL POTENTIAL
------------------------------
Loading Hartree-Fock densities                     ... done
Calculating cut-offs                               ... done
Setting up the integral package                    ... done
Initializing the effective Hamiltonian             ... done
Starting the Coulomb interaction                   ... done (   0.0 sec)
Reading the grid                                   ... done
Mapping shells                                     ... done
Starting the XC term evaluation                    ... done (   0.0 sec)
  promolecular density results
     # of electrons  =     15.999463382
     EX              =    -11.194402404
     EC              =     -0.448900933
     EX+EC           =    -11.643303336
Transforming the Hamiltonian                       ... done (   0.0 sec)
Diagonalizing the Hamiltonian                      ... done (   0.0 sec)
Back transforming the eigenvectors                 ... done (   0.0 sec)
Now organizing SCF variables                       ... done
                      ------------------
                      INITIAL GUESS DONE (   0.2 sec)
                      ------------------
--------------
SCF ITERATIONS
--------------
ITER       Energy         Delta-E        Max-DP      RMS-DP      [F,P]   Gradient Norm
               ***  Starting incremental Fock matrix formation  ***
                             ****Resetting KDIIS****
                             ****Turning on KDIIS(Cayley)****
  0    -78.1800842188   0.000000000000 0.01197021  0.00105806  0.0472814   0.049206995
  1    -78.1864251016  -0.006340882829 0.01275261  0.00126787  0.0406617   0.042410617
  2    -78.1928122342  -0.006387132570 0.02120606  0.00213666  0.0328884   0.034271691
  3    -78.2005033164  -0.007691082175 0.03189369  0.00327920  0.0198788   0.020733724
  4    -78.2049433729  -0.004440056478 0.00168569  0.00011565  0.0002864   0.000218116
                          ***Energy convergence achieved***
  5    -78.2049443161  -0.000000943241 0.00012338  0.00001505  0.0001133   0.000086041
  6    -78.2049444452  -0.000000129148 0.00017016  0.00001928  0.0000423   0.000028999
  7    -78.2049445336  -0.000000088399 0.00019358  0.00002328  0.0000278   0.000015150

            ***Energy convergence in two consecutive cycles with***
                    ***'reasonable' density convergence***
                       *** signaling convergence ***

                    *** KDIIS BlockDiag ( 0.000 sec) ***

               *****************************************************
               *                     SUCCESS                       *
               *           SCF CONVERGED AFTER   8 CYCLES          *
               *****************************************************

Setting up the final grid:

General Integration Accuracy     IntAcc      ...  4.670
Radial Grid Type                 RadialGrid  ... Gauss-Chebyshev
Angular Grid (max. acc.)         AngularGrid ... Lebedev-302
Angular grid pruning method      GridPruning ... 3 (G Style)
Weight generation scheme         WeightScheme... Becke
Basis function cutoff            BFCut       ...    1.0000e-10
Integration weight cutoff        WCut        ...    1.0000e-14
Grids for H and He will be reduced by one unit

# of grid points (after initial pruning)     ...  26000 (   0.0 sec)
# of grid points (after weights+screening)   ...  25526 (   0.0 sec)
nearest neighbour list constructed           ...    0.0 sec
Grid point re-assignment to atoms done       ...    0.0 sec
Grid point division into batches done        ...    0.1 sec
Reduced shell lists constructed in    0.2 sec

Total number of grid points                  ...    25526
Total number of batches                      ...      402
Average number of points per batch           ...       63
Average number of grid points per atom       ...     4254
Average number of shells per batch           ...    12.86 (64.28%)
Average number of basis functions per batch  ...    22.47 (62.41%)
Average number of large shells per batch     ...    11.07 (86.08%)
Average number of large basis fcns per batch ...    19.54 (86.98%)
Maximum spatial batch extension              ...  21.77, 21.17, 20.59 au
Average spatial batch extension              ...   3.40,  3.38,  3.35 au

Final grid set up in    0.2 sec
Final integration                            ... done (   0.2 sec)
Change in XC energy                          ...     0.001015933
Integrated number of electrons               ...    15.999979042
Previous integrated no of electrons          ...    16.002584615

----------------
TOTAL SCF ENERGY
----------------

Total Energy       :          -78.20392865 Eh           -2128.03709 eV

Components:
Nuclear Repulsion  :           20.34646926 Eh             553.65558 eV
Electronic Energy  :          -98.55039791 Eh           -2681.69266 eV
One Electron Energy:         -143.77460241 Eh           -3912.30583 eV
Two Electron Energy:           45.22420449 Eh            1230.61317 eV

Virial components:
Potential Energy   :         -156.14967024 Eh           -4249.04854 eV
Kinetic Energy     :           77.94574159 Eh            2121.01146 eV
Virial Ratio       :            2.00331239


DFT components:
N(Alpha)           :        7.999989521226 electrons
N(Beta)            :        7.999989521226 electrons
N(Total)           :       15.999979042452 electrons
E(XC)              :       -8.145027723867 Eh       

---------------
SCF CONVERGENCE
---------------

  Last Energy change         ...   -5.0261e-08  Tolerance :   1.0000e-06
  Last MAX-Density change    ...    3.8951e-05  Tolerance :   1.0000e-05
  Last RMS-Density change    ...    2.6607e-06  Tolerance :   1.0000e-06
  Last DIIS Error            ...    4.2245e-06  Tolerance :   1.0000e-06

             **** THE GBW FILE WAS UPDATED (Scan_38.gbw) ****
             **** DENSITY FILE WAS UPDATED (Scan_38.scfp.tmp) ****
             **** ENERGY FILE WAS UPDATED (Scan_38.en.tmp) ****
----------------
ORBITAL ENERGIES
----------------

  NO   OCC          E(Eh)            E(eV) 
   0   2.0000     -10.337878      -281.3080 
   1   2.0000     -10.337821      -281.3064 
   2   2.0000      -0.778659       -21.1884 
   3   2.0000      -0.777102       -21.1460 
   4   2.0000      -0.542248       -14.7553 
   5   2.0000      -0.541080       -14.7235 
   6   2.0000      -0.313736        -8.5372 
   7   2.0000      -0.313039        -8.5182 
   8   0.0000      -0.029106        -0.7920 
   9   0.0000      -0.017412        -0.4738 
  10   0.0000       0.203125         5.5273 
  11   0.0000       0.214953         5.8492 
  12   0.0000       0.268630         7.3098 
  13   0.0000       0.279855         7.6153 
  14   0.0000       0.617788        16.8109 
  15   0.0000       0.654246        17.8029 
  16   0.0000       0.655970        17.8498 
  17   0.0000       0.658424        17.9166 
  18   0.0000       0.665423        18.1071 
  19   0.0000       0.705841        19.2069 
  20   0.0000       0.762102        20.7378 
  21   0.0000       0.789211        21.4755 
  22   0.0000       1.009392        27.4670 
  23   0.0000       1.023134        27.8409 
  24   0.0000       1.025615        27.9084 
  25   0.0000       1.036975        28.2175 
  26   0.0000       1.741938        47.4005 
  27   0.0000       1.741943        47.4007 
  28   0.0000       1.788081        48.6562 
  29   0.0000       1.788136        48.6577 
  30   0.0000       1.792441        48.7748 
  31   0.0000       1.792593        48.7789 
  32   0.0000       2.169917        59.0465 
  33   0.0000       2.183096        59.4051 
  34   0.0000       2.306656        62.7673 
  35   0.0000       2.311640        62.9029 

                    ********************************
                    * MULLIKEN POPULATION ANALYSIS *
                    ********************************

-----------------------
MULLIKEN ATOMIC CHARGES
-----------------------
   0 C :   -0.342107
   1 C :   -0.342151
   2 H :    0.171061
   3 H :    0.171024
   4 H :    0.171073
   5 H :    0.171101
Sum of atomic charges:   -0.0000000

--------------------------------
MULLIKEN REDUCED ORBITAL CHARGES
--------------------------------
  0 C s       :     3.681636  s :     3.681636
      pz      :     1.319564  p :     2.637791
      px      :     0.085228
      py      :     1.232998
      dz2     :     0.012357  d :     0.022681
      dxz     :     0.000831
      dyz     :     0.001222
      dx2y2   :     0.007462
      dxy     :     0.000808
  1 C s       :     3.681611  s :     3.681611
      pz      :     1.313413  p :     2.637860
      px      :     0.095735
      py      :     1.228712
      dz2     :     0.012252  d :     0.022680
      dxz     :     0.000926
      dyz     :     0.001228
      dx2y2   :     0.007371
      dxy     :     0.000904
  2 H s       :     0.828939  s :     0.828939
  3 H s       :     0.828976  s :     0.828976
  4 H s       :     0.828927  s :     0.828927
  5 H s       :     0.828899  s :     0.828899


                     *******************************
                     * LOEWDIN POPULATION ANALYSIS *
                     *******************************

----------------------
LOEWDIN ATOMIC CHARGES
----------------------
   0 C :   -0.251390
   1 C :   -0.251380
   2 H :    0.125641
   3 H :    0.125726
   4 H :    0.125758
   5 H :    0.125645

-------------------------------
LOEWDIN REDUCED ORBITAL CHARGES
-------------------------------
  0 C s       :     3.424877  s :     3.424877
      pz      :     1.391632  p :     2.794160
      px      :     0.087653
      py      :     1.314874
      dz2     :     0.017486  d :     0.032353
      dxz     :     0.001035
      dyz     :     0.002551
      dx2y2   :     0.010232
      dxy     :     0.001049
  1 C s       :     3.424832  s :     3.424832
      pz      :     1.385282  p :     2.794197
      px      :     0.098458
      py      :     1.310457
      dz2     :     0.017343  d :     0.032351
      dxz     :     0.001152
      dyz     :     0.002562
      dx2y2   :     0.010121
      dxy     :     0.001173
  2 H s       :     0.874359  s :     0.874359
  3 H s       :     0.874274  s :     0.874274
  4 H s       :     0.874242  s :     0.874242
  5 H s       :     0.874355  s :     0.874355


                      *****************************
                      * MAYER POPULATION ANALYSIS *
                      *****************************

  NA   - Mulliken gross atomic population
  ZA   - Total nuclear charge
  QA   - Mulliken gross atomic charge
  VA   - Mayer's total valence
  BVA  - Mayer's bonded valence
  FA   - Mayer's free valence

  ATOM       NA         ZA         QA         VA         BVA        FA
  0 C      6.3421     6.0000    -0.3421     1.8458     1.8458     0.0000
  1 C      6.3422     6.0000    -0.3422     1.8458     1.8458    -0.0000
  2 H      0.8289     1.0000     0.1711     0.9243     0.9243    -0.0000
  3 H      0.8290     1.0000     0.1710     0.9248     0.9248    -0.0000
  4 H      0.8289     1.0000     0.1711     0.9248     0.9248     0.0000
  5 H      0.8289     1.0000     0.1711     0.9243     0.9243     0.0000

  Mayer bond orders larger than 0.1
B(  0-C ,  2-H ) :   0.9221 B(  0-C ,  3-H ) :   0.9226 B(  1-C ,  4-H ) :   0.9226 
B(  1-C ,  5-H ) :   0.9221 

-------
TIMINGS
-------

Total SCF time: 0 days 0 hours 0 min 2 sec 

Total time                  ....       2.828 sec
Sum of individual times     ....       2.708 sec  ( 95.8%)

Fock matrix formation       ....       2.302 sec  ( 81.4%)
  XC integration            ....       0.772 sec  ( 33.5% of F)
    Basis function eval.    ....       0.267 sec  ( 34.6% of XC)
    Density eval.           ....       0.036 sec  (  4.7% of XC)
    XC-Functional eval.     ....       0.245 sec  ( 31.8% of XC)
    XC-Potential eval.      ....       0.029 sec  (  3.8% of XC)
Diagonalization             ....       0.005 sec  (  0.2%)
Density matrix formation    ....       0.000 sec  (  0.0%)
Population analysis         ....       0.012 sec  (  0.4%)
Initial guess               ....       0.130 sec  (  4.6%)
Orbital Transformation      ....       0.000 sec  (  0.0%)
Orbital Orthonormalization  ....       0.000 sec  (  0.0%)
DIIS solution               ....       0.000 sec  (  0.0%)
Grid generation             ....       0.260 sec  (  9.2%)


-------------------------------------------------------------------------------
                          DFT DISPERSION CORRECTION                            
                                                                               
                              DFTD3 V3.1  Rev 1                                
                              USING zero damping                               
-------------------------------------------------------------------------------
The omegaB97X-D3 functional is recognized. Fit by Chai et al.
Active option DFTDOPT                   ...         3   

molecular C6(AA) [au] = 320.315332 


            DFT-D V3
 parameters
 s6 scaling factor         :     1.0000 
 rs6 scaling factor        :     1.2810 
 s8 scaling factor         :     1.0000 
 rs8 scaling factor        :     1.0940 
 Damping factor alpha6     :    14.0000 
 Damping factor alpha8     :    16.0000 
 ad hoc parameters k1-k3   :    16.0000     1.3333    -4.0000 

 Edisp/kcal,au: -0.230714460597  -0.000367666857 
 E6   /kcal   :  -0.159936502 
 E8   /kcal   :  -0.070777958 
 % E8         :  30.677729647 

-------------------------   ----------------
Dispersion correction           -0.000367667
-------------------------   ----------------


-------------------------   --------------------
FINAL SINGLE POINT ENERGY       -78.204296318035
-------------------------   --------------------


                            ***************************************
                            *     ORCA property calculations      *
                            ***************************************

                                    ---------------------
                                    Active property flags
                                    ---------------------
   (+) Dipole Moment


------------------------------------------------------------------------------
                       ORCA ELECTRIC PROPERTIES CALCULATION
------------------------------------------------------------------------------

Dipole Moment Calculation                       ... on
Quadrupole Moment Calculation                   ... off
Polarizability Calculation                      ... off
GBWName                                         ... Scan_38.gbw
Electron density file                           ... Scan_38.scfp.tmp

-------------
DIPOLE MOMENT
-------------
                                X             Y             Z
Electronic contribution:      0.00111      -0.00038       0.00037
Nuclear contribution   :     -0.01151       0.00194      -0.00235
                        -----------------------------------------
Total Dipole Moment    :     -0.01041       0.00156      -0.00198
                        -----------------------------------------
Magnitude (a.u.)       :      0.01071
Magnitude (Debye)      :      0.02721


Timings for individual modules:

Sum of individual times         ...        3.160 sec (=   0.053 min)
GTO integral calculation        ...        0.297 sec (=   0.005 min)   9.4 %
SCF iterations                  ...        2.864 sec (=   0.048 min)  90.6 %
                             ****ORCA TERMINATED NORMALLY****
TOTAL RUN TIME: 0 days 0 hours 0 minutes 3 seconds 482 msec
