
                                 *****************
                                 * O   R   C   A *
                                 *****************

           --- An Ab Initio, DFT and Semiempirical electronic structure package ---

                  #######################################################
                  #                        -***-                        #
                  #  Department of molecular theory and spectroscopy    #
                  #              Directorship: Frank Neese              #
                  # Max Planck Institute for Chemical Energy Conversion #
                  #                  D-45470 Muelheim/Ruhr              #
                  #                       Germany                       #
                  #                                                     #
                  #                  All rights reserved                #
                  #                        -***-                        #
                  #######################################################


                         Program Version 4.0.0.2 - RELEASE -


 With contributions from (in alphabetic order):
   Daniel Aravena         : Magnetic Properties
   Michael Atanasov       : Ab Initio Ligand Field Theory
   Ute Becker             : Parallelization
   Martin Brehm           : Molecular dynamics
   Dmytro Bykov           : SCF Hessian
   Vijay G. Chilkuri      : MRCI spin determinant printing
   Dipayan Datta          : RHF DLPNO-CCSD density
   Achintya Kumar Dutta   : EOM-CC, STEOM-CC
   Dmitry Ganyushin       : Spin-Orbit,Spin-Spin,Magnetic field MRCI
   Yang Guo               : DLPNO-NEVPT2, CIM, IAO-localization
   Andreas Hansen         : Spin unrestricted coupled pair/coupled cluster methods
   Lee Huntington         : MR-EOM, pCC
   Robert Izsak           : Overlap fitted RIJCOSX, COSX-SCS-MP3, EOM
   Christian Kollmar      : KDIIS, OOCD, Brueckner-CCSD(T), CCSD density
   Simone Kossmann        : Meta GGA functionals, TD-DFT gradient, OOMP2, MP2 Hessian
   Martin Krupicka        : AUTO-CI
   Dagmar Lenk            : GEPOL surface
   Dimitrios Liakos       : Extrapolation schemes; parallel MDCI
   Dimitrios Manganas     : ROCIS; embedding schemes
   Dimitrios Pantazis     : SARC Basis sets
   Taras Petrenko         : DFT Hessian,TD-DFT gradient, ASA, ECA, R-Raman, ABS, FL, XAS/XES, NRVS
   Peter Pinski           : DLPNO-MP2
   Christoph Reimann      : Effective Core Potentials
   Marius Retegan         : Local ZFS, SOC
   Christoph Riplinger    : Optimizer, TS searches, QM/MM, DLPNO-CCSD(T), (RO)-DLPNO pert. Triples
   Tobias Risthaus        : Range-separated hybrids, TD-DFT gradient, RPA, STAB
   Michael Roemelt        : Restricted open shell CIS
   Masaaki Saitow         : Open-shell DLPNO
   Barbara Sandhoefer     : DKH picture change effects
   Kantharuban Sivalingam : CASSCF convergence, NEVPT2, FIC-MRCI
   Georgi Stoychev        : AutoAux
   Boris Wezisla          : Elementary symmetry handling
   Frank Wennmohs         : Technical directorship


 We gratefully acknowledge several colleagues who have allowed us to
 interface, adapt or use parts of their codes:
   Stefan Grimme, W. Hujo, H. Kruse,             : VdW corrections, initial TS optimization,
                  C. Bannwarth                     DFT functionals, gCP, sTDA/sTD-DF
   Ed Valeev                                     : LibInt (2-el integral package), F12 methods
   Garnet Chan, S. Sharma, J. Yang, R. Olivares  : DMRG
   Ulf Ekstrom                                   : XCFun DFT Library
   Mihaly Kallay                                 : mrcc  (arbitrary order and MRCC methods)
   Jiri Pittner, Ondrej Demel                    : Mk-CCSD
   Frank Weinhold                                : gennbo (NPA and NBO analysis)
   Christopher J. Cramer and Donald G. Truhlar   : smd solvation model


 Your calculation uses the libint2 library for the computation of 2-el integrals
 For citations please refer to: http://libint.valeyev.net

 This ORCA versions uses:
   CBLAS   interface :  Fast vector & matrix operations
   LAPACKE interface :  Fast linear algebra routines
   SCALAPACK package :  Parallel linear algebra routines


Your calculation utilizes the atom-pairwise dispersion correction
with the zero-damping scheme (D30)
Cite in your paper:
S.Grimme, J.Antony, S.Ehrlich and H.Krieg, J.Chem.Phys., 132, (2010), 154104 
   

XCFun DFT library Copyright 2009-2010 Ulf Ekstrom and contributors.
See http://admol.org/xcfun for more information. This is free soft-
ware; see the source code for copying conditions. There is ABSOLUTELY
NO WARRANTY; not even for MERCHANTABILITY or FITNESS FOR A PARTICULAR
PURPOSE. For details see the documentation. Scientific users of this 
library should cite U. Ekstrom, L. Visscher, R. Bast, A. J. Thorvald-
sen and K. Ruud; J.Chem.Theor.Comp. 2010, DOI: 10.1021/ct100117s
XCFun Version 0.99 
Your calculation utilizes the basis: 6-31G(d)
   H-He, Li-Ne : W. J. Hehre, R. Ditchfield and J.A. Pople, J. Chem. Phys. 56, 2257 (1972).
                 Note: He and Ne are unpublished basis sets taken from the Gaussian program.
                 Note: Li and B from J. D. Dill and J. A. Pople, J. Chem. Phys. 62, 2921 (1975).
   Na - Ar     : M. M. Francl, W. J. Pietro, W. J. Hehre, J. S. Binkley, M. S. Gordon, 
                 D. J. DeFrees and J. A. Pople, J. Chem. Phys. 77, 3654 (1982).
   K - Zn      : V. A. Rassolov, J. A. Pople, M. A. Ratner, and T. L. Windus, J. Chem. Phys. 109, 1223 (1998).

================================================================================
                                        WARNINGS
                       Please study these warnings very carefully!
================================================================================

Warning: TCutStore was < 0. Adjusted to Thresh (uncritical)

INFO   : the flag for use of LIBINT has been found!

================================================================================
                                       INPUT FILE
================================================================================
NAME = initial4.inp
|  1> ! WB97X-D3 6-31G(d) VerySlowConv
|  2> ! KDIIS NOSOSCF
|  3> %base "Scan_4"
|  4> 
|  5> %scf
|  6> maxiter 999
|  7> end
|  8> 
|  9> * xyz 0 1
| 10> C         -1.596078380322    1.271862762940    0.000749227504
| 11> C         -0.441677899456    1.278615586945   -0.000672792943
| 12> H         -2.209893901197    0.584868382226   -0.581891273444
| 13> H         -2.217395447860    1.953378670887    0.581645895465
| 14> H          0.179638585397    0.597197124767   -0.581683974404
| 15> H          0.172137043439    1.965707472234    0.581852917823
| 16> **                         ****END OF INPUT****
================================================================================

                       ****************************
                       * Single Point Calculation *
                       ****************************

---------------------------------
CARTESIAN COORDINATES (ANGSTROEM)
---------------------------------
  C     -1.596078    1.271863    0.000749
  C     -0.441678    1.278616   -0.000673
  H     -2.209894    0.584868   -0.581891
  H     -2.217395    1.953379    0.581646
  H      0.179639    0.597197   -0.581684
  H      0.172137    1.965707    0.581853

----------------------------
CARTESIAN COORDINATES (A.U.)
----------------------------
  NO LB      ZA    FRAG     MASS         X           Y           Z
   0 C     6.0000    0    12.011   -3.016151    2.403472    0.001416
   1 C     6.0000    0    12.011   -0.834650    2.416233   -0.001271
   2 H     1.0000    0     1.008   -4.176094    1.105241   -1.099615
   3 H     1.0000    0     1.008   -4.190270    3.691351    1.099151
   4 H     1.0000    0     1.008    0.339468    1.128539   -1.099223
   5 H     1.0000    0     1.008    0.325292    3.714649    1.099543

--------------------------------
INTERNAL COORDINATES (ANGSTROEM)
--------------------------------
 C      0   0   0     0.000000000000     0.00000000     0.00000000
 C      1   0   0     1.154421107308     0.00000000     0.00000000
 H      1   2   0     1.090046203674   124.48064393     0.00000000
 H      1   2   3     1.089926497543   124.54426722   180.23086832
 H      2   1   3     1.089926276374   124.54428342   359.77872801
 H      2   1   3     1.090045983734   124.48066040   179.99039618

---------------------------
INTERNAL COORDINATES (A.U.)
---------------------------
 C      0   0   0     0.000000000000     0.00000000     0.00000000
 C      1   0   0     2.181539736030     0.00000000     0.00000000
 H      1   2   0     2.059888798265   124.48064393     0.00000000
 H      1   2   3     2.059662586461   124.54426722   180.23086832
 H      2   1   3     2.059662168511   124.54428342   359.77872801
 H      2   1   3     2.059888382638   124.48066040   179.99039618

---------------------
BASIS SET INFORMATION
---------------------
There are 2 groups of distinct atoms

 Group   1 Type C   : 10s4p1d contracted to 3s2p1d pattern {631/31/1}
 Group   2 Type H   : 4s contracted to 2s pattern {31}

Atom   0C    basis set group =>   1
Atom   1C    basis set group =>   1
Atom   2H    basis set group =>   2
Atom   3H    basis set group =>   2
Atom   4H    basis set group =>   2
Atom   5H    basis set group =>   2
------------------------------------------------------------------------------
                           ORCA GTO INTEGRAL CALCULATION
------------------------------------------------------------------------------

                         BASIS SET STATISTICS AND STARTUP INFO

 # of primitive gaussian shells          ...   46
 # of primitive gaussian functions       ...   70
 # of contracted shells                  ...   20
 # of contracted basis functions         ...   36
 Highest angular momentum                ...    2
 Maximum contraction depth               ...    6
 Integral package used                   ... LIBINT
 Integral threshhold            Thresh   ...  1.000e-10
 Primitive cut-off              TCut     ...  1.000e-11


------------------------------ INTEGRAL EVALUATION ----------------------------


 * One electron integrals 
 Pre-screening matrix                    ... done
 Shell pair data                         ... done (   0.000 sec)

-------------------------------------------------------------------------------
                                 ORCA SCF
-------------------------------------------------------------------------------

------------
SCF SETTINGS
------------
Hamiltonian:
 Density Functional     Method          .... DFT(GTOs)
 Exchange Functional    Exchange        .... WB97X-D3
 Correlation Functional Correlation     .... WB97X-D3
 Gradients option       PostSCFGGA      .... off
 Hybrid DFT is turned on
   Fraction HF Exchange ScalHFX         ....  0.195728
   Scaling of DF-GGA-X  ScalDFX         ....  0.000000
   Scaling of DF-GGA-C  ScalDFC         ....  1.000000
   Scaling of DF-LDA-C  ScalLDAC        ....  1.000000
   Perturbative correction              ....  0.000000
 Long-range corrected/Screened/Range-Separated Hybrid DFT is turned on
   Amount of maximum screened exact exchange              ....  0.804272
   Range separation parameter mu (erf(mu*r12)/r12)        ....  0.250000


General Settings:
 Integral files         IntName         .... Scan_4
 Hartree-Fock type      HFTyp           .... RHF
 Total Charge           Charge          ....    0
 Multiplicity           Mult            ....    1
 Number of Electrons    NEL             ....   16
 Basis Dimension        Dim             ....   36
 Nuclear Repulsion      ENuc            ....     35.9329039307 Eh

Convergence Acceleration:
 DIIS                   CNVDIIS         .... on
   Start iteration      DIISMaxIt       ....     0
   Startup error        DIISStart       ....  0.200000
   # of expansion vecs  DIISMaxEq       ....     5
   Bias factor          DIISBfac        ....   1.050
   Max. coefficient     DIISMaxC        ....  10.000
 Newton-Raphson         CNVNR           .... off
 SOSCF                  CNVSOSCF        .... off
 Level Shifting         CNVShift        .... off
 Zerner damping         CNVZerner       .... off
 Static damping         CNVDamp         .... off
 Fernandez-Rico         CNVRico         .... off

SCF Procedure:
 Maximum # iterations   MaxIter         ....   999
 SCF integral mode      SCFMode         .... Direct
   Integral package                     .... LIBINT
 Reset frequeny         DirectResetFreq ....    20
 Integral Threshold     Thresh          ....  1.000e-10 Eh
 Primitive CutOff       TCut            ....  1.000e-11 Eh

Convergence Tolerance:
 Convergence Check Mode ConvCheckMode   .... All-Criteria
 Convergence forced     ConvForced      .... 0
 Energy Change          TolE            ....  1.000e-06 Eh
 Max Density Change     TolMaxP         ....  1.000e-05
 RMS Density Change     TolRMSP         ....  1.000e-06
 DIIS Error             TolErr          ....  1.000e-06


Diagonalization of the overlap matrix:
Smallest eigenvalue                        ... 4.159e-03
Time for diagonalization                   ...    0.001 sec
Threshold for overlap eigenvalues          ... 1.000e-08
Number of eigenvalues below threshold      ... 0
Time for construction of square roots      ...    0.032 sec
Total time needed                          ...    0.033 sec

-------------------
DFT GRID GENERATION
-------------------

General Integration Accuracy     IntAcc      ...  4.340
Radial Grid Type                 RadialGrid  ... Gauss-Chebyshev
Angular Grid (max. acc.)         AngularGrid ... Lebedev-110
Angular grid pruning method      GridPruning ... 3 (G Style)
Weight generation scheme         WeightScheme... Becke
Basis function cutoff            BFCut       ...    1.0000e-10
Integration weight cutoff        WCut        ...    1.0000e-14
Grids for H and He will be reduced by one unit

# of grid points (after initial pruning)     ...   6488 (   0.0 sec)
# of grid points (after weights+screening)   ...   6234 (   0.0 sec)
nearest neighbour list constructed           ...    0.0 sec
Grid point re-assignment to atoms done       ...    0.0 sec
Grid point division into batches done        ...    0.0 sec
Reduced shell lists constructed in    0.0 sec

Total number of grid points                  ...     6234
Total number of batches                      ...      100
Average number of points per batch           ...       62
Average number of grid points per atom       ...     1039
Average number of shells per batch           ...    18.01 (90.05%)
Average number of basis functions per batch  ...    32.76 (91.01%)
Average number of large shells per batch     ...    16.45 (91.31%)
Average number of large basis fcns per batch ...    30.64 (93.53%)
Maximum spatial batch extension              ...  20.05, 20.74, 31.36 au
Average spatial batch extension              ...   4.91,  5.53,  6.09 au

Time for grid setup =    0.089 sec

------------------------------
INITIAL GUESS: MODEL POTENTIAL
------------------------------
Loading Hartree-Fock densities                     ... done
Calculating cut-offs                               ... done
Setting up the integral package                    ... done
Initializing the effective Hamiltonian             ... done
Starting the Coulomb interaction                   ... done (   0.0 sec)
Reading the grid                                   ... done
Mapping shells                                     ... done
Starting the XC term evaluation                    ... done (   0.2 sec)
  promolecular density results
     # of electrons  =     16.005913802
     EX              =    -11.420908313
     EC              =     -0.495350983
     EX+EC           =    -11.916259296
Transforming the Hamiltonian                       ... done (   0.0 sec)
Diagonalizing the Hamiltonian                      ... done (   0.0 sec)
Back transforming the eigenvectors                 ... done (   0.0 sec)
Now organizing SCF variables                       ... done
                      ------------------
                      INITIAL GUESS DONE (   0.7 sec)
                      ------------------
--------------
SCF ITERATIONS
--------------
ITER       Energy         Delta-E        Max-DP      RMS-DP      [F,P]   Gradient Norm
               ***  Starting incremental Fock matrix formation  ***
                             ****Resetting KDIIS****
                             ****Turning on KDIIS(Cayley)****
  0    -78.3826866486   0.000000000000 0.02574398  0.00227360  0.1364484   0.118184298
  1    -78.4230430417  -0.040356393129 0.02130619  0.00200175  0.1139379   0.097038300
  2    -78.4513936653  -0.028350623571 0.03496393  0.00342900  0.0933990   0.079335878
  3    -78.4864110700  -0.035017404732 0.05380804  0.00544072  0.0580347   0.049341318
  4    -78.5083597995  -0.021948729409 0.00239856  0.00028705  0.0023726   0.001722576
  5    -78.5083895326  -0.000029733155 0.00090778  0.00010413  0.0010037   0.000595772
  6    -78.5083915240  -0.000001991428 0.00053831  0.00006230  0.0005426   0.000403725
  7    -78.5083931656  -0.000001641551 0.00009786  0.00001102  0.0001123   0.000086339
                          ***Energy convergence achieved***
                           ***RMSP convergence achieved***
                           ***MAXP convergence achieved***
                    *** KDIIS BlockDiag ( 0.000 sec) ***

               *****************************************************
               *                     SUCCESS                       *
               *           SCF CONVERGED AFTER   8 CYCLES          *
               *****************************************************

Setting up the final grid:

General Integration Accuracy     IntAcc      ...  4.670
Radial Grid Type                 RadialGrid  ... Gauss-Chebyshev
Angular Grid (max. acc.)         AngularGrid ... Lebedev-302
Angular grid pruning method      GridPruning ... 3 (G Style)
Weight generation scheme         WeightScheme... Becke
Basis function cutoff            BFCut       ...    1.0000e-10
Integration weight cutoff        WCut        ...    1.0000e-14
Grids for H and He will be reduced by one unit

# of grid points (after initial pruning)     ...  26000 (   0.0 sec)
# of grid points (after weights+screening)   ...  25120 (   0.1 sec)
nearest neighbour list constructed           ...    0.0 sec
Grid point re-assignment to atoms done       ...    0.0 sec
Grid point division into batches done        ...    0.2 sec
Reduced shell lists constructed in    0.5 sec

Total number of grid points                  ...    25120
Total number of batches                      ...      394
Average number of points per batch           ...       63
Average number of grid points per atom       ...     4187
Average number of shells per batch           ...    16.39 (81.95%)
Average number of basis functions per batch  ...    29.97 (83.26%)
Average number of large shells per batch     ...    14.81 (90.33%)
Average number of large basis fcns per batch ...    27.61 (92.09%)
Maximum spatial batch extension              ...  18.04, 19.43, 20.64 au
Average spatial batch extension              ...   3.04,  3.25,  3.21 au

Final grid set up in    0.7 sec
Final integration                            ... done (   0.4 sec)
Change in XC energy                          ...     0.001357370
Integrated number of electrons               ...    16.000005015
Previous integrated no of electrons          ...    16.003944438

----------------
TOTAL SCF ENERGY
----------------

Total Energy       :          -78.50703588 Eh           -2136.28505 eV

Components:
Nuclear Repulsion  :           35.93290393 Eh             977.78403 eV
Electronic Energy  :         -114.43993981 Eh           -3114.06908 eV
One Electron Energy:         -175.27699663 Eh           -4769.52956 eV
Two Electron Energy:           60.83705682 Eh            1655.46048 eV

Virial components:
Potential Energy   :         -157.24983560 Eh           -4278.98557 eV
Kinetic Energy     :           78.74279973 Eh            2142.70051 eV
Virial Ratio       :            1.99700590


DFT components:
N(Alpha)           :        8.000002507535 electrons
N(Beta)            :        8.000002507535 electrons
N(Total)           :       16.000005015070 electrons
E(XC)              :       -8.384353010164 Eh       

---------------
SCF CONVERGENCE
---------------

  Last Energy change         ...   -8.1601e-08  Tolerance :   1.0000e-06
  Last MAX-Density change    ...    6.0549e-06  Tolerance :   1.0000e-05
  Last RMS-Density change    ...    4.8253e-07  Tolerance :   1.0000e-06
  Last DIIS Error            ...    1.7792e-06  Tolerance :   1.0000e-06

             **** THE GBW FILE WAS UPDATED (Scan_4.gbw) ****
             **** DENSITY FILE WAS UPDATED (Scan_4.scfp.tmp) ****
             **** ENERGY FILE WAS UPDATED (Scan_4.en.tmp) ****
----------------
ORBITAL ENERGIES
----------------

  NO   OCC          E(Eh)            E(eV) 
   0   2.0000     -10.254236      -279.0319 
   1   2.0000     -10.250692      -278.9355 
   2   2.0000      -0.909508       -24.7490 
   3   2.0000      -0.671266       -18.2661 
   4   2.0000      -0.579218       -15.7613 
   5   2.0000      -0.538923       -14.6648 
   6   2.0000      -0.412141       -11.2149 
   7   2.0000      -0.396032       -10.7766 
   8   0.0000       0.150490         4.0950 
   9   0.0000       0.215736         5.8705 
  10   0.0000       0.223113         6.0712 
  11   0.0000       0.262024         7.1300 
  12   0.0000       0.363872         9.9015 
  13   0.0000       0.469133        12.7658 
  14   0.0000       0.530769        14.4430 
  15   0.0000       0.616601        16.7786 
  16   0.0000       0.693758        18.8781 
  17   0.0000       0.771051        20.9814 
  18   0.0000       0.774503        21.0753 
  19   0.0000       0.906358        24.6633 
  20   0.0000       0.929183        25.2843 
  21   0.0000       1.014508        27.6062 
  22   0.0000       1.067643        29.0520 
  23   0.0000       1.079650        29.3788 
  24   0.0000       1.347917        36.6787 
  25   0.0000       1.356360        36.9084 
  26   0.0000       1.581512        43.0351 
  27   0.0000       1.651488        44.9393 
  28   0.0000       1.911710        52.0203 
  29   0.0000       2.012105        54.7522 
  30   0.0000       2.184917        59.4546 
  31   0.0000       2.339972        63.6739 
  32   0.0000       2.468494        67.1711 
  33   0.0000       2.667787        72.5942 
  34   0.0000       3.016357        82.0792 
  35   0.0000       3.162623        86.0593 

                    ********************************
                    * MULLIKEN POPULATION ANALYSIS *
                    ********************************

-----------------------
MULLIKEN ATOMIC CHARGES
-----------------------
   0 C :   -0.315071
   1 C :   -0.315071
   2 H :    0.157458
   3 H :    0.157613
   4 H :    0.157613
   5 H :    0.157458
Sum of atomic charges:   -0.0000000

--------------------------------
MULLIKEN REDUCED ORBITAL CHARGES
--------------------------------
  0 C s       :     3.197374  s :     3.197374
      pz      :     1.017591  p :     3.077835
      px      :     1.033115
      py      :     1.027130
      dz2     :     0.001476  d :     0.039862
      dxz     :     0.013659
      dyz     :     0.004322
      dx2y2   :     0.004811
      dxy     :     0.015594
  1 C s       :     3.197374  s :     3.197374
      pz      :     1.017591  p :     3.077835
      px      :     1.033115
      py      :     1.027130
      dz2     :     0.001476  d :     0.039862
      dxz     :     0.013659
      dyz     :     0.004322
      dx2y2   :     0.004811
      dxy     :     0.015594
  2 H s       :     0.842542  s :     0.842542
  3 H s       :     0.842387  s :     0.842387
  4 H s       :     0.842387  s :     0.842387
  5 H s       :     0.842542  s :     0.842542


                     *******************************
                     * LOEWDIN POPULATION ANALYSIS *
                     *******************************

----------------------
LOEWDIN ATOMIC CHARGES
----------------------
   0 C :   -0.261639
   1 C :   -0.261639
   2 H :    0.130791
   3 H :    0.130848
   4 H :    0.130848
   5 H :    0.130791

-------------------------------
LOEWDIN REDUCED ORBITAL CHARGES
-------------------------------
  0 C s       :     2.931616  s :     2.931616
      pz      :     1.026160  p :     3.233638
      px      :     1.165498
      py      :     1.041980
      dz2     :     0.005317  d :     0.096385
      dxz     :     0.031033
      dyz     :     0.006088
      dx2y2   :     0.017279
      dxy     :     0.036667
  1 C s       :     2.931616  s :     2.931616
      pz      :     1.026160  p :     3.233638
      px      :     1.165498
      py      :     1.041980
      dz2     :     0.005317  d :     0.096385
      dxz     :     0.031033
      dyz     :     0.006088
      dx2y2   :     0.017279
      dxy     :     0.036667
  2 H s       :     0.869209  s :     0.869209
  3 H s       :     0.869152  s :     0.869152
  4 H s       :     0.869152  s :     0.869152
  5 H s       :     0.869209  s :     0.869209


                      *****************************
                      * MAYER POPULATION ANALYSIS *
                      *****************************

  NA   - Mulliken gross atomic population
  ZA   - Total nuclear charge
  QA   - Mulliken gross atomic charge
  VA   - Mayer's total valence
  BVA  - Mayer's bonded valence
  FA   - Mayer's free valence

  ATOM       NA         ZA         QA         VA         BVA        FA
  0 C      6.3151     6.0000    -0.3151     3.9289     3.9289    -0.0000
  1 C      6.3151     6.0000    -0.3151     3.9289     3.9289    -0.0000
  2 H      0.8425     1.0000     0.1575     0.9374     0.9374    -0.0000
  3 H      0.8424     1.0000     0.1576     0.9374     0.9374     0.0000
  4 H      0.8424     1.0000     0.1576     0.9374     0.9374    -0.0000
  5 H      0.8425     1.0000     0.1575     0.9374     0.9374     0.0000

  Mayer bond orders larger than 0.1
B(  0-C ,  1-C ) :   2.0678 B(  0-C ,  2-H ) :   0.9414 B(  0-C ,  3-H ) :   0.9413 
B(  1-C ,  4-H ) :   0.9413 B(  1-C ,  5-H ) :   0.9414 

-------
TIMINGS
-------

Total SCF time: 0 days 0 hours 0 min 11 sec 

Total time                  ....      11.670 sec
Sum of individual times     ....      11.129 sec  ( 95.4%)

Fock matrix formation       ....       9.554 sec  ( 81.9%)
  XC integration            ....       2.045 sec  ( 21.4% of F)
    Basis function eval.    ....       0.524 sec  ( 25.6% of XC)
    Density eval.           ....       0.068 sec  (  3.3% of XC)
    XC-Functional eval.     ....       0.445 sec  ( 21.8% of XC)
    XC-Potential eval.      ....       0.163 sec  (  8.0% of XC)
Diagonalization             ....       0.120 sec  (  1.0%)
Density matrix formation    ....       0.000 sec  (  0.0%)
Population analysis         ....       0.018 sec  (  0.2%)
Initial guess               ....       0.629 sec  (  5.4%)
Orbital Transformation      ....       0.000 sec  (  0.0%)
Orbital Orthonormalization  ....       0.000 sec  (  0.0%)
DIIS solution               ....       0.000 sec  (  0.0%)
Grid generation             ....       0.807 sec  (  6.9%)


-------------------------------------------------------------------------------
                          DFT DISPERSION CORRECTION                            
                                                                               
                              DFTD3 V3.1  Rev 1                                
                              USING zero damping                               
-------------------------------------------------------------------------------
The omegaB97X-D3 functional is recognized. Fit by Chai et al.
Active option DFTDOPT                   ...         3   

molecular C6(AA) [au] = 294.281710 


            DFT-D V3
 parameters
 s6 scaling factor         :     1.0000 
 rs6 scaling factor        :     1.2810 
 s8 scaling factor         :     1.0000 
 rs8 scaling factor        :     1.0940 
 Damping factor alpha6     :    14.0000 
 Damping factor alpha8     :    16.0000 
 ad hoc parameters k1-k3   :    16.0000     1.3333    -4.0000 

 Edisp/kcal,au: -0.144525018330  -0.000230315252 
 E6   /kcal   :  -0.047051749 
 E8   /kcal   :  -0.097473270 
 % E8         :  67.443872812 

-------------------------   ----------------
Dispersion correction           -0.000230315
-------------------------   ----------------


-------------------------   --------------------
FINAL SINGLE POINT ENERGY       -78.507266192482
-------------------------   --------------------


                            ***************************************
                            *     ORCA property calculations      *
                            ***************************************

                                    ---------------------
                                    Active property flags
                                    ---------------------
   (+) Dipole Moment


------------------------------------------------------------------------------
                       ORCA ELECTRIC PROPERTIES CALCULATION
------------------------------------------------------------------------------

Dipole Moment Calculation                       ... on
Quadrupole Moment Calculation                   ... off
Polarizability Calculation                      ... off
GBWName                                         ... Scan_4.gbw
Electron density file                           ... Scan_4.scfp.tmp

-------------
DIPOLE MOMENT
-------------
                                X             Y             Z
Electronic contribution:      0.00000      -0.00011       0.00013
Nuclear contribution   :     -0.00000       0.00016      -0.00018
                        -----------------------------------------
Total Dipole Moment    :     -0.00000       0.00005      -0.00006
                        -----------------------------------------
Magnitude (a.u.)       :      0.00008
Magnitude (Debye)      :      0.00019


Timings for individual modules:

Sum of individual times         ...       13.292 sec (=   0.222 min)
GTO integral calculation        ...        1.301 sec (=   0.022 min)   9.8 %
SCF iterations                  ...       11.991 sec (=   0.200 min)  90.2 %
                             ****ORCA TERMINATED NORMALLY****
TOTAL RUN TIME: 0 days 0 hours 0 minutes 15 seconds 129 msec
