
                                 *****************
                                 * O   R   C   A *
                                 *****************

           --- An Ab Initio, DFT and Semiempirical electronic structure package ---

                  #######################################################
                  #                        -***-                        #
                  #  Department of molecular theory and spectroscopy    #
                  #              Directorship: Frank Neese              #
                  # Max Planck Institute for Chemical Energy Conversion #
                  #                  D-45470 Muelheim/Ruhr              #
                  #                       Germany                       #
                  #                                                     #
                  #                  All rights reserved                #
                  #                        -***-                        #
                  #######################################################


                         Program Version 4.0.0.2 - RELEASE -


 With contributions from (in alphabetic order):
   Daniel Aravena         : Magnetic Properties
   Michael Atanasov       : Ab Initio Ligand Field Theory
   Ute Becker             : Parallelization
   Martin Brehm           : Molecular dynamics
   Dmytro Bykov           : SCF Hessian
   Vijay G. Chilkuri      : MRCI spin determinant printing
   Dipayan Datta          : RHF DLPNO-CCSD density
   Achintya Kumar Dutta   : EOM-CC, STEOM-CC
   Dmitry Ganyushin       : Spin-Orbit,Spin-Spin,Magnetic field MRCI
   Yang Guo               : DLPNO-NEVPT2, CIM, IAO-localization
   Andreas Hansen         : Spin unrestricted coupled pair/coupled cluster methods
   Lee Huntington         : MR-EOM, pCC
   Robert Izsak           : Overlap fitted RIJCOSX, COSX-SCS-MP3, EOM
   Christian Kollmar      : KDIIS, OOCD, Brueckner-CCSD(T), CCSD density
   Simone Kossmann        : Meta GGA functionals, TD-DFT gradient, OOMP2, MP2 Hessian
   Martin Krupicka        : AUTO-CI
   Dagmar Lenk            : GEPOL surface
   Dimitrios Liakos       : Extrapolation schemes; parallel MDCI
   Dimitrios Manganas     : ROCIS; embedding schemes
   Dimitrios Pantazis     : SARC Basis sets
   Taras Petrenko         : DFT Hessian,TD-DFT gradient, ASA, ECA, R-Raman, ABS, FL, XAS/XES, NRVS
   Peter Pinski           : DLPNO-MP2
   Christoph Reimann      : Effective Core Potentials
   Marius Retegan         : Local ZFS, SOC
   Christoph Riplinger    : Optimizer, TS searches, QM/MM, DLPNO-CCSD(T), (RO)-DLPNO pert. Triples
   Tobias Risthaus        : Range-separated hybrids, TD-DFT gradient, RPA, STAB
   Michael Roemelt        : Restricted open shell CIS
   Masaaki Saitow         : Open-shell DLPNO
   Barbara Sandhoefer     : DKH picture change effects
   Kantharuban Sivalingam : CASSCF convergence, NEVPT2, FIC-MRCI
   Georgi Stoychev        : AutoAux
   Boris Wezisla          : Elementary symmetry handling
   Frank Wennmohs         : Technical directorship


 We gratefully acknowledge several colleagues who have allowed us to
 interface, adapt or use parts of their codes:
   Stefan Grimme, W. Hujo, H. Kruse,             : VdW corrections, initial TS optimization,
                  C. Bannwarth                     DFT functionals, gCP, sTDA/sTD-DF
   Ed Valeev                                     : LibInt (2-el integral package), F12 methods
   Garnet Chan, S. Sharma, J. Yang, R. Olivares  : DMRG
   Ulf Ekstrom                                   : XCFun DFT Library
   Mihaly Kallay                                 : mrcc  (arbitrary order and MRCC methods)
   Jiri Pittner, Ondrej Demel                    : Mk-CCSD
   Frank Weinhold                                : gennbo (NPA and NBO analysis)
   Christopher J. Cramer and Donald G. Truhlar   : smd solvation model


 Your calculation uses the libint2 library for the computation of 2-el integrals
 For citations please refer to: http://libint.valeyev.net

 This ORCA versions uses:
   CBLAS   interface :  Fast vector & matrix operations
   LAPACKE interface :  Fast linear algebra routines
   SCALAPACK package :  Parallel linear algebra routines


Your calculation utilizes the atom-pairwise dispersion correction
with the zero-damping scheme (D30)
Cite in your paper:
S.Grimme, J.Antony, S.Ehrlich and H.Krieg, J.Chem.Phys., 132, (2010), 154104 
   

XCFun DFT library Copyright 2009-2010 Ulf Ekstrom and contributors.
See http://admol.org/xcfun for more information. This is free soft-
ware; see the source code for copying conditions. There is ABSOLUTELY
NO WARRANTY; not even for MERCHANTABILITY or FITNESS FOR A PARTICULAR
PURPOSE. For details see the documentation. Scientific users of this 
library should cite U. Ekstrom, L. Visscher, R. Bast, A. J. Thorvald-
sen and K. Ruud; J.Chem.Theor.Comp. 2010, DOI: 10.1021/ct100117s
XCFun Version 0.99 
Your calculation utilizes the basis: 6-31G(d)
   H-He, Li-Ne : W. J. Hehre, R. Ditchfield and J.A. Pople, J. Chem. Phys. 56, 2257 (1972).
                 Note: He and Ne are unpublished basis sets taken from the Gaussian program.
                 Note: Li and B from J. D. Dill and J. A. Pople, J. Chem. Phys. 62, 2921 (1975).
   Na - Ar     : M. M. Francl, W. J. Pietro, W. J. Hehre, J. S. Binkley, M. S. Gordon, 
                 D. J. DeFrees and J. A. Pople, J. Chem. Phys. 77, 3654 (1982).
   K - Zn      : V. A. Rassolov, J. A. Pople, M. A. Ratner, and T. L. Windus, J. Chem. Phys. 109, 1223 (1998).

================================================================================
                                        WARNINGS
                       Please study these warnings very carefully!
================================================================================

Warning: TCutStore was < 0. Adjusted to Thresh (uncritical)

INFO   : the flag for use of LIBINT has been found!

================================================================================
                                       INPUT FILE
================================================================================
NAME = initial40.inp
|  1> ! WB97X-D3 6-31G(d) VerySlowConv
|  2> ! KDIIS NOSOSCF
|  3> %base "Scan_40"
|  4> 
|  5> %scf
|  6> maxiter 999
|  7> end
|  8> 
|  9> * xyz 0 1
| 10> C         -3.203647762914    0.972921305940    0.342031124906
| 11> C          1.192051871269    1.572673220148   -0.336047859402
| 12> H         -3.076684882281    0.601592633393   -0.662136178061
| 13> H         -3.084206130079    2.024497413402    0.547647074572
| 14> H          1.033369872327    0.528377783108   -0.550759907508
| 15> H          1.025847031679    1.951567644008    0.659265745493
| 16> **                         ****END OF INPUT****
================================================================================

                       ****************************
                       * Single Point Calculation *
                       ****************************

---------------------------------
CARTESIAN COORDINATES (ANGSTROEM)
---------------------------------
  C     -3.203648    0.972921    0.342031
  C      1.192052    1.572673   -0.336048
  H     -3.076685    0.601593   -0.662136
  H     -3.084206    2.024497    0.547647
  H      1.033370    0.528378   -0.550760
  H      1.025847    1.951568    0.659266

----------------------------
CARTESIAN COORDINATES (A.U.)
----------------------------
  NO LB      ZA    FRAG     MASS         X           Y           Z
   0 C     6.0000    0    12.011   -6.054017    1.838555    0.646345
   1 C     6.0000    0    12.011    2.252652    2.971922   -0.635038
   2 H     1.0000    0     1.008   -5.814092    1.136845   -1.251256
   3 H     1.0000    0     1.008   -5.828305    3.825746    1.034903
   4 H     1.0000    0     1.008    1.952786    0.998489   -1.040785
   5 H     1.0000    0     1.008    1.938570    3.687928    1.245832

--------------------------------
INTERNAL COORDINATES (ANGSTROEM)
--------------------------------
 C      0   0   0     0.000000000000     0.00000000     0.00000000
 C      1   0   0     4.487947051995     0.00000000     0.00000000
 H      1   2   0     1.078126397257    77.87534932     0.00000000
 H      1   2   3     1.078126398989    77.87534789   235.26524669
 H      2   1   3     1.077884131163    75.90292557   305.67766033
 H      2   1   3     1.077884133488    75.90292230   179.05709324

---------------------------
INTERNAL COORDINATES (A.U.)
---------------------------
 C      0   0   0     0.000000000000     0.00000000     0.00000000
 C      1   0   0     8.480990831810     0.00000000     0.00000000
 H      1   2   0     2.037363628567    77.87534932     0.00000000
 H      1   2   3     2.037363631839    77.87534789   235.26524669
 H      2   1   3     2.036905811997    75.90292557   305.67766033
 H      2   1   3     2.036905816391    75.90292230   179.05709324

---------------------
BASIS SET INFORMATION
---------------------
There are 2 groups of distinct atoms

 Group   1 Type C   : 10s4p1d contracted to 3s2p1d pattern {631/31/1}
 Group   2 Type H   : 4s contracted to 2s pattern {31}

Atom   0C    basis set group =>   1
Atom   1C    basis set group =>   1
Atom   2H    basis set group =>   2
Atom   3H    basis set group =>   2
Atom   4H    basis set group =>   2
Atom   5H    basis set group =>   2
------------------------------------------------------------------------------
                           ORCA GTO INTEGRAL CALCULATION
------------------------------------------------------------------------------

                         BASIS SET STATISTICS AND STARTUP INFO

 # of primitive gaussian shells          ...   46
 # of primitive gaussian functions       ...   70
 # of contracted shells                  ...   20
 # of contracted basis functions         ...   36
 Highest angular momentum                ...    2
 Maximum contraction depth               ...    6
 Integral package used                   ... LIBINT
 Integral threshhold            Thresh   ...  1.000e-10
 Primitive cut-off              TCut     ...  1.000e-11


------------------------------ INTEGRAL EVALUATION ----------------------------


 * One electron integrals 
 Pre-screening matrix                    ... done
 Shell pair data                         ... done (   0.000 sec)

-------------------------------------------------------------------------------
                                 ORCA SCF
-------------------------------------------------------------------------------

------------
SCF SETTINGS
------------
Hamiltonian:
 Density Functional     Method          .... DFT(GTOs)
 Exchange Functional    Exchange        .... WB97X-D3
 Correlation Functional Correlation     .... WB97X-D3
 Gradients option       PostSCFGGA      .... off
 Hybrid DFT is turned on
   Fraction HF Exchange ScalHFX         ....  0.195728
   Scaling of DF-GGA-X  ScalDFX         ....  0.000000
   Scaling of DF-GGA-C  ScalDFC         ....  1.000000
   Scaling of DF-LDA-C  ScalLDAC        ....  1.000000
   Perturbative correction              ....  0.000000
 Long-range corrected/Screened/Range-Separated Hybrid DFT is turned on
   Amount of maximum screened exact exchange              ....  0.804272
   Range separation parameter mu (erf(mu*r12)/r12)        ....  0.250000


General Settings:
 Integral files         IntName         .... Scan_40
 Hartree-Fock type      HFTyp           .... RHF
 Total Charge           Charge          ....    0
 Multiplicity           Mult            ....    1
 Number of Electrons    NEL             ....   16
 Basis Dimension        Dim             ....   36
 Nuclear Repulsion      ENuc            ....     19.9897198944 Eh

Convergence Acceleration:
 DIIS                   CNVDIIS         .... on
   Start iteration      DIISMaxIt       ....     0
   Startup error        DIISStart       ....  0.200000
   # of expansion vecs  DIISMaxEq       ....     5
   Bias factor          DIISBfac        ....   1.050
   Max. coefficient     DIISMaxC        ....  10.000
 Newton-Raphson         CNVNR           .... off
 SOSCF                  CNVSOSCF        .... off
 Level Shifting         CNVShift        .... off
 Zerner damping         CNVZerner       .... off
 Static damping         CNVDamp         .... off
 Fernandez-Rico         CNVRico         .... off

SCF Procedure:
 Maximum # iterations   MaxIter         ....   999
 SCF integral mode      SCFMode         .... Direct
   Integral package                     .... LIBINT
 Reset frequeny         DirectResetFreq ....    20
 Integral Threshold     Thresh          ....  1.000e-10 Eh
 Primitive CutOff       TCut            ....  1.000e-11 Eh

Convergence Tolerance:
 Convergence Check Mode ConvCheckMode   .... All-Criteria
 Convergence forced     ConvForced      .... 0
 Energy Change          TolE            ....  1.000e-06 Eh
 Max Density Change     TolMaxP         ....  1.000e-05
 RMS Density Change     TolRMSP         ....  1.000e-06
 DIIS Error             TolErr          ....  1.000e-06


Diagonalization of the overlap matrix:
Smallest eigenvalue                        ... 3.604e-02
Time for diagonalization                   ...    0.001 sec
Threshold for overlap eigenvalues          ... 1.000e-08
Number of eigenvalues below threshold      ... 0
Time for construction of square roots      ...    0.005 sec
Total time needed                          ...    0.006 sec

-------------------
DFT GRID GENERATION
-------------------

General Integration Accuracy     IntAcc      ...  4.340
Radial Grid Type                 RadialGrid  ... Gauss-Chebyshev
Angular Grid (max. acc.)         AngularGrid ... Lebedev-110
Angular grid pruning method      GridPruning ... 3 (G Style)
Weight generation scheme         WeightScheme... Becke
Basis function cutoff            BFCut       ...    1.0000e-10
Integration weight cutoff        WCut        ...    1.0000e-14
Grids for H and He will be reduced by one unit

# of grid points (after initial pruning)     ...   6488 (   0.0 sec)
# of grid points (after weights+screening)   ...   6396 (   0.0 sec)
nearest neighbour list constructed           ...    0.0 sec
Grid point re-assignment to atoms done       ...    0.0 sec
Grid point division into batches done        ...    0.0 sec
Reduced shell lists constructed in    0.0 sec

Total number of grid points                  ...     6396
Total number of batches                      ...      103
Average number of points per batch           ...       62
Average number of grid points per atom       ...     1066
Average number of shells per batch           ...    14.16 (70.82%)
Average number of basis functions per batch  ...    24.93 (69.26%)
Average number of large shells per batch     ...    11.97 (84.52%)
Average number of large basis fcns per batch ...    21.16 (84.88%)
Maximum spatial batch extension              ...  19.35, 21.76, 21.92 au
Average spatial batch extension              ...   5.54,  5.11,  5.30 au

Time for grid setup =    0.046 sec

------------------------------
INITIAL GUESS: MODEL POTENTIAL
------------------------------
Loading Hartree-Fock densities                     ... done
Calculating cut-offs                               ... done
Setting up the integral package                    ... done
Initializing the effective Hamiltonian             ... done
Starting the Coulomb interaction                   ... done (   0.0 sec)
Reading the grid                                   ... done
Mapping shells                                     ... done
Starting the XC term evaluation                    ... done (   0.0 sec)
  promolecular density results
     # of electrons  =     15.999299314
     EX              =    -11.194327245
     EC              =     -0.448768018
     EX+EC           =    -11.643095264
Transforming the Hamiltonian                       ... done (   0.0 sec)
Diagonalizing the Hamiltonian                      ... done (   0.0 sec)
Back transforming the eigenvectors                 ... done (   0.0 sec)
Now organizing SCF variables                       ... done
                      ------------------
                      INITIAL GUESS DONE (   0.2 sec)
                      ------------------
--------------
SCF ITERATIONS
--------------
ITER       Energy         Delta-E        Max-DP      RMS-DP      [F,P]   Gradient Norm
               ***  Starting incremental Fock matrix formation  ***
                             ****Resetting KDIIS****
                             ****Turning on KDIIS(Cayley)****
  0    -78.1801305938   0.000000000000 0.01201409  0.00105773  0.0455932   0.049253670
  1    -78.1864829171  -0.006352323307 0.01280538  0.00126616  0.0392082   0.042445761
  2    -78.1928741491  -0.006391231947 0.02128014  0.00213163  0.0317156   0.034297806
  3    -78.2005622114  -0.007688062308 0.03200921  0.00326812  0.0191758   0.020753260
  4    -78.2050006985  -0.004438487079 0.00175397  0.00011878  0.0002955   0.000229456
                          ***Energy convergence achieved***
  5    -78.2050016008  -0.000000902346 0.00011097  0.00001438  0.0001190   0.000087370
  6    -78.2050016985  -0.000000097704 0.00014442  0.00001219  0.0000258   0.000021430
Warning: badly conditioned DIIS matrix, 1 vectors out of 5 destroyed
  7    -78.2050017287  -0.000000030189 0.00013562  0.00001286  0.0000189   0.000010336

            ***Energy convergence in two consecutive cycles with***
                    ***'reasonable' density convergence***
                       *** signaling convergence ***

                    *** KDIIS BlockDiag ( 0.000 sec) ***

               *****************************************************
               *                     SUCCESS                       *
               *           SCF CONVERGED AFTER   8 CYCLES          *
               *****************************************************

Setting up the final grid:

General Integration Accuracy     IntAcc      ...  4.670
Radial Grid Type                 RadialGrid  ... Gauss-Chebyshev
Angular Grid (max. acc.)         AngularGrid ... Lebedev-302
Angular grid pruning method      GridPruning ... 3 (G Style)
Weight generation scheme         WeightScheme... Becke
Basis function cutoff            BFCut       ...    1.0000e-10
Integration weight cutoff        WCut        ...    1.0000e-14
Grids for H and He will be reduced by one unit

# of grid points (after initial pruning)     ...  26000 (   0.0 sec)
# of grid points (after weights+screening)   ...  25547 (   0.0 sec)
nearest neighbour list constructed           ...    0.0 sec
Grid point re-assignment to atoms done       ...    0.0 sec
Grid point division into batches done        ...    0.1 sec
Reduced shell lists constructed in    0.2 sec

Total number of grid points                  ...    25547
Total number of batches                      ...      402
Average number of points per batch           ...       63
Average number of grid points per atom       ...     4258
Average number of shells per batch           ...    12.74 (63.68%)
Average number of basis functions per batch  ...    22.23 (61.74%)
Average number of large shells per batch     ...    10.64 (83.56%)
Average number of large basis fcns per batch ...    18.93 (85.17%)
Maximum spatial batch extension              ...  20.92, 21.77, 18.27 au
Average spatial batch extension              ...   3.48,  3.44,  3.39 au

Final grid set up in    0.2 sec
Final integration                            ... done (   0.2 sec)
Change in XC energy                          ...     0.000981312
Integrated number of electrons               ...    15.999979632
Previous integrated no of electrons          ...    16.002517115

----------------
TOTAL SCF ENERGY
----------------

Total Energy       :          -78.20402044 Eh           -2128.03958 eV

Components:
Nuclear Repulsion  :           19.98971989 Eh             543.94793 eV
Electronic Energy  :          -98.19374033 Eh           -2671.98752 eV
One Electron Energy:         -143.06770001 Eh           -3893.07004 eV
Two Electron Energy:           44.87395967 Eh            1221.08252 eV

Virial components:
Potential Energy   :         -156.14929923 Eh           -4249.03845 eV
Kinetic Energy     :           77.94527879 Eh            2120.99887 eV
Virial Ratio       :            2.00331953


DFT components:
N(Alpha)           :        7.999989815912 electrons
N(Beta)            :        7.999989815912 electrons
N(Total)           :       15.999979631825 electrons
E(XC)              :       -8.144915633304 Eh       

---------------
SCF CONVERGENCE
---------------

  Last Energy change         ...   -2.2905e-08  Tolerance :   1.0000e-06
  Last MAX-Density change    ...    4.0237e-05  Tolerance :   1.0000e-05
  Last RMS-Density change    ...    4.1158e-06  Tolerance :   1.0000e-06
  Last DIIS Error            ...    4.6622e-06  Tolerance :   1.0000e-06

             **** THE GBW FILE WAS UPDATED (Scan_40.gbw) ****
             **** DENSITY FILE WAS UPDATED (Scan_40.scfp.tmp) ****
             **** ENERGY FILE WAS UPDATED (Scan_40.en.tmp) ****
----------------
ORBITAL ENERGIES
----------------

  NO   OCC          E(Eh)            E(eV) 
   0   2.0000     -10.337674      -281.3024 
   1   2.0000     -10.337351      -281.2936 
   2   2.0000      -0.777998       -21.1704 
   3   2.0000      -0.776937       -21.1415 
   4   2.0000      -0.541595       -14.7376 
   5   2.0000      -0.540798       -14.7159 
   6   2.0000      -0.313315        -8.5257 
   7   2.0000      -0.312729        -8.5098 
   8   0.0000      -0.026798        -0.7292 
   9   0.0000      -0.018622        -0.5067 
  10   0.0000       0.204845         5.5741 
  11   0.0000       0.213773         5.8171 
  12   0.0000       0.269892         7.3441 
  13   0.0000       0.279093         7.5945 
  14   0.0000       0.630601        17.1595 
  15   0.0000       0.655572        17.8390 
  16   0.0000       0.657829        17.9004 
  17   0.0000       0.657937        17.9034 
  18   0.0000       0.664569        18.0838 
  19   0.0000       0.696870        18.9628 
  20   0.0000       0.764472        20.8023 
  21   0.0000       0.780158        21.2292 
  22   0.0000       1.010709        27.5028 
  23   0.0000       1.021958        27.8089 
  24   0.0000       1.027759        27.9667 
  25   0.0000       1.035308        28.1722 
  26   0.0000       1.742342        47.4115 
  27   0.0000       1.742376        47.4125 
  28   0.0000       1.788346        48.6634 
  29   0.0000       1.788706        48.6732 
  30   0.0000       1.792667        48.7810 
  31   0.0000       1.793103        48.7928 
  32   0.0000       2.171588        59.0919 
  33   0.0000       2.180887        59.3450 
  34   0.0000       2.308045        62.8051 
  35   0.0000       2.311120        62.8888 

                    ********************************
                    * MULLIKEN POPULATION ANALYSIS *
                    ********************************

-----------------------
MULLIKEN ATOMIC CHARGES
-----------------------
   0 C :   -0.341172
   1 C :   -0.341551
   2 H :    0.170576
   3 H :    0.170529
   4 H :    0.170810
   5 H :    0.170808
Sum of atomic charges:   -0.0000000

--------------------------------
MULLIKEN REDUCED ORBITAL CHARGES
--------------------------------
  0 C s       :     3.681892  s :     3.681892
      pz      :     1.321923  p :     2.636586
      px      :     0.080156
      py      :     1.234507
      dz2     :     0.012421  d :     0.022694
      dxz     :     0.000786
      dyz     :     0.001211
      dx2y2   :     0.007513
      dxy     :     0.000762
  1 C s       :     3.681600  s :     3.681600
      pz      :     1.284969  p :     2.637258
      px      :     0.143638
      py      :     1.208652
      dz2     :     0.011789  d :     0.022693
      dxz     :     0.001346
      dyz     :     0.001252
      dx2y2   :     0.006974
      dxy     :     0.001333
  2 H s       :     0.829424  s :     0.829424
  3 H s       :     0.829471  s :     0.829471
  4 H s       :     0.829190  s :     0.829190
  5 H s       :     0.829192  s :     0.829192


                     *******************************
                     * LOEWDIN POPULATION ANALYSIS *
                     *******************************

----------------------
LOEWDIN ATOMIC CHARGES
----------------------
   0 C :   -0.250961
   1 C :   -0.251008
   2 H :    0.125412
   3 H :    0.125481
   4 H :    0.125651
   5 H :    0.125424

-------------------------------
LOEWDIN REDUCED ORBITAL CHARGES
-------------------------------
  0 C s       :     3.425270  s :     3.425270
      pz      :     1.394240  p :     2.793311
      px      :     0.082463
      py      :     1.316608
      dz2     :     0.017577  d :     0.032380
      dxz     :     0.000980
      dyz     :     0.002536
      dx2y2   :     0.010296
      dxy     :     0.000991
  1 C s       :     3.424861  s :     3.424861
      pz      :     1.356070  p :     2.793776
      px      :     0.147745
      py      :     1.289961
      dz2     :     0.016716  d :     0.032372
      dxz     :     0.001676
      dyz     :     0.002611
      dx2y2   :     0.009637
      dxy     :     0.001732
  2 H s       :     0.874588  s :     0.874588
  3 H s       :     0.874519  s :     0.874519
  4 H s       :     0.874349  s :     0.874349
  5 H s       :     0.874576  s :     0.874576


                      *****************************
                      * MAYER POPULATION ANALYSIS *
                      *****************************

  NA   - Mulliken gross atomic population
  ZA   - Total nuclear charge
  QA   - Mulliken gross atomic charge
  VA   - Mayer's total valence
  BVA  - Mayer's bonded valence
  FA   - Mayer's free valence

  ATOM       NA         ZA         QA         VA         BVA        FA
  0 C      6.3412     6.0000    -0.3412     1.8457     1.8457     0.0000
  1 C      6.3416     6.0000    -0.3416     1.8455     1.8455    -0.0000
  2 H      0.8294     1.0000     0.1706     0.9244     0.9244     0.0000
  3 H      0.8295     1.0000     0.1705     0.9249     0.9249     0.0000
  4 H      0.8292     1.0000     0.1708     0.9249     0.9249    -0.0000
  5 H      0.8292     1.0000     0.1708     0.9244     0.9244    -0.0000

  Mayer bond orders larger than 0.1
B(  0-C ,  2-H ) :   0.9223 B(  0-C ,  3-H ) :   0.9228 B(  1-C ,  4-H ) :   0.9227 
B(  1-C ,  5-H ) :   0.9222 

-------
TIMINGS
-------

Total SCF time: 0 days 0 hours 0 min 3 sec 

Total time                  ....       3.037 sec
Sum of individual times     ....       2.911 sec  ( 95.9%)

Fock matrix formation       ....       2.498 sec  ( 82.3%)
  XC integration            ....       0.802 sec  ( 32.1% of F)
    Basis function eval.    ....       0.278 sec  ( 34.6% of XC)
    Density eval.           ....       0.038 sec  (  4.7% of XC)
    XC-Functional eval.     ....       0.254 sec  ( 31.6% of XC)
    XC-Potential eval.      ....       0.028 sec  (  3.5% of XC)
Diagonalization             ....       0.005 sec  (  0.2%)
Density matrix formation    ....       0.000 sec  (  0.0%)
Population analysis         ....       0.009 sec  (  0.3%)
Initial guess               ....       0.135 sec  (  4.5%)
Orbital Transformation      ....       0.000 sec  (  0.0%)
Orbital Orthonormalization  ....       0.000 sec  (  0.0%)
DIIS solution               ....       0.000 sec  (  0.0%)
Grid generation             ....       0.264 sec  (  8.7%)


-------------------------------------------------------------------------------
                          DFT DISPERSION CORRECTION                            
                                                                               
                              DFTD3 V3.1  Rev 1                                
                              USING zero damping                               
-------------------------------------------------------------------------------
The omegaB97X-D3 functional is recognized. Fit by Chai et al.
Active option DFTDOPT                   ...         3   

molecular C6(AA) [au] = 320.317051 


            DFT-D V3
 parameters
 s6 scaling factor         :     1.0000 
 rs6 scaling factor        :     1.2810 
 s8 scaling factor         :     1.0000 
 rs8 scaling factor        :     1.0940 
 Damping factor alpha6     :    14.0000 
 Damping factor alpha8     :    16.0000 
 ad hoc parameters k1-k3   :    16.0000     1.3333    -4.0000 

 Edisp/kcal,au: -0.185894299135  -0.000296241391 
 E6   /kcal   :  -0.134048090 
 E8   /kcal   :  -0.051846209 
 % E8         :  27.890155649 

-------------------------   ----------------
Dispersion correction           -0.000296241
-------------------------   ----------------


-------------------------   --------------------
FINAL SINGLE POINT ENERGY       -78.204316681205
-------------------------   --------------------


                            ***************************************
                            *     ORCA property calculations      *
                            ***************************************

                                    ---------------------
                                    Active property flags
                                    ---------------------
   (+) Dipole Moment


------------------------------------------------------------------------------
                       ORCA ELECTRIC PROPERTIES CALCULATION
------------------------------------------------------------------------------

Dipole Moment Calculation                       ... on
Quadrupole Moment Calculation                   ... off
Polarizability Calculation                      ... off
GBWName                                         ... Scan_40.gbw
Electron density file                           ... Scan_40.scfp.tmp

-------------
DIPOLE MOMENT
-------------
                                X             Y             Z
Electronic contribution:      0.00577      -0.00239       0.00243
Nuclear contribution   :     -0.06305       0.01193      -0.01442
                        -----------------------------------------
Total Dipole Moment    :     -0.05728       0.00954      -0.01199
                        -----------------------------------------
Magnitude (a.u.)       :      0.05929
Magnitude (Debye)      :      0.15070


Timings for individual modules:

Sum of individual times         ...        3.385 sec (=   0.056 min)
GTO integral calculation        ...        0.313 sec (=   0.005 min)   9.2 %
SCF iterations                  ...        3.073 sec (=   0.051 min)  90.8 %
                             ****ORCA TERMINATED NORMALLY****
TOTAL RUN TIME: 0 days 0 hours 0 minutes 3 seconds 720 msec
