
                                 *****************
                                 * O   R   C   A *
                                 *****************

           --- An Ab Initio, DFT and Semiempirical electronic structure package ---

                  #######################################################
                  #                        -***-                        #
                  #  Department of molecular theory and spectroscopy    #
                  #              Directorship: Frank Neese              #
                  # Max Planck Institute for Chemical Energy Conversion #
                  #                  D-45470 Muelheim/Ruhr              #
                  #                       Germany                       #
                  #                                                     #
                  #                  All rights reserved                #
                  #                        -***-                        #
                  #######################################################


                         Program Version 4.0.0.2 - RELEASE -


 With contributions from (in alphabetic order):
   Daniel Aravena         : Magnetic Properties
   Michael Atanasov       : Ab Initio Ligand Field Theory
   Ute Becker             : Parallelization
   Martin Brehm           : Molecular dynamics
   Dmytro Bykov           : SCF Hessian
   Vijay G. Chilkuri      : MRCI spin determinant printing
   Dipayan Datta          : RHF DLPNO-CCSD density
   Achintya Kumar Dutta   : EOM-CC, STEOM-CC
   Dmitry Ganyushin       : Spin-Orbit,Spin-Spin,Magnetic field MRCI
   Yang Guo               : DLPNO-NEVPT2, CIM, IAO-localization
   Andreas Hansen         : Spin unrestricted coupled pair/coupled cluster methods
   Lee Huntington         : MR-EOM, pCC
   Robert Izsak           : Overlap fitted RIJCOSX, COSX-SCS-MP3, EOM
   Christian Kollmar      : KDIIS, OOCD, Brueckner-CCSD(T), CCSD density
   Simone Kossmann        : Meta GGA functionals, TD-DFT gradient, OOMP2, MP2 Hessian
   Martin Krupicka        : AUTO-CI
   Dagmar Lenk            : GEPOL surface
   Dimitrios Liakos       : Extrapolation schemes; parallel MDCI
   Dimitrios Manganas     : ROCIS; embedding schemes
   Dimitrios Pantazis     : SARC Basis sets
   Taras Petrenko         : DFT Hessian,TD-DFT gradient, ASA, ECA, R-Raman, ABS, FL, XAS/XES, NRVS
   Peter Pinski           : DLPNO-MP2
   Christoph Reimann      : Effective Core Potentials
   Marius Retegan         : Local ZFS, SOC
   Christoph Riplinger    : Optimizer, TS searches, QM/MM, DLPNO-CCSD(T), (RO)-DLPNO pert. Triples
   Tobias Risthaus        : Range-separated hybrids, TD-DFT gradient, RPA, STAB
   Michael Roemelt        : Restricted open shell CIS
   Masaaki Saitow         : Open-shell DLPNO
   Barbara Sandhoefer     : DKH picture change effects
   Kantharuban Sivalingam : CASSCF convergence, NEVPT2, FIC-MRCI
   Georgi Stoychev        : AutoAux
   Boris Wezisla          : Elementary symmetry handling
   Frank Wennmohs         : Technical directorship


 We gratefully acknowledge several colleagues who have allowed us to
 interface, adapt or use parts of their codes:
   Stefan Grimme, W. Hujo, H. Kruse,             : VdW corrections, initial TS optimization,
                  C. Bannwarth                     DFT functionals, gCP, sTDA/sTD-DF
   Ed Valeev                                     : LibInt (2-el integral package), F12 methods
   Garnet Chan, S. Sharma, J. Yang, R. Olivares  : DMRG
   Ulf Ekstrom                                   : XCFun DFT Library
   Mihaly Kallay                                 : mrcc  (arbitrary order and MRCC methods)
   Jiri Pittner, Ondrej Demel                    : Mk-CCSD
   Frank Weinhold                                : gennbo (NPA and NBO analysis)
   Christopher J. Cramer and Donald G. Truhlar   : smd solvation model


 Your calculation uses the libint2 library for the computation of 2-el integrals
 For citations please refer to: http://libint.valeyev.net

 This ORCA versions uses:
   CBLAS   interface :  Fast vector & matrix operations
   LAPACKE interface :  Fast linear algebra routines
   SCALAPACK package :  Parallel linear algebra routines


Your calculation utilizes the atom-pairwise dispersion correction
with the zero-damping scheme (D30)
Cite in your paper:
S.Grimme, J.Antony, S.Ehrlich and H.Krieg, J.Chem.Phys., 132, (2010), 154104 
   

XCFun DFT library Copyright 2009-2010 Ulf Ekstrom and contributors.
See http://admol.org/xcfun for more information. This is free soft-
ware; see the source code for copying conditions. There is ABSOLUTELY
NO WARRANTY; not even for MERCHANTABILITY or FITNESS FOR A PARTICULAR
PURPOSE. For details see the documentation. Scientific users of this 
library should cite U. Ekstrom, L. Visscher, R. Bast, A. J. Thorvald-
sen and K. Ruud; J.Chem.Theor.Comp. 2010, DOI: 10.1021/ct100117s
XCFun Version 0.99 
Your calculation utilizes the basis: 6-31G(d)
   H-He, Li-Ne : W. J. Hehre, R. Ditchfield and J.A. Pople, J. Chem. Phys. 56, 2257 (1972).
                 Note: He and Ne are unpublished basis sets taken from the Gaussian program.
                 Note: Li and B from J. D. Dill and J. A. Pople, J. Chem. Phys. 62, 2921 (1975).
   Na - Ar     : M. M. Francl, W. J. Pietro, W. J. Hehre, J. S. Binkley, M. S. Gordon, 
                 D. J. DeFrees and J. A. Pople, J. Chem. Phys. 77, 3654 (1982).
   K - Zn      : V. A. Rassolov, J. A. Pople, M. A. Ratner, and T. L. Windus, J. Chem. Phys. 109, 1223 (1998).

================================================================================
                                        WARNINGS
                       Please study these warnings very carefully!
================================================================================

Warning: TCutStore was < 0. Adjusted to Thresh (uncritical)

INFO   : the flag for use of LIBINT has been found!

================================================================================
                                       INPUT FILE
================================================================================
NAME = initial41.inp
|  1> ! WB97X-D3 6-31G(d) VerySlowConv
|  2> ! KDIIS NOSOSCF
|  3> %base "Scan_41"
|  4> 
|  5> %scf
|  6> maxiter 999
|  7> end
|  8> 
|  9> * xyz 0 1
| 10> C         -3.209509686951    0.968718893736    0.346937442455
| 11> C          1.287985844963    1.578793899403   -0.342650307565
| 12> H         -3.270214360218    0.603505934703   -0.665061339537
| 13> H         -3.277732544434    2.025889299437    0.544278415538
| 14> H          1.181861403820    0.525868256981   -0.546678122766
| 15> H          1.174339342820    1.948853715741    0.663173911874
| 16> **                         ****END OF INPUT****
================================================================================

                       ****************************
                       * Single Point Calculation *
                       ****************************

---------------------------------
CARTESIAN COORDINATES (ANGSTROEM)
---------------------------------
  C     -3.209510    0.968719    0.346937
  C      1.287986    1.578794   -0.342650
  H     -3.270214    0.603506   -0.665061
  H     -3.277733    2.025889    0.544278
  H      1.181861    0.525868   -0.546678
  H      1.174339    1.948854    0.663174

----------------------------
CARTESIAN COORDINATES (A.U.)
----------------------------
  NO LB      ZA    FRAG     MASS         X           Y           Z
   0 C     6.0000    0    12.011   -6.065094    1.830613    0.655617
   1 C     6.0000    0    12.011    2.433941    2.983488   -0.647515
   2 H     1.0000    0     1.008   -6.179810    1.140461   -1.256784
   3 H     1.0000    0     1.008   -6.194017    3.828376    1.028537
   4 H     1.0000    0     1.008    2.233394    0.993747   -1.033072
   5 H     1.0000    0     1.008    2.219180    3.682800    1.253217

--------------------------------
INTERNAL COORDINATES (ANGSTROEM)
--------------------------------
 C      0   0   0     0.000000000000     0.00000000     0.00000000
 C      1   0   0     4.590772139532     0.00000000     0.00000000
 H      1   2   0     1.077593196691    87.65938004     0.00000000
 H      1   2   3     1.077593190694    87.65936080   239.77366523
 H      2   1   3     1.077748651056    78.58802322   302.24270715
 H      2   1   3     1.077748651369    78.58800295   177.98363868

---------------------------
INTERNAL COORDINATES (A.U.)
---------------------------
 C      0   0   0     0.000000000000     0.00000000     0.00000000
 C      1   0   0     8.675302086951     0.00000000     0.00000000
 H      1   2   0     2.036356025523    87.65938004     0.00000000
 H      1   2   3     2.036356014190    87.65936080   239.77366523
 H      2   1   3     2.036649791699    78.58802322   302.24270715
 H      2   1   3     2.036649792290    78.58800295   177.98363868

---------------------
BASIS SET INFORMATION
---------------------
There are 2 groups of distinct atoms

 Group   1 Type C   : 10s4p1d contracted to 3s2p1d pattern {631/31/1}
 Group   2 Type H   : 4s contracted to 2s pattern {31}

Atom   0C    basis set group =>   1
Atom   1C    basis set group =>   1
Atom   2H    basis set group =>   2
Atom   3H    basis set group =>   2
Atom   4H    basis set group =>   2
Atom   5H    basis set group =>   2
------------------------------------------------------------------------------
                           ORCA GTO INTEGRAL CALCULATION
------------------------------------------------------------------------------

                         BASIS SET STATISTICS AND STARTUP INFO

 # of primitive gaussian shells          ...   46
 # of primitive gaussian functions       ...   70
 # of contracted shells                  ...   20
 # of contracted basis functions         ...   36
 Highest angular momentum                ...    2
 Maximum contraction depth               ...    6
 Integral package used                   ... LIBINT
 Integral threshhold            Thresh   ...  1.000e-10
 Primitive cut-off              TCut     ...  1.000e-11


------------------------------ INTEGRAL EVALUATION ----------------------------


 * One electron integrals 
 Pre-screening matrix                    ... done
 Shell pair data                         ... done (   0.000 sec)

-------------------------------------------------------------------------------
                                 ORCA SCF
-------------------------------------------------------------------------------

------------
SCF SETTINGS
------------
Hamiltonian:
 Density Functional     Method          .... DFT(GTOs)
 Exchange Functional    Exchange        .... WB97X-D3
 Correlation Functional Correlation     .... WB97X-D3
 Gradients option       PostSCFGGA      .... off
 Hybrid DFT is turned on
   Fraction HF Exchange ScalHFX         ....  0.195728
   Scaling of DF-GGA-X  ScalDFX         ....  0.000000
   Scaling of DF-GGA-C  ScalDFC         ....  1.000000
   Scaling of DF-LDA-C  ScalLDAC        ....  1.000000
   Perturbative correction              ....  0.000000
 Long-range corrected/Screened/Range-Separated Hybrid DFT is turned on
   Amount of maximum screened exact exchange              ....  0.804272
   Range separation parameter mu (erf(mu*r12)/r12)        ....  0.250000


General Settings:
 Integral files         IntName         .... Scan_41
 Hartree-Fock type      HFTyp           .... RHF
 Total Charge           Charge          ....    0
 Multiplicity           Mult            ....    1
 Number of Electrons    NEL             ....   16
 Basis Dimension        Dim             ....   36
 Nuclear Repulsion      ENuc            ....     19.7272733669 Eh

Convergence Acceleration:
 DIIS                   CNVDIIS         .... on
   Start iteration      DIISMaxIt       ....     0
   Startup error        DIISStart       ....  0.200000
   # of expansion vecs  DIISMaxEq       ....     5
   Bias factor          DIISBfac        ....   1.050
   Max. coefficient     DIISMaxC        ....  10.000
 Newton-Raphson         CNVNR           .... off
 SOSCF                  CNVSOSCF        .... off
 Level Shifting         CNVShift        .... off
 Zerner damping         CNVZerner       .... off
 Static damping         CNVDamp         .... off
 Fernandez-Rico         CNVRico         .... off

SCF Procedure:
 Maximum # iterations   MaxIter         ....   999
 SCF integral mode      SCFMode         .... Direct
   Integral package                     .... LIBINT
 Reset frequeny         DirectResetFreq ....    20
 Integral Threshold     Thresh          ....  1.000e-10 Eh
 Primitive CutOff       TCut            ....  1.000e-11 Eh

Convergence Tolerance:
 Convergence Check Mode ConvCheckMode   .... All-Criteria
 Convergence forced     ConvForced      .... 0
 Energy Change          TolE            ....  1.000e-06 Eh
 Max Density Change     TolMaxP         ....  1.000e-05
 RMS Density Change     TolRMSP         ....  1.000e-06
 DIIS Error             TolErr          ....  1.000e-06


Diagonalization of the overlap matrix:
Smallest eigenvalue                        ... 3.610e-02
Time for diagonalization                   ...    0.001 sec
Threshold for overlap eigenvalues          ... 1.000e-08
Number of eigenvalues below threshold      ... 0
Time for construction of square roots      ...    0.005 sec
Total time needed                          ...    0.005 sec

-------------------
DFT GRID GENERATION
-------------------

General Integration Accuracy     IntAcc      ...  4.340
Radial Grid Type                 RadialGrid  ... Gauss-Chebyshev
Angular Grid (max. acc.)         AngularGrid ... Lebedev-110
Angular grid pruning method      GridPruning ... 3 (G Style)
Weight generation scheme         WeightScheme... Becke
Basis function cutoff            BFCut       ...    1.0000e-10
Integration weight cutoff        WCut        ...    1.0000e-14
Grids for H and He will be reduced by one unit

# of grid points (after initial pruning)     ...   6488 (   0.0 sec)
# of grid points (after weights+screening)   ...   6402 (   0.0 sec)
nearest neighbour list constructed           ...    0.0 sec
Grid point re-assignment to atoms done       ...    0.0 sec
Grid point division into batches done        ...    0.0 sec
Reduced shell lists constructed in    0.0 sec

Total number of grid points                  ...     6402
Total number of batches                      ...      104
Average number of points per batch           ...       61
Average number of grid points per atom       ...     1067
Average number of shells per batch           ...    13.93 (69.67%)
Average number of basis functions per batch  ...    24.45 (67.91%)
Average number of large shells per batch     ...    11.32 (81.27%)
Average number of large basis fcns per batch ...    20.41 (83.48%)
Maximum spatial batch extension              ...  19.14, 21.75, 23.67 au
Average spatial batch extension              ...   5.64,  5.20,  5.25 au

Time for grid setup =    0.044 sec

------------------------------
INITIAL GUESS: MODEL POTENTIAL
------------------------------
Loading Hartree-Fock densities                     ... done
Calculating cut-offs                               ... done
Setting up the integral package                    ... done
Initializing the effective Hamiltonian             ... done
Starting the Coulomb interaction                   ... done (   0.0 sec)
Reading the grid                                   ... done
Mapping shells                                     ... done
Starting the XC term evaluation                    ... done (   0.0 sec)
  promolecular density results
     # of electrons  =     15.998036623
     EX              =    -11.194280457
     EC              =     -0.448738204
     EX+EC           =    -11.643018661
Transforming the Hamiltonian                       ... done (   0.0 sec)
Diagonalizing the Hamiltonian                      ... done (   0.0 sec)
Back transforming the eigenvectors                 ... done (   0.0 sec)
Now organizing SCF variables                       ... done
                      ------------------
                      INITIAL GUESS DONE (   0.2 sec)
                      ------------------
--------------
SCF ITERATIONS
--------------
ITER       Energy         Delta-E        Max-DP      RMS-DP      [F,P]   Gradient Norm
               ***  Starting incremental Fock matrix formation  ***
                             ****Resetting KDIIS****
                             ****Turning on KDIIS(Cayley)****
  0    -78.1808474158   0.000000000000 0.01232811  0.00106281  0.0497740   0.049097354
  1    -78.1871551615  -0.006307745669 0.01316975  0.00126999  0.0428182   0.042308029
  2    -78.1934917275  -0.006336565968 0.02188438  0.00213132  0.0346566   0.034181802
  3    -78.2010987067  -0.007606979244 0.03298296  0.00326082  0.0209757   0.020687983
  4    -78.2054925127  -0.004393805964 0.00202619  0.00014275  0.0003187   0.000251874
  5    -78.2054938569  -0.000001344182 0.00014188  0.00002199  0.0002168   0.000153795
                          ***Energy convergence achieved***
  6    -78.2054941925  -0.000000335620 0.00026548  0.00003153  0.0000986   0.000076918
  7    -78.2054944673  -0.000000274830 0.00026485  0.00003225  0.0000324   0.000022863

            ***Energy convergence in two consecutive cycles with***
                    ***'reasonable' density convergence***
                       *** signaling convergence ***

                    *** KDIIS BlockDiag ( 0.000 sec) ***

               *****************************************************
               *                     SUCCESS                       *
               *           SCF CONVERGED AFTER   8 CYCLES          *
               *****************************************************

Setting up the final grid:

General Integration Accuracy     IntAcc      ...  4.670
Radial Grid Type                 RadialGrid  ... Gauss-Chebyshev
Angular Grid (max. acc.)         AngularGrid ... Lebedev-302
Angular grid pruning method      GridPruning ... 3 (G Style)
Weight generation scheme         WeightScheme... Becke
Basis function cutoff            BFCut       ...    1.0000e-10
Integration weight cutoff        WCut        ...    1.0000e-14
Grids for H and He will be reduced by one unit

# of grid points (after initial pruning)     ...  26000 (   0.0 sec)
# of grid points (after weights+screening)   ...  25560 (   0.0 sec)
nearest neighbour list constructed           ...    0.0 sec
Grid point re-assignment to atoms done       ...    0.0 sec
Grid point division into batches done        ...    0.1 sec
Reduced shell lists constructed in    0.2 sec

Total number of grid points                  ...    25560
Total number of batches                      ...      404
Average number of points per batch           ...       63
Average number of grid points per atom       ...     4260
Average number of shells per batch           ...    12.56 (62.80%)
Average number of basis functions per batch  ...    21.93 (60.91%)
Average number of large shells per batch     ...    10.06 (80.07%)
Average number of large basis fcns per batch ...    18.12 (82.64%)
Maximum spatial batch extension              ...  21.16, 20.64, 19.78 au
Average spatial batch extension              ...   3.48,  3.36,  3.39 au

Final grid set up in    0.2 sec
Final integration                            ... done (   0.2 sec)
Change in XC energy                          ...     0.001138512
Integrated number of electrons               ...    15.999982267
Previous integrated no of electrons          ...    16.002787457

----------------
TOTAL SCF ENERGY
----------------

Total Energy       :          -78.20435604 Eh           -2128.04872 eV

Components:
Nuclear Repulsion  :           19.72727337 Eh             536.80640 eV
Electronic Energy  :          -97.93162941 Eh           -2664.85511 eV
One Electron Energy:         -142.57498108 Eh           -3879.66247 eV
Two Electron Energy:           44.64335167 Eh            1214.80736 eV

Virial components:
Potential Energy   :         -156.15050301 Eh           -4249.07121 eV
Kinetic Energy     :           77.94614697 Eh            2121.02249 eV
Virial Ratio       :            2.00331266


DFT components:
N(Alpha)           :        7.999991133747 electrons
N(Beta)            :        7.999991133747 electrons
N(Total)           :       15.999982267494 electrons
E(XC)              :       -8.145462761693 Eh       

---------------
SCF CONVERGENCE
---------------

  Last Energy change         ...   -8.4750e-08  Tolerance :   1.0000e-06
  Last MAX-Density change    ...    3.7000e-05  Tolerance :   1.0000e-05
  Last RMS-Density change    ...    2.5576e-06  Tolerance :   1.0000e-06
  Last DIIS Error            ...    3.8017e-06  Tolerance :   1.0000e-06

             **** THE GBW FILE WAS UPDATED (Scan_41.gbw) ****
             **** DENSITY FILE WAS UPDATED (Scan_41.scfp.tmp) ****
             **** ENERGY FILE WAS UPDATED (Scan_41.en.tmp) ****
----------------
ORBITAL ENERGIES
----------------

  NO   OCC          E(Eh)            E(eV) 
   0   2.0000     -10.336558      -281.2721 
   1   2.0000     -10.334193      -281.2077 
   2   2.0000      -0.776545       -21.1309 
   3   2.0000      -0.773979       -21.0610 
   4   2.0000      -0.540371       -14.7042 
   5   2.0000      -0.537969       -14.6389 
   6   2.0000      -0.312768        -8.5109 
   7   2.0000      -0.310081        -8.4377 
   8   0.0000      -0.024654        -0.6709 
   9   0.0000      -0.016363        -0.4453 
  10   0.0000       0.209165         5.6917 
  11   0.0000       0.214199         5.8287 
  12   0.0000       0.275359         7.4929 
  13   0.0000       0.278410         7.5759 
  14   0.0000       0.641521        17.4567 
  15   0.0000       0.655781        17.8447 
  16   0.0000       0.657792        17.8994 
  17   0.0000       0.660187        17.9646 
  18   0.0000       0.664802        18.0902 
  19   0.0000       0.694138        18.8885 
  20   0.0000       0.766771        20.8649 
  21   0.0000       0.779490        21.2110 
  22   0.0000       1.017046        27.6752 
  23   0.0000       1.020157        27.7599 
  24   0.0000       1.031122        28.0582 
  25   0.0000       1.036694        28.2099 
  26   0.0000       1.743541        47.4442 
  27   0.0000       1.745609        47.5004 
  28   0.0000       1.789452        48.6935 
  29   0.0000       1.791741        48.7558 
  30   0.0000       1.793428        48.8017 
  31   0.0000       1.796060        48.8733 
  32   0.0000       2.175637        59.2021 
  33   0.0000       2.180934        59.3462 
  34   0.0000       2.310243        62.8649 
  35   0.0000       2.313466        62.9526 

                    ********************************
                    * MULLIKEN POPULATION ANALYSIS *
                    ********************************

-----------------------
MULLIKEN ATOMIC CHARGES
-----------------------
   0 C :   -0.342769
   1 C :   -0.343190
   2 H :    0.171391
   3 H :    0.171336
   4 H :    0.171581
   5 H :    0.171650
Sum of atomic charges:   -0.0000000

--------------------------------
MULLIKEN REDUCED ORBITAL CHARGES
--------------------------------
  0 C s       :     3.680419  s :     3.680419
      pz      :     1.357719  p :     2.639694
      px      :     0.024847
      py      :     1.257128
      dz2     :     0.013025  d :     0.022656
      dxz     :     0.000194
      dyz     :     0.001199
      dx2y2   :     0.008009
      dxy     :     0.000229
  1 C s       :     3.680210  s :     3.680210
      pz      :     1.334699  p :     2.640365
      px      :     0.061554
      py      :     1.244112
      dz2     :     0.012541  d :     0.022614
      dxz     :     0.000614
      dyz     :     0.001217
      dx2y2   :     0.007651
      dxy     :     0.000591
  2 H s       :     0.828609  s :     0.828609
  3 H s       :     0.828664  s :     0.828664
  4 H s       :     0.828419  s :     0.828419
  5 H s       :     0.828350  s :     0.828350


                     *******************************
                     * LOEWDIN POPULATION ANALYSIS *
                     *******************************

----------------------
LOEWDIN ATOMIC CHARGES
----------------------
   0 C :   -0.251753
   1 C :   -0.251990
   2 H :    0.125904
   3 H :    0.125811
   4 H :    0.126022
   5 H :    0.126006

-------------------------------
LOEWDIN REDUCED ORBITAL CHARGES
-------------------------------
  0 C s       :     3.424088  s :     3.424088
      pz      :     1.430600  p :     2.795336
      px      :     0.025567
      py      :     1.339169
      dz2     :     0.018395  d :     0.032329
      dxz     :     0.000241
      dyz     :     0.002502
      dx2y2   :     0.010892
      dxy     :     0.000300
  1 C s       :     3.424031  s :     3.424031
      pz      :     1.406702  p :     2.795690
      px      :     0.063368
      py      :     1.325621
      dz2     :     0.017728  d :     0.032269
      dxz     :     0.000770
      dyz     :     0.002539
      dx2y2   :     0.010460
      dxy     :     0.000772
  2 H s       :     0.874096  s :     0.874096
  3 H s       :     0.874189  s :     0.874189
  4 H s       :     0.873978  s :     0.873978
  5 H s       :     0.873994  s :     0.873994


                      *****************************
                      * MAYER POPULATION ANALYSIS *
                      *****************************

  NA   - Mulliken gross atomic population
  ZA   - Total nuclear charge
  QA   - Mulliken gross atomic charge
  VA   - Mayer's total valence
  BVA  - Mayer's bonded valence
  FA   - Mayer's free valence

  ATOM       NA         ZA         QA         VA         BVA        FA
  0 C      6.3428     6.0000    -0.3428     1.8460     1.8460    -0.0000
  1 C      6.3432     6.0000    -0.3432     1.8459     1.8459     0.0000
  2 H      0.8286     1.0000     0.1714     0.9245     0.9245    -0.0000
  3 H      0.8287     1.0000     0.1713     0.9250     0.9250    -0.0000
  4 H      0.8284     1.0000     0.1716     0.9250     0.9250     0.0000
  5 H      0.8283     1.0000     0.1717     0.9245     0.9245     0.0000

  Mayer bond orders larger than 0.1
B(  0-C ,  2-H ) :   0.9227 B(  0-C ,  3-H ) :   0.9231 B(  1-C ,  4-H ) :   0.9231 
B(  1-C ,  5-H ) :   0.9226 

-------
TIMINGS
-------

Total SCF time: 0 days 0 hours 0 min 2 sec 

Total time                  ....       2.944 sec
Sum of individual times     ....       2.815 sec  ( 95.6%)

Fock matrix formation       ....       2.405 sec  ( 81.7%)
  XC integration            ....       0.757 sec  ( 31.5% of F)
    Basis function eval.    ....       0.257 sec  ( 33.9% of XC)
    Density eval.           ....       0.036 sec  (  4.8% of XC)
    XC-Functional eval.     ....       0.245 sec  ( 32.4% of XC)
    XC-Potential eval.      ....       0.026 sec  (  3.4% of XC)
Diagonalization             ....       0.017 sec  (  0.6%)
Density matrix formation    ....       0.000 sec  (  0.0%)
Population analysis         ....       0.012 sec  (  0.4%)
Initial guess               ....       0.129 sec  (  4.4%)
Orbital Transformation      ....       0.000 sec  (  0.0%)
Orbital Orthonormalization  ....       0.000 sec  (  0.0%)
DIIS solution               ....       0.000 sec  (  0.0%)
Grid generation             ....       0.252 sec  (  8.6%)


-------------------------------------------------------------------------------
                          DFT DISPERSION CORRECTION                            
                                                                               
                              DFTD3 V3.1  Rev 1                                
                              USING zero damping                               
-------------------------------------------------------------------------------
The omegaB97X-D3 functional is recognized. Fit by Chai et al.
Active option DFTDOPT                   ...         3   

molecular C6(AA) [au] = 320.315800 


            DFT-D V3
 parameters
 s6 scaling factor         :     1.0000 
 rs6 scaling factor        :     1.2810 
 s8 scaling factor         :     1.0000 
 rs8 scaling factor        :     1.0940 
 Damping factor alpha6     :    14.0000 
 Damping factor alpha8     :    16.0000 
 ad hoc parameters k1-k3   :    16.0000     1.3333    -4.0000 

 Edisp/kcal,au: -0.146530609474  -0.000233511365 
 E6   /kcal   :  -0.106606114 
 E8   /kcal   :  -0.039924495 
 % E8         :  27.246522181 

-------------------------   ----------------
Dispersion correction           -0.000233511
-------------------------   ----------------


-------------------------   --------------------
FINAL SINGLE POINT ENERGY       -78.204589551219
-------------------------   --------------------


                            ***************************************
                            *     ORCA property calculations      *
                            ***************************************

                                    ---------------------
                                    Active property flags
                                    ---------------------
   (+) Dipole Moment


------------------------------------------------------------------------------
                       ORCA ELECTRIC PROPERTIES CALCULATION
------------------------------------------------------------------------------

Dipole Moment Calculation                       ... on
Quadrupole Moment Calculation                   ... off
Polarizability Calculation                      ... off
GBWName                                         ... Scan_41.gbw
Electron density file                           ... Scan_41.scfp.tmp

-------------
DIPOLE MOMENT
-------------
                                X             Y             Z
Electronic contribution:      0.03295      -0.00407       0.00464
Nuclear contribution   :     -0.28012       0.00730      -0.01033
                        -----------------------------------------
Total Dipole Moment    :     -0.24717       0.00324      -0.00570
                        -----------------------------------------
Magnitude (a.u.)       :      0.24726
Magnitude (Debye)      :      0.62849


Timings for individual modules:

Sum of individual times         ...        3.286 sec (=   0.055 min)
GTO integral calculation        ...        0.306 sec (=   0.005 min)   9.3 %
SCF iterations                  ...        2.980 sec (=   0.050 min)  90.7 %
                             ****ORCA TERMINATED NORMALLY****
TOTAL RUN TIME: 0 days 0 hours 0 minutes 3 seconds 626 msec
