
                                 *****************
                                 * O   R   C   A *
                                 *****************

           --- An Ab Initio, DFT and Semiempirical electronic structure package ---

                  #######################################################
                  #                        -***-                        #
                  #  Department of molecular theory and spectroscopy    #
                  #              Directorship: Frank Neese              #
                  # Max Planck Institute for Chemical Energy Conversion #
                  #                  D-45470 Muelheim/Ruhr              #
                  #                       Germany                       #
                  #                                                     #
                  #                  All rights reserved                #
                  #                        -***-                        #
                  #######################################################


                         Program Version 4.0.0.2 - RELEASE -


 With contributions from (in alphabetic order):
   Daniel Aravena         : Magnetic Properties
   Michael Atanasov       : Ab Initio Ligand Field Theory
   Ute Becker             : Parallelization
   Martin Brehm           : Molecular dynamics
   Dmytro Bykov           : SCF Hessian
   Vijay G. Chilkuri      : MRCI spin determinant printing
   Dipayan Datta          : RHF DLPNO-CCSD density
   Achintya Kumar Dutta   : EOM-CC, STEOM-CC
   Dmitry Ganyushin       : Spin-Orbit,Spin-Spin,Magnetic field MRCI
   Yang Guo               : DLPNO-NEVPT2, CIM, IAO-localization
   Andreas Hansen         : Spin unrestricted coupled pair/coupled cluster methods
   Lee Huntington         : MR-EOM, pCC
   Robert Izsak           : Overlap fitted RIJCOSX, COSX-SCS-MP3, EOM
   Christian Kollmar      : KDIIS, OOCD, Brueckner-CCSD(T), CCSD density
   Simone Kossmann        : Meta GGA functionals, TD-DFT gradient, OOMP2, MP2 Hessian
   Martin Krupicka        : AUTO-CI
   Dagmar Lenk            : GEPOL surface
   Dimitrios Liakos       : Extrapolation schemes; parallel MDCI
   Dimitrios Manganas     : ROCIS; embedding schemes
   Dimitrios Pantazis     : SARC Basis sets
   Taras Petrenko         : DFT Hessian,TD-DFT gradient, ASA, ECA, R-Raman, ABS, FL, XAS/XES, NRVS
   Peter Pinski           : DLPNO-MP2
   Christoph Reimann      : Effective Core Potentials
   Marius Retegan         : Local ZFS, SOC
   Christoph Riplinger    : Optimizer, TS searches, QM/MM, DLPNO-CCSD(T), (RO)-DLPNO pert. Triples
   Tobias Risthaus        : Range-separated hybrids, TD-DFT gradient, RPA, STAB
   Michael Roemelt        : Restricted open shell CIS
   Masaaki Saitow         : Open-shell DLPNO
   Barbara Sandhoefer     : DKH picture change effects
   Kantharuban Sivalingam : CASSCF convergence, NEVPT2, FIC-MRCI
   Georgi Stoychev        : AutoAux
   Boris Wezisla          : Elementary symmetry handling
   Frank Wennmohs         : Technical directorship


 We gratefully acknowledge several colleagues who have allowed us to
 interface, adapt or use parts of their codes:
   Stefan Grimme, W. Hujo, H. Kruse,             : VdW corrections, initial TS optimization,
                  C. Bannwarth                     DFT functionals, gCP, sTDA/sTD-DF
   Ed Valeev                                     : LibInt (2-el integral package), F12 methods
   Garnet Chan, S. Sharma, J. Yang, R. Olivares  : DMRG
   Ulf Ekstrom                                   : XCFun DFT Library
   Mihaly Kallay                                 : mrcc  (arbitrary order and MRCC methods)
   Jiri Pittner, Ondrej Demel                    : Mk-CCSD
   Frank Weinhold                                : gennbo (NPA and NBO analysis)
   Christopher J. Cramer and Donald G. Truhlar   : smd solvation model


 Your calculation uses the libint2 library for the computation of 2-el integrals
 For citations please refer to: http://libint.valeyev.net

 This ORCA versions uses:
   CBLAS   interface :  Fast vector & matrix operations
   LAPACKE interface :  Fast linear algebra routines
   SCALAPACK package :  Parallel linear algebra routines


Your calculation utilizes the atom-pairwise dispersion correction
with the zero-damping scheme (D30)
Cite in your paper:
S.Grimme, J.Antony, S.Ehrlich and H.Krieg, J.Chem.Phys., 132, (2010), 154104 
   

XCFun DFT library Copyright 2009-2010 Ulf Ekstrom and contributors.
See http://admol.org/xcfun for more information. This is free soft-
ware; see the source code for copying conditions. There is ABSOLUTELY
NO WARRANTY; not even for MERCHANTABILITY or FITNESS FOR A PARTICULAR
PURPOSE. For details see the documentation. Scientific users of this 
library should cite U. Ekstrom, L. Visscher, R. Bast, A. J. Thorvald-
sen and K. Ruud; J.Chem.Theor.Comp. 2010, DOI: 10.1021/ct100117s
XCFun Version 0.99 
Your calculation utilizes the basis: 6-31G(d)
   H-He, Li-Ne : W. J. Hehre, R. Ditchfield and J.A. Pople, J. Chem. Phys. 56, 2257 (1972).
                 Note: He and Ne are unpublished basis sets taken from the Gaussian program.
                 Note: Li and B from J. D. Dill and J. A. Pople, J. Chem. Phys. 62, 2921 (1975).
   Na - Ar     : M. M. Francl, W. J. Pietro, W. J. Hehre, J. S. Binkley, M. S. Gordon, 
                 D. J. DeFrees and J. A. Pople, J. Chem. Phys. 77, 3654 (1982).
   K - Zn      : V. A. Rassolov, J. A. Pople, M. A. Ratner, and T. L. Windus, J. Chem. Phys. 109, 1223 (1998).

================================================================================
                                        WARNINGS
                       Please study these warnings very carefully!
================================================================================

Warning: TCutStore was < 0. Adjusted to Thresh (uncritical)

INFO   : the flag for use of LIBINT has been found!

================================================================================
                                       INPUT FILE
================================================================================
NAME = initial42.inp
|  1> ! WB97X-D3 6-31G(d) VerySlowConv
|  2> ! KDIIS NOSOSCF
|  3> %base "Scan_42"
|  4> 
|  5> %scf
|  6> maxiter 999
|  7> end
|  8> 
|  9> * xyz 0 1
| 10> C         -3.258249972374    0.965621147058    0.350277889259
| 11> C          1.344070576046    1.575444960119   -0.338362709866
| 12> H         -3.282377198995    0.601223420612   -0.663177472633
| 13> H         -3.289899156874    2.024322460779    0.546770759829
| 14> H          1.190354818784    0.530844612443   -0.552826203498
| 15> H          1.182830933413    1.954173398989    0.657317736909
| 16> **                         ****END OF INPUT****
================================================================================

                       ****************************
                       * Single Point Calculation *
                       ****************************

---------------------------------
CARTESIAN COORDINATES (ANGSTROEM)
---------------------------------
  C     -3.258250    0.965621    0.350278
  C      1.344071    1.575445   -0.338363
  H     -3.282377    0.601223   -0.663177
  H     -3.289899    2.024322    0.546771
  H      1.190355    0.530845   -0.552826
  H      1.182831    1.954173    0.657318

----------------------------
CARTESIAN COORDINATES (A.U.)
----------------------------
  NO LB      ZA    FRAG     MASS         X           Y           Z
   0 C     6.0000    0    12.011   -6.157200    1.824760    0.661929
   1 C     6.0000    0    12.011    2.539925    2.977160   -0.639413
   2 H     1.0000    0     1.008   -6.202794    1.136148   -1.253224
   3 H     1.0000    0     1.008   -6.217008    3.825415    1.033247
   4 H     1.0000    0     1.008    2.249445    1.003151   -1.044690
   5 H     1.0000    0     1.008    2.235227    3.692853    1.242151

--------------------------------
INTERNAL COORDINATES (ANGSTROEM)
--------------------------------
 C      0   0   0     0.000000000000     0.00000000     0.00000000
 C      1   0   0     4.693342666815     0.00000000     0.00000000
 H      1   2   0     1.077246302686    85.86405193     0.00000000
 H      1   2   3     1.077246299942    85.86403208   239.25292242
 H      2   1   3     1.077410325965    76.30963205   303.54537493
 H      2   1   3     1.077410323347    76.30961111   177.20171472

---------------------------
INTERNAL COORDINATES (A.U.)
---------------------------
 C      0   0   0     0.000000000000     0.00000000     0.00000000
 C      1   0   0     8.869132292928     0.00000000     0.00000000
 H      1   2   0     2.035700490856    85.86405193     0.00000000
 H      1   2   3     2.035700485671    85.86403208   239.25292242
 H      2   1   3     2.036010449933    76.30963205   303.54537493
 H      2   1   3     2.036010444986    76.30961111   177.20171472

---------------------
BASIS SET INFORMATION
---------------------
There are 2 groups of distinct atoms

 Group   1 Type C   : 10s4p1d contracted to 3s2p1d pattern {631/31/1}
 Group   2 Type H   : 4s contracted to 2s pattern {31}

Atom   0C    basis set group =>   1
Atom   1C    basis set group =>   1
Atom   2H    basis set group =>   2
Atom   3H    basis set group =>   2
Atom   4H    basis set group =>   2
Atom   5H    basis set group =>   2
------------------------------------------------------------------------------
                           ORCA GTO INTEGRAL CALCULATION
------------------------------------------------------------------------------

                         BASIS SET STATISTICS AND STARTUP INFO

 # of primitive gaussian shells          ...   46
 # of primitive gaussian functions       ...   70
 # of contracted shells                  ...   20
 # of contracted basis functions         ...   36
 Highest angular momentum                ...    2
 Maximum contraction depth               ...    6
 Integral package used                   ... LIBINT
 Integral threshhold            Thresh   ...  1.000e-10
 Primitive cut-off              TCut     ...  1.000e-11


------------------------------ INTEGRAL EVALUATION ----------------------------


 * One electron integrals 
 Pre-screening matrix                    ... done
 Shell pair data                         ... done (   0.000 sec)

-------------------------------------------------------------------------------
                                 ORCA SCF
-------------------------------------------------------------------------------

------------
SCF SETTINGS
------------
Hamiltonian:
 Density Functional     Method          .... DFT(GTOs)
 Exchange Functional    Exchange        .... WB97X-D3
 Correlation Functional Correlation     .... WB97X-D3
 Gradients option       PostSCFGGA      .... off
 Hybrid DFT is turned on
   Fraction HF Exchange ScalHFX         ....  0.195728
   Scaling of DF-GGA-X  ScalDFX         ....  0.000000
   Scaling of DF-GGA-C  ScalDFC         ....  1.000000
   Scaling of DF-LDA-C  ScalLDAC        ....  1.000000
   Perturbative correction              ....  0.000000
 Long-range corrected/Screened/Range-Separated Hybrid DFT is turned on
   Amount of maximum screened exact exchange              ....  0.804272
   Range separation parameter mu (erf(mu*r12)/r12)        ....  0.250000


General Settings:
 Integral files         IntName         .... Scan_42
 Hartree-Fock type      HFTyp           .... RHF
 Total Charge           Charge          ....    0
 Multiplicity           Mult            ....    1
 Number of Electrons    NEL             ....   16
 Basis Dimension        Dim             ....   36
 Nuclear Repulsion      ENuc            ....     19.6014961632 Eh

Convergence Acceleration:
 DIIS                   CNVDIIS         .... on
   Start iteration      DIISMaxIt       ....     0
   Startup error        DIISStart       ....  0.200000
   # of expansion vecs  DIISMaxEq       ....     5
   Bias factor          DIISBfac        ....   1.050
   Max. coefficient     DIISMaxC        ....  10.000
 Newton-Raphson         CNVNR           .... off
 SOSCF                  CNVSOSCF        .... off
 Level Shifting         CNVShift        .... off
 Zerner damping         CNVZerner       .... off
 Static damping         CNVDamp         .... off
 Fernandez-Rico         CNVRico         .... off

SCF Procedure:
 Maximum # iterations   MaxIter         ....   999
 SCF integral mode      SCFMode         .... Direct
   Integral package                     .... LIBINT
 Reset frequeny         DirectResetFreq ....    20
 Integral Threshold     Thresh          ....  1.000e-10 Eh
 Primitive CutOff       TCut            ....  1.000e-11 Eh

Convergence Tolerance:
 Convergence Check Mode ConvCheckMode   .... All-Criteria
 Convergence forced     ConvForced      .... 0
 Energy Change          TolE            ....  1.000e-06 Eh
 Max Density Change     TolMaxP         ....  1.000e-05
 RMS Density Change     TolRMSP         ....  1.000e-06
 DIIS Error             TolErr          ....  1.000e-06


Diagonalization of the overlap matrix:
Smallest eigenvalue                        ... 3.616e-02
Time for diagonalization                   ...    0.001 sec
Threshold for overlap eigenvalues          ... 1.000e-08
Number of eigenvalues below threshold      ... 0
Time for construction of square roots      ...    0.005 sec
Total time needed                          ...    0.006 sec

-------------------
DFT GRID GENERATION
-------------------

General Integration Accuracy     IntAcc      ...  4.340
Radial Grid Type                 RadialGrid  ... Gauss-Chebyshev
Angular Grid (max. acc.)         AngularGrid ... Lebedev-110
Angular grid pruning method      GridPruning ... 3 (G Style)
Weight generation scheme         WeightScheme... Becke
Basis function cutoff            BFCut       ...    1.0000e-10
Integration weight cutoff        WCut        ...    1.0000e-14
Grids for H and He will be reduced by one unit

# of grid points (after initial pruning)     ...   6488 (   0.0 sec)
# of grid points (after weights+screening)   ...   6402 (   0.0 sec)
nearest neighbour list constructed           ...    0.0 sec
Grid point re-assignment to atoms done       ...    0.0 sec
Grid point division into batches done        ...    0.0 sec
Reduced shell lists constructed in    0.0 sec

Total number of grid points                  ...     6402
Total number of batches                      ...      103
Average number of points per batch           ...       62
Average number of grid points per atom       ...     1067
Average number of shells per batch           ...    13.99 (69.95%)
Average number of basis functions per batch  ...    24.53 (68.14%)
Average number of large shells per batch     ...    11.20 (80.07%)
Average number of large basis fcns per batch ...    19.99 (81.50%)
Maximum spatial batch extension              ...  19.75, 21.75, 21.92 au
Average spatial batch extension              ...   5.70,  5.12,  5.24 au

Time for grid setup =    0.048 sec

------------------------------
INITIAL GUESS: MODEL POTENTIAL
------------------------------
Loading Hartree-Fock densities                     ... done
Calculating cut-offs                               ... done
Setting up the integral package                    ... done
Initializing the effective Hamiltonian             ... done
Starting the Coulomb interaction                   ... done (   0.0 sec)
Reading the grid                                   ... done
Mapping shells                                     ... done
Starting the XC term evaluation                    ... done (   0.0 sec)
  promolecular density results
     # of electrons  =     15.998288874
     EX              =    -11.194511197
     EC              =     -0.448747065
     EX+EC           =    -11.643258262
Transforming the Hamiltonian                       ... done (   0.0 sec)
Diagonalizing the Hamiltonian                      ... done (   0.0 sec)
Back transforming the eigenvectors                 ... done (   0.0 sec)
Now organizing SCF variables                       ... done
                      ------------------
                      INITIAL GUESS DONE (   0.2 sec)
                      ------------------
--------------
SCF ITERATIONS
--------------
ITER       Energy         Delta-E        Max-DP      RMS-DP      [F,P]   Gradient Norm
               ***  Starting incremental Fock matrix formation  ***
                             ****Resetting KDIIS****
                             ****Turning on KDIIS(Cayley)****
  0    -78.1803399275   0.000000000000 0.01242709  0.00106262  0.0495804   0.049239462
  1    -78.1866854130  -0.006345485492 0.01326871  0.00126979  0.0426480   0.042428831
  2    -78.1930600347  -0.006374621664 0.02202607  0.00213193  0.0345147   0.034279614
  3    -78.2007139312  -0.007653896573 0.03318087  0.00326185  0.0208884   0.020747157
  4    -78.2051341265  -0.004420195273 0.00191342  0.00012916  0.0003194   0.000249545
  5    -78.2051352118  -0.000001085271 0.00013844  0.00001858  0.0001659   0.000117207
                          ***Energy convergence achieved***
  6    -78.2051353943  -0.000000182514 0.00016992  0.00001722  0.0000586   0.000046799
  7    -78.2051354921  -0.000000097858 0.00020981  0.00001884  0.0000279   0.000017333

            ***Energy convergence in two consecutive cycles with***
                    ***'reasonable' density convergence***
                       *** signaling convergence ***

                    *** KDIIS BlockDiag ( 0.000 sec) ***

               *****************************************************
               *                     SUCCESS                       *
               *           SCF CONVERGED AFTER   8 CYCLES          *
               *****************************************************

Setting up the final grid:

General Integration Accuracy     IntAcc      ...  4.670
Radial Grid Type                 RadialGrid  ... Gauss-Chebyshev
Angular Grid (max. acc.)         AngularGrid ... Lebedev-302
Angular grid pruning method      GridPruning ... 3 (G Style)
Weight generation scheme         WeightScheme... Becke
Basis function cutoff            BFCut       ...    1.0000e-10
Integration weight cutoff        WCut        ...    1.0000e-14
Grids for H and He will be reduced by one unit

# of grid points (after initial pruning)     ...  26000 (   0.0 sec)
# of grid points (after weights+screening)   ...  25579 (   0.0 sec)
nearest neighbour list constructed           ...    0.0 sec
Grid point re-assignment to atoms done       ...    0.0 sec
Grid point division into batches done        ...    0.1 sec
Reduced shell lists constructed in    0.2 sec

Total number of grid points                  ...    25579
Total number of batches                      ...      403
Average number of points per batch           ...       63
Average number of grid points per atom       ...     4263
Average number of shells per batch           ...    12.50 (62.48%)
Average number of basis functions per batch  ...    21.76 (60.45%)
Average number of large shells per batch     ...     9.88 (79.10%)
Average number of large basis fcns per batch ...    17.74 (81.49%)
Maximum spatial batch extension              ...  20.33, 20.64, 19.46 au
Average spatial batch extension              ...   3.51,  3.41,  3.37 au

Final grid set up in    0.2 sec
Final integration                            ... done (   0.2 sec)
Change in XC energy                          ...     0.001143693
Integrated number of electrons               ...    15.999981722
Previous integrated no of electrons          ...    16.002694880

----------------
TOTAL SCF ENERGY
----------------

Total Energy       :          -78.20399185 Eh           -2128.03881 eV

Components:
Nuclear Repulsion  :           19.60149616 Eh             533.38383 eV
Electronic Energy  :          -97.80548801 Eh           -2661.42263 eV
One Electron Energy:         -142.31619148 Eh           -3872.62045 eV
Two Electron Energy:           44.51070347 Eh            1211.19782 eV

Virial components:
Potential Energy   :         -156.15142535 Eh           -4249.09630 eV
Kinetic Energy     :           77.94743350 Eh            2121.05750 eV
Virial Ratio       :            2.00329143


DFT components:
N(Alpha)           :        7.999990861098 electrons
N(Beta)            :        7.999990861098 electrons
N(Total)           :       15.999981722195 electrons
E(XC)              :       -8.145759934134 Eh       

---------------
SCF CONVERGENCE
---------------

  Last Energy change         ...   -4.9963e-08  Tolerance :   1.0000e-06
  Last MAX-Density change    ...    7.1475e-05  Tolerance :   1.0000e-05
  Last RMS-Density change    ...    6.8849e-06  Tolerance :   1.0000e-06
  Last DIIS Error            ...    9.6909e-06  Tolerance :   1.0000e-06

             **** THE GBW FILE WAS UPDATED (Scan_42.gbw) ****
             **** DENSITY FILE WAS UPDATED (Scan_42.scfp.tmp) ****
             **** ENERGY FILE WAS UPDATED (Scan_42.en.tmp) ****
----------------
ORBITAL ENERGIES
----------------

  NO   OCC          E(Eh)            E(eV) 
   0   2.0000     -10.336738      -281.2769 
   1   2.0000     -10.334668      -281.2206 
   2   2.0000      -0.776861       -21.1394 
   3   2.0000      -0.774628       -21.0787 
   4   2.0000      -0.540992       -14.7211 
   5   2.0000      -0.538745       -14.6600 
   6   2.0000      -0.312742        -8.5101 
   7   2.0000      -0.310275        -8.4430 
   8   0.0000      -0.024095        -0.6557 
   9   0.0000      -0.017576        -0.4783 
  10   0.0000       0.208754         5.6805 
  11   0.0000       0.213634         5.8133 
  12   0.0000       0.274771         7.4769 
  13   0.0000       0.278336         7.5739 
  14   0.0000       0.644504        17.5379 
  15   0.0000       0.656424        17.8622 
  16   0.0000       0.657968        17.9042 
  17   0.0000       0.659646        17.9499 
  18   0.0000       0.664820        18.0907 
  19   0.0000       0.689849        18.7717 
  20   0.0000       0.766761        20.8646 
  21   0.0000       0.776338        21.1252 
  22   0.0000       1.016842        27.6697 
  23   0.0000       1.020659        27.7735 
  24   0.0000       1.031444        28.0670 
  25   0.0000       1.035863        28.1873 
  26   0.0000       1.743343        47.4388 
  27   0.0000       1.744758        47.4773 
  28   0.0000       1.789446        48.6933 
  29   0.0000       1.791270        48.7429 
  30   0.0000       1.793277        48.7975 
  31   0.0000       1.795733        48.8644 
  32   0.0000       2.176555        59.2271 
  33   0.0000       2.181465        59.3607 
  34   0.0000       2.309554        62.8461 
  35   0.0000       2.312364        62.9226 

                    ********************************
                    * MULLIKEN POPULATION ANALYSIS *
                    ********************************

-----------------------
MULLIKEN ATOMIC CHARGES
-----------------------
   0 C :   -0.342232
   1 C :   -0.342833
   2 H :    0.171116
   3 H :    0.171045
   4 H :    0.171449
   5 H :    0.171456
Sum of atomic charges:   -0.0000000

--------------------------------
MULLIKEN REDUCED ORBITAL CHARGES
--------------------------------
  0 C s       :     3.679379  s :     3.679379
      pz      :     1.369155  p :     2.640199
      px      :     0.005160
      py      :     1.265883
      dz2     :     0.013179  d :     0.022654
      dxz     :     0.000033
      dyz     :     0.001206
      dx2y2   :     0.008190
      dxy     :     0.000046
  1 C s       :     3.679986  s :     3.679986
      pz      :     1.292263  p :     2.640218
      px      :     0.133712
      py      :     1.214243
      dz2     :     0.011834  d :     0.022628
      dxz     :     0.001254
      dyz     :     0.001260
      dx2y2   :     0.007040
      dxy     :     0.001240
  2 H s       :     0.828884  s :     0.828884
  3 H s       :     0.828955  s :     0.828955
  4 H s       :     0.828551  s :     0.828551
  5 H s       :     0.828544  s :     0.828544


                     *******************************
                     * LOEWDIN POPULATION ANALYSIS *
                     *******************************

----------------------
LOEWDIN ATOMIC CHARGES
----------------------
   0 C :   -0.251611
   1 C :   -0.251761
   2 H :    0.125851
   3 H :    0.125691
   4 H :    0.126018
   5 H :    0.125813

-------------------------------
LOEWDIN REDUCED ORBITAL CHARGES
-------------------------------
  0 C s       :     3.423189  s :     3.423189
      pz      :     1.442443  p :     2.796096
      px      :     0.005306
      py      :     1.348346
      dz2     :     0.018607  d :     0.032326
      dxz     :     0.000041
      dyz     :     0.002508
      dx2y2   :     0.011110
      dxy     :     0.000061
  1 C s       :     3.423633  s :     3.423633
      pz      :     1.363116  p :     2.795841
      px      :     0.137569
      py      :     1.295157
      dz2     :     0.016768  d :     0.032287
      dxz     :     0.001566
      dyz     :     0.002622
      dx2y2   :     0.009715
      dxy     :     0.001616
  2 H s       :     0.874149  s :     0.874149
  3 H s       :     0.874309  s :     0.874309
  4 H s       :     0.873982  s :     0.873982
  5 H s       :     0.874187  s :     0.874187


                      *****************************
                      * MAYER POPULATION ANALYSIS *
                      *****************************

  NA   - Mulliken gross atomic population
  ZA   - Total nuclear charge
  QA   - Mulliken gross atomic charge
  VA   - Mayer's total valence
  BVA  - Mayer's bonded valence
  FA   - Mayer's free valence

  ATOM       NA         ZA         QA         VA         BVA        FA
  0 C      6.3422     6.0000    -0.3422     1.8460     1.8460    -0.0000
  1 C      6.3428     6.0000    -0.3428     1.8456     1.8456     0.0000
  2 H      0.8289     1.0000     0.1711     0.9246     0.9246    -0.0000
  3 H      0.8290     1.0000     0.1710     0.9251     0.9251    -0.0000
  4 H      0.8286     1.0000     0.1714     0.9250     0.9250     0.0000
  5 H      0.8285     1.0000     0.1715     0.9245     0.9245     0.0000

  Mayer bond orders larger than 0.1
B(  0-C ,  2-H ) :   0.9227 B(  0-C ,  3-H ) :   0.9231 B(  1-C ,  4-H ) :   0.9230 
B(  1-C ,  5-H ) :   0.9225 

-------
TIMINGS
-------

Total SCF time: 0 days 0 hours 0 min 3 sec 

Total time                  ....       3.600 sec
Sum of individual times     ....       3.476 sec  ( 96.5%)

Fock matrix formation       ....       3.014 sec  ( 83.7%)
  XC integration            ....       0.787 sec  ( 26.1% of F)
    Basis function eval.    ....       0.266 sec  ( 33.8% of XC)
    Density eval.           ....       0.039 sec  (  4.9% of XC)
    XC-Functional eval.     ....       0.256 sec  ( 32.6% of XC)
    XC-Potential eval.      ....       0.028 sec  (  3.5% of XC)
Diagonalization             ....       0.036 sec  (  1.0%)
Density matrix formation    ....       0.000 sec  (  0.0%)
Population analysis         ....       0.012 sec  (  0.3%)
Initial guess               ....       0.153 sec  (  4.3%)
Orbital Transformation      ....       0.000 sec  (  0.0%)
Orbital Orthonormalization  ....       0.000 sec  (  0.0%)
DIIS solution               ....       0.000 sec  (  0.0%)
Grid generation             ....       0.261 sec  (  7.2%)


-------------------------------------------------------------------------------
                          DFT DISPERSION CORRECTION                            
                                                                               
                              DFTD3 V3.1  Rev 1                                
                              USING zero damping                               
-------------------------------------------------------------------------------
The omegaB97X-D3 functional is recognized. Fit by Chai et al.
Active option DFTDOPT                   ...         3   

molecular C6(AA) [au] = 320.314288 


            DFT-D V3
 parameters
 s6 scaling factor         :     1.0000 
 rs6 scaling factor        :     1.2810 
 s8 scaling factor         :     1.0000 
 rs8 scaling factor        :     1.0940 
 Damping factor alpha6     :    14.0000 
 Damping factor alpha8     :    16.0000 
 ad hoc parameters k1-k3   :    16.0000     1.3333    -4.0000 

 Edisp/kcal,au: -0.135979654482  -0.000216697350 
 E6   /kcal   :  -0.100146386 
 E8   /kcal   :  -0.035833268 
 % E8         :  26.351933759 

-------------------------   ----------------
Dispersion correction           -0.000216697
-------------------------   ----------------


-------------------------   --------------------
FINAL SINGLE POINT ENERGY       -78.204208546433
-------------------------   --------------------


                            ***************************************
                            *     ORCA property calculations      *
                            ***************************************

                                    ---------------------
                                    Active property flags
                                    ---------------------
   (+) Dipole Moment


------------------------------------------------------------------------------
                       ORCA ELECTRIC PROPERTIES CALCULATION
------------------------------------------------------------------------------

Dipole Moment Calculation                       ... on
Quadrupole Moment Calculation                   ... off
Polarizability Calculation                      ... off
GBWName                                         ... Scan_42.gbw
Electron density file                           ... Scan_42.scfp.tmp

-------------
DIPOLE MOMENT
-------------
                                X             Y             Z
Electronic contribution:      0.03305      -0.00558       0.00568
Nuclear contribution   :     -0.29782       0.02284      -0.02872
                        -----------------------------------------
Total Dipole Moment    :     -0.26477       0.01726      -0.02304
                        -----------------------------------------
Magnitude (a.u.)       :      0.26633
Magnitude (Debye)      :      0.67696


Timings for individual modules:

Sum of individual times         ...        4.059 sec (=   0.068 min)
GTO integral calculation        ...        0.419 sec (=   0.007 min)  10.3 %
SCF iterations                  ...        3.640 sec (=   0.061 min)  89.7 %
                             ****ORCA TERMINATED NORMALLY****
TOTAL RUN TIME: 0 days 0 hours 0 minutes 4 seconds 439 msec
