
                                 *****************
                                 * O   R   C   A *
                                 *****************

           --- An Ab Initio, DFT and Semiempirical electronic structure package ---

                  #######################################################
                  #                        -***-                        #
                  #  Department of molecular theory and spectroscopy    #
                  #              Directorship: Frank Neese              #
                  # Max Planck Institute for Chemical Energy Conversion #
                  #                  D-45470 Muelheim/Ruhr              #
                  #                       Germany                       #
                  #                                                     #
                  #                  All rights reserved                #
                  #                        -***-                        #
                  #######################################################


                         Program Version 4.0.0.2 - RELEASE -


 With contributions from (in alphabetic order):
   Daniel Aravena         : Magnetic Properties
   Michael Atanasov       : Ab Initio Ligand Field Theory
   Ute Becker             : Parallelization
   Martin Brehm           : Molecular dynamics
   Dmytro Bykov           : SCF Hessian
   Vijay G. Chilkuri      : MRCI spin determinant printing
   Dipayan Datta          : RHF DLPNO-CCSD density
   Achintya Kumar Dutta   : EOM-CC, STEOM-CC
   Dmitry Ganyushin       : Spin-Orbit,Spin-Spin,Magnetic field MRCI
   Yang Guo               : DLPNO-NEVPT2, CIM, IAO-localization
   Andreas Hansen         : Spin unrestricted coupled pair/coupled cluster methods
   Lee Huntington         : MR-EOM, pCC
   Robert Izsak           : Overlap fitted RIJCOSX, COSX-SCS-MP3, EOM
   Christian Kollmar      : KDIIS, OOCD, Brueckner-CCSD(T), CCSD density
   Simone Kossmann        : Meta GGA functionals, TD-DFT gradient, OOMP2, MP2 Hessian
   Martin Krupicka        : AUTO-CI
   Dagmar Lenk            : GEPOL surface
   Dimitrios Liakos       : Extrapolation schemes; parallel MDCI
   Dimitrios Manganas     : ROCIS; embedding schemes
   Dimitrios Pantazis     : SARC Basis sets
   Taras Petrenko         : DFT Hessian,TD-DFT gradient, ASA, ECA, R-Raman, ABS, FL, XAS/XES, NRVS
   Peter Pinski           : DLPNO-MP2
   Christoph Reimann      : Effective Core Potentials
   Marius Retegan         : Local ZFS, SOC
   Christoph Riplinger    : Optimizer, TS searches, QM/MM, DLPNO-CCSD(T), (RO)-DLPNO pert. Triples
   Tobias Risthaus        : Range-separated hybrids, TD-DFT gradient, RPA, STAB
   Michael Roemelt        : Restricted open shell CIS
   Masaaki Saitow         : Open-shell DLPNO
   Barbara Sandhoefer     : DKH picture change effects
   Kantharuban Sivalingam : CASSCF convergence, NEVPT2, FIC-MRCI
   Georgi Stoychev        : AutoAux
   Boris Wezisla          : Elementary symmetry handling
   Frank Wennmohs         : Technical directorship


 We gratefully acknowledge several colleagues who have allowed us to
 interface, adapt or use parts of their codes:
   Stefan Grimme, W. Hujo, H. Kruse,             : VdW corrections, initial TS optimization,
                  C. Bannwarth                     DFT functionals, gCP, sTDA/sTD-DF
   Ed Valeev                                     : LibInt (2-el integral package), F12 methods
   Garnet Chan, S. Sharma, J. Yang, R. Olivares  : DMRG
   Ulf Ekstrom                                   : XCFun DFT Library
   Mihaly Kallay                                 : mrcc  (arbitrary order and MRCC methods)
   Jiri Pittner, Ondrej Demel                    : Mk-CCSD
   Frank Weinhold                                : gennbo (NPA and NBO analysis)
   Christopher J. Cramer and Donald G. Truhlar   : smd solvation model


 Your calculation uses the libint2 library for the computation of 2-el integrals
 For citations please refer to: http://libint.valeyev.net

 This ORCA versions uses:
   CBLAS   interface :  Fast vector & matrix operations
   LAPACKE interface :  Fast linear algebra routines
   SCALAPACK package :  Parallel linear algebra routines


Your calculation utilizes the atom-pairwise dispersion correction
with the zero-damping scheme (D30)
Cite in your paper:
S.Grimme, J.Antony, S.Ehrlich and H.Krieg, J.Chem.Phys., 132, (2010), 154104 
   

XCFun DFT library Copyright 2009-2010 Ulf Ekstrom and contributors.
See http://admol.org/xcfun for more information. This is free soft-
ware; see the source code for copying conditions. There is ABSOLUTELY
NO WARRANTY; not even for MERCHANTABILITY or FITNESS FOR A PARTICULAR
PURPOSE. For details see the documentation. Scientific users of this 
library should cite U. Ekstrom, L. Visscher, R. Bast, A. J. Thorvald-
sen and K. Ruud; J.Chem.Theor.Comp. 2010, DOI: 10.1021/ct100117s
XCFun Version 0.99 
Your calculation utilizes the basis: 6-31G(d)
   H-He, Li-Ne : W. J. Hehre, R. Ditchfield and J.A. Pople, J. Chem. Phys. 56, 2257 (1972).
                 Note: He and Ne are unpublished basis sets taken from the Gaussian program.
                 Note: Li and B from J. D. Dill and J. A. Pople, J. Chem. Phys. 62, 2921 (1975).
   Na - Ar     : M. M. Francl, W. J. Pietro, W. J. Hehre, J. S. Binkley, M. S. Gordon, 
                 D. J. DeFrees and J. A. Pople, J. Chem. Phys. 77, 3654 (1982).
   K - Zn      : V. A. Rassolov, J. A. Pople, M. A. Ratner, and T. L. Windus, J. Chem. Phys. 109, 1223 (1998).

================================================================================
                                        WARNINGS
                       Please study these warnings very carefully!
================================================================================

Warning: TCutStore was < 0. Adjusted to Thresh (uncritical)

INFO   : the flag for use of LIBINT has been found!

================================================================================
                                       INPUT FILE
================================================================================
NAME = initial43.inp
|  1> ! WB97X-D3 6-31G(d) VerySlowConv
|  2> ! KDIIS NOSOSCF
|  3> %base "Scan_43"
|  4> 
|  5> %scf
|  6> maxiter 999
|  7> end
|  8> 
|  9> * xyz 0 1
| 10> C         -3.308724749530    0.963055070236    0.352982225755
| 11> C          1.398464941804    1.571255921106   -0.333097528094
| 12> H         -3.296575253415    0.599001818635   -0.660772599839
| 13> H         -3.304097842550    2.022219122644    0.549276178251
| 14> H          1.202593673513    0.536331868489   -0.559310978341
| 15> H          1.195069230179    1.959766198889    0.650922702268
| 16> **                         ****END OF INPUT****
================================================================================

                       ****************************
                       * Single Point Calculation *
                       ****************************

---------------------------------
CARTESIAN COORDINATES (ANGSTROEM)
---------------------------------
  C     -3.308725    0.963055    0.352982
  C      1.398465    1.571256   -0.333098
  H     -3.296575    0.599002   -0.660773
  H     -3.304098    2.022219    0.549276
  H      1.202594    0.536332   -0.559311
  H      1.195069    1.959766    0.650923

----------------------------
CARTESIAN COORDINATES (A.U.)
----------------------------
  NO LB      ZA    FRAG     MASS         X           Y           Z
   0 C     6.0000    0    12.011   -6.252584    1.819910    0.667040
   1 C     6.0000    0    12.011    2.642716    2.969243   -0.629463
   2 H     1.0000    0     1.008   -6.229624    1.131949   -1.248679
   3 H     1.0000    0     1.008   -6.243840    3.821440    1.037982
   4 H     1.0000    0     1.008    2.272573    1.013520   -1.056945
   5 H     1.0000    0     1.008    2.258354    3.703421    1.230066

--------------------------------
INTERNAL COORDINATES (ANGSTROEM)
--------------------------------
 C      0   0   0     0.000000000000     0.00000000     0.00000000
 C      1   0   0     4.795648912696     0.00000000     0.00000000
 H      1   2   0     1.077209926928    84.09697761     0.00000000
 H      1   2   3     1.077209921031    84.09695802   238.68017258
 H      2   1   3     1.077314194420    74.32063434   304.90583862
 H      2   1   3     1.077314190574    74.32061313   176.41400234

---------------------------
INTERNAL COORDINATES (A.U.)
---------------------------
 C      0   0   0     0.000000000000     0.00000000     0.00000000
 C      1   0   0     9.062463079433     0.00000000     0.00000000
 H      1   2   0     2.035631750635    84.09697761     0.00000000
 H      1   2   3     2.035631739492    84.09695802   238.68017258
 H      2   1   3     2.035828787641    74.32063434   304.90583862
 H      2   1   3     2.035828780372    74.32061313   176.41400234

---------------------
BASIS SET INFORMATION
---------------------
There are 2 groups of distinct atoms

 Group   1 Type C   : 10s4p1d contracted to 3s2p1d pattern {631/31/1}
 Group   2 Type H   : 4s contracted to 2s pattern {31}

Atom   0C    basis set group =>   1
Atom   1C    basis set group =>   1
Atom   2H    basis set group =>   2
Atom   3H    basis set group =>   2
Atom   4H    basis set group =>   2
Atom   5H    basis set group =>   2
------------------------------------------------------------------------------
                           ORCA GTO INTEGRAL CALCULATION
------------------------------------------------------------------------------

                         BASIS SET STATISTICS AND STARTUP INFO

 # of primitive gaussian shells          ...   46
 # of primitive gaussian functions       ...   70
 # of contracted shells                  ...   20
 # of contracted basis functions         ...   36
 Highest angular momentum                ...    2
 Maximum contraction depth               ...    6
 Integral package used                   ... LIBINT
 Integral threshhold            Thresh   ...  1.000e-10
 Primitive cut-off              TCut     ...  1.000e-11


------------------------------ INTEGRAL EVALUATION ----------------------------


 * One electron integrals 
 Pre-screening matrix                    ... done
 Shell pair data                         ... done (   0.000 sec)

-------------------------------------------------------------------------------
                                 ORCA SCF
-------------------------------------------------------------------------------

------------
SCF SETTINGS
------------
Hamiltonian:
 Density Functional     Method          .... DFT(GTOs)
 Exchange Functional    Exchange        .... WB97X-D3
 Correlation Functional Correlation     .... WB97X-D3
 Gradients option       PostSCFGGA      .... off
 Hybrid DFT is turned on
   Fraction HF Exchange ScalHFX         ....  0.195728
   Scaling of DF-GGA-X  ScalDFX         ....  0.000000
   Scaling of DF-GGA-C  ScalDFC         ....  1.000000
   Scaling of DF-LDA-C  ScalLDAC        ....  1.000000
   Perturbative correction              ....  0.000000
 Long-range corrected/Screened/Range-Separated Hybrid DFT is turned on
   Amount of maximum screened exact exchange              ....  0.804272
   Range separation parameter mu (erf(mu*r12)/r12)        ....  0.250000


General Settings:
 Integral files         IntName         .... Scan_43
 Hartree-Fock type      HFTyp           .... RHF
 Total Charge           Charge          ....    0
 Multiplicity           Mult            ....    1
 Number of Electrons    NEL             ....   16
 Basis Dimension        Dim             ....   36
 Nuclear Repulsion      ENuc            ....     19.4757566613 Eh

Convergence Acceleration:
 DIIS                   CNVDIIS         .... on
   Start iteration      DIISMaxIt       ....     0
   Startup error        DIISStart       ....  0.200000
   # of expansion vecs  DIISMaxEq       ....     5
   Bias factor          DIISBfac        ....   1.050
   Max. coefficient     DIISMaxC        ....  10.000
 Newton-Raphson         CNVNR           .... off
 SOSCF                  CNVSOSCF        .... off
 Level Shifting         CNVShift        .... off
 Zerner damping         CNVZerner       .... off
 Static damping         CNVDamp         .... off
 Fernandez-Rico         CNVRico         .... off

SCF Procedure:
 Maximum # iterations   MaxIter         ....   999
 SCF integral mode      SCFMode         .... Direct
   Integral package                     .... LIBINT
 Reset frequeny         DirectResetFreq ....    20
 Integral Threshold     Thresh          ....  1.000e-10 Eh
 Primitive CutOff       TCut            ....  1.000e-11 Eh

Convergence Tolerance:
 Convergence Check Mode ConvCheckMode   .... All-Criteria
 Convergence forced     ConvForced      .... 0
 Energy Change          TolE            ....  1.000e-06 Eh
 Max Density Change     TolMaxP         ....  1.000e-05
 RMS Density Change     TolRMSP         ....  1.000e-06
 DIIS Error             TolErr          ....  1.000e-06


Diagonalization of the overlap matrix:
Smallest eigenvalue                        ... 3.619e-02
Time for diagonalization                   ...    0.001 sec
Threshold for overlap eigenvalues          ... 1.000e-08
Number of eigenvalues below threshold      ... 0
Time for construction of square roots      ...    0.005 sec
Total time needed                          ...    0.006 sec

-------------------
DFT GRID GENERATION
-------------------

General Integration Accuracy     IntAcc      ...  4.340
Radial Grid Type                 RadialGrid  ... Gauss-Chebyshev
Angular Grid (max. acc.)         AngularGrid ... Lebedev-110
Angular grid pruning method      GridPruning ... 3 (G Style)
Weight generation scheme         WeightScheme... Becke
Basis function cutoff            BFCut       ...    1.0000e-10
Integration weight cutoff        WCut        ...    1.0000e-14
Grids for H and He will be reduced by one unit

# of grid points (after initial pruning)     ...   6488 (   0.0 sec)
# of grid points (after weights+screening)   ...   6398 (   0.0 sec)
nearest neighbour list constructed           ...    0.0 sec
Grid point re-assignment to atoms done       ...    0.0 sec
Grid point division into batches done        ...    0.0 sec
Reduced shell lists constructed in    0.0 sec

Total number of grid points                  ...     6398
Total number of batches                      ...      103
Average number of points per batch           ...       62
Average number of grid points per atom       ...     1066
Average number of shells per batch           ...    14.03 (70.14%)
Average number of basis functions per batch  ...    24.68 (68.56%)
Average number of large shells per batch     ...    10.95 (78.07%)
Average number of large basis fcns per batch ...    19.59 (79.35%)
Maximum spatial batch extension              ...  19.75, 21.76, 21.93 au
Average spatial batch extension              ...   5.68,  5.21,  5.27 au

Time for grid setup =    0.047 sec

------------------------------
INITIAL GUESS: MODEL POTENTIAL
------------------------------
Loading Hartree-Fock densities                     ... done
Calculating cut-offs                               ... done
Setting up the integral package                    ... done
Initializing the effective Hamiltonian             ... done
Starting the Coulomb interaction                   ... done (   0.0 sec)
Reading the grid                                   ... done
Mapping shells                                     ... done
Starting the XC term evaluation                    ... done (   0.0 sec)
  promolecular density results
     # of electrons  =     15.998439382
     EX              =    -11.194587404
     EC              =     -0.448743358
     EX+EC           =    -11.643330762
Transforming the Hamiltonian                       ... done (   0.0 sec)
Diagonalizing the Hamiltonian                      ... done (   0.0 sec)
Back transforming the eigenvectors                 ... done (   0.0 sec)
Now organizing SCF variables                       ... done
                      ------------------
                      INITIAL GUESS DONE (   0.2 sec)
                      ------------------
--------------
SCF ITERATIONS
--------------
ITER       Energy         Delta-E        Max-DP      RMS-DP      [F,P]   Gradient Norm
               ***  Starting incremental Fock matrix formation  ***
                             ****Resetting KDIIS****
                             ****Turning on KDIIS(Cayley)****
  0    -78.1801287380   0.000000000000 0.01244453  0.00106107  0.0491424   0.049346914
  1    -78.1865036128  -0.006374874819 0.01328237  0.00126780  0.0422661   0.042519385
  2    -78.1929068351  -0.006403222275 0.02203898  0.00212959  0.0342019   0.034352650
  3    -78.2005962672  -0.007689432146 0.03318606  0.00325924  0.0206984   0.020791264
  4    -78.2050369468  -0.004440679562 0.00191328  0.00012684  0.0003234   0.000249662
  5    -78.2050380063  -0.000001059515 0.00014060  0.00001805  0.0001518   0.000106925
                          ***Energy convergence achieved***
  6    -78.2050381588  -0.000000152529 0.00014821  0.00001478  0.0000456   0.000037277
  7    -78.2050382267  -0.000000067916 0.00016930  0.00001366  0.0000239   0.000015583

            ***Energy convergence in two consecutive cycles with***
                    ***'reasonable' density convergence***
                       *** signaling convergence ***

                    *** KDIIS BlockDiag ( 0.000 sec) ***

               *****************************************************
               *                     SUCCESS                       *
               *           SCF CONVERGED AFTER   8 CYCLES          *
               *****************************************************

Setting up the final grid:

General Integration Accuracy     IntAcc      ...  4.670
Radial Grid Type                 RadialGrid  ... Gauss-Chebyshev
Angular Grid (max. acc.)         AngularGrid ... Lebedev-302
Angular grid pruning method      GridPruning ... 3 (G Style)
Weight generation scheme         WeightScheme... Becke
Basis function cutoff            BFCut       ...    1.0000e-10
Integration weight cutoff        WCut        ...    1.0000e-14
Grids for H and He will be reduced by one unit

# of grid points (after initial pruning)     ...  26000 (   0.0 sec)
# of grid points (after weights+screening)   ...  25584 (   0.0 sec)
nearest neighbour list constructed           ...    0.0 sec
Grid point re-assignment to atoms done       ...    0.0 sec
Grid point division into batches done        ...    0.1 sec
Reduced shell lists constructed in    0.2 sec

Total number of grid points                  ...    25584
Total number of batches                      ...      403
Average number of points per batch           ...       63
Average number of grid points per atom       ...     4264
Average number of shells per batch           ...    12.44 (62.20%)
Average number of basis functions per batch  ...    21.67 (60.19%)
Average number of large shells per batch     ...     9.72 (78.15%)
Average number of large basis fcns per batch ...    17.44 (80.49%)
Maximum spatial batch extension              ...  18.30, 20.64, 19.44 au
Average spatial batch extension              ...   3.50,  3.43,  3.38 au

Final grid set up in    0.2 sec
Final integration                            ... done (   0.2 sec)
Change in XC energy                          ...     0.001174339
Integrated number of electrons               ...    15.999981315
Previous integrated no of electrons          ...    16.002605840

----------------
TOTAL SCF ENERGY
----------------

Total Energy       :          -78.20386392 Eh           -2128.03532 eV

Components:
Nuclear Repulsion  :           19.47575666 Eh             529.96228 eV
Electronic Energy  :          -97.67962059 Eh           -2657.99761 eV
One Electron Energy:         -142.05922010 Eh           -3865.62790 eV
Two Electron Energy:           44.37959952 Eh            1207.63030 eV

Virial components:
Potential Energy   :         -156.15150955 Eh           -4249.09859 eV
Kinetic Energy     :           77.94764563 Eh            2121.06327 eV
Virial Ratio       :            2.00328706


DFT components:
N(Alpha)           :        7.999990657530 electrons
N(Beta)            :        7.999990657530 electrons
N(Total)           :       15.999981315060 electrons
E(XC)              :       -8.145794444032 Eh       

---------------
SCF CONVERGENCE
---------------

  Last Energy change         ...   -3.6220e-08  Tolerance :   1.0000e-06
  Last MAX-Density change    ...    9.5196e-05  Tolerance :   1.0000e-05
  Last RMS-Density change    ...    8.6154e-06  Tolerance :   1.0000e-06
  Last DIIS Error            ...    9.2062e-06  Tolerance :   1.0000e-06

             **** THE GBW FILE WAS UPDATED (Scan_43.gbw) ****
             **** DENSITY FILE WAS UPDATED (Scan_43.scfp.tmp) ****
             **** ENERGY FILE WAS UPDATED (Scan_43.en.tmp) ****
----------------
ORBITAL ENERGIES
----------------

  NO   OCC          E(Eh)            E(eV) 
   0   2.0000     -10.336906      -281.2815 
   1   2.0000     -10.335233      -281.2360 
   2   2.0000      -0.777077       -21.1453 
   3   2.0000      -0.775186       -21.0939 
   4   2.0000      -0.541246       -14.7281 
   5   2.0000      -0.539293       -14.6749 
   6   2.0000      -0.312795        -8.5116 
   7   2.0000      -0.310572        -8.4511 
   8   0.0000      -0.023616        -0.6426 
   9   0.0000      -0.018573        -0.5054 
  10   0.0000       0.208427         5.6716 
  11   0.0000       0.213165         5.8005 
  12   0.0000       0.274107         7.4588 
  13   0.0000       0.278266         7.5720 
  14   0.0000       0.647172        17.6104 
  15   0.0000       0.656704        17.8698 
  16   0.0000       0.658298        17.9132 
  17   0.0000       0.659319        17.9410 
  18   0.0000       0.665137        18.0993 
  19   0.0000       0.685828        18.6623 
  20   0.0000       0.767086        20.8735 
  21   0.0000       0.774292        21.0695 
  22   0.0000       1.016233        27.6531 
  23   0.0000       1.020916        27.7805 
  24   0.0000       1.031553        28.0700 
  25   0.0000       1.035313        28.1723 
  26   0.0000       1.743233        47.4358 
  27   0.0000       1.744164        47.4611 
  28   0.0000       1.789362        48.6910 
  29   0.0000       1.791002        48.7356 
  30   0.0000       1.793123        48.7934 
  31   0.0000       1.795227        48.8506 
  32   0.0000       2.176682        59.2305 
  33   0.0000       2.181239        59.3545 
  34   0.0000       2.309395        62.8418 
  35   0.0000       2.311670        62.9037 

                    ********************************
                    * MULLIKEN POPULATION ANALYSIS *
                    ********************************

-----------------------
MULLIKEN ATOMIC CHARGES
-----------------------
   0 C :   -0.341457
   1 C :   -0.342200
   2 H :    0.170732
   3 H :    0.170649
   4 H :    0.171186
   5 H :    0.171091
Sum of atomic charges:   -0.0000000

--------------------------------
MULLIKEN REDUCED ORBITAL CHARGES
--------------------------------
  0 C s       :     3.679279  s :     3.679279
      pz      :     1.371280  p :     2.639510
      px      :     0.000286
      py      :     1.267944
      dz2     :     0.013214  d :     0.022668
      dxz     :     0.000006
      dyz     :     0.001205
      dx2y2   :     0.008241
      dxy     :     0.000002
  1 C s       :     3.680166  s :     3.680166
      pz      :     1.240871  p :     2.639356
      px      :     0.220729
      py      :     1.177756
      dz2     :     0.011032  d :     0.022678
      dxz     :     0.001975
      dyz     :     0.001321
      dx2y2   :     0.006363
      dxy     :     0.001987
  2 H s       :     0.829268  s :     0.829268
  3 H s       :     0.829351  s :     0.829351
  4 H s       :     0.828814  s :     0.828814
  5 H s       :     0.828909  s :     0.828909


                     *******************************
                     * LOEWDIN POPULATION ANALYSIS *
                     *******************************

----------------------
LOEWDIN ATOMIC CHARGES
----------------------
   0 C :   -0.251272
   1 C :   -0.251234
   2 H :    0.125689
   3 H :    0.125508
   4 H :    0.125844
   5 H :    0.125466

-------------------------------
LOEWDIN REDUCED ORBITAL CHARGES
-------------------------------
  0 C s       :     3.423133  s :     3.423133
      pz      :     1.444805  p :     2.795791
      px      :     0.000288
      py      :     1.350698
      dz2     :     0.018659  d :     0.032349
      dxz     :     0.000007
      dyz     :     0.002506
      dx2y2   :     0.011173
      dxy     :     0.000003
  1 C s       :     3.423608  s :     3.423608
      pz      :     1.310353  p :     2.795280
      px      :     0.227040
      py      :     1.257886
      dz2     :     0.015676  d :     0.032347
      dxz     :     0.002468
      dyz     :     0.002728
      dx2y2   :     0.008882
      dxy     :     0.002594
  2 H s       :     0.874311  s :     0.874311
  3 H s       :     0.874492  s :     0.874492
  4 H s       :     0.874156  s :     0.874156
  5 H s       :     0.874534  s :     0.874534


                      *****************************
                      * MAYER POPULATION ANALYSIS *
                      *****************************

  NA   - Mulliken gross atomic population
  ZA   - Total nuclear charge
  QA   - Mulliken gross atomic charge
  VA   - Mayer's total valence
  BVA  - Mayer's bonded valence
  FA   - Mayer's free valence

  ATOM       NA         ZA         QA         VA         BVA        FA
  0 C      6.3415     6.0000    -0.3415     1.8460     1.8460     0.0000
  1 C      6.3422     6.0000    -0.3422     1.8454     1.8454    -0.0000
  2 H      0.8293     1.0000     0.1707     0.9247     0.9247     0.0000
  3 H      0.8294     1.0000     0.1706     0.9252     0.9252     0.0000
  4 H      0.8288     1.0000     0.1712     0.9249     0.9249    -0.0000
  5 H      0.8289     1.0000     0.1711     0.9244     0.9244    -0.0000

  Mayer bond orders larger than 0.1
B(  0-C ,  2-H ) :   0.9227 B(  0-C ,  3-H ) :   0.9231 B(  1-C ,  4-H ) :   0.9229 
B(  1-C ,  5-H ) :   0.9224 

-------
TIMINGS
-------

Total SCF time: 0 days 0 hours 0 min 3 sec 

Total time                  ....       3.593 sec
Sum of individual times     ....       3.466 sec  ( 96.5%)

Fock matrix formation       ....       3.020 sec  ( 84.1%)
  XC integration            ....       0.794 sec  ( 26.3% of F)
    Basis function eval.    ....       0.266 sec  ( 33.5% of XC)
    Density eval.           ....       0.039 sec  (  4.9% of XC)
    XC-Functional eval.     ....       0.250 sec  ( 31.4% of XC)
    XC-Potential eval.      ....       0.027 sec  (  3.4% of XC)
Diagonalization             ....       0.016 sec  (  0.4%)
Density matrix formation    ....       0.000 sec  (  0.0%)
Population analysis         ....       0.017 sec  (  0.5%)
Initial guess               ....       0.153 sec  (  4.3%)
Orbital Transformation      ....       0.000 sec  (  0.0%)
Orbital Orthonormalization  ....       0.000 sec  (  0.0%)
DIIS solution               ....       0.000 sec  (  0.0%)
Grid generation             ....       0.260 sec  (  7.2%)


-------------------------------------------------------------------------------
                          DFT DISPERSION CORRECTION                            
                                                                               
                              DFTD3 V3.1  Rev 1                                
                              USING zero damping                               
-------------------------------------------------------------------------------
The omegaB97X-D3 functional is recognized. Fit by Chai et al.
Active option DFTDOPT                   ...         3   

molecular C6(AA) [au] = 320.314193 


            DFT-D V3
 parameters
 s6 scaling factor         :     1.0000 
 rs6 scaling factor        :     1.2810 
 s8 scaling factor         :     1.0000 
 rs8 scaling factor        :     1.0940 
 Damping factor alpha6     :    14.0000 
 Damping factor alpha8     :    16.0000 
 ad hoc parameters k1-k3   :    16.0000     1.3333    -4.0000 

 Edisp/kcal,au: -0.125700452676  -0.000200316401 
 E6   /kcal   :  -0.093458838 
 E8   /kcal   :  -0.032241615 
 % E8         :  25.649561340 

-------------------------   ----------------
Dispersion correction           -0.000200316
-------------------------   ----------------


-------------------------   --------------------
FINAL SINGLE POINT ENERGY       -78.204064240194
-------------------------   --------------------


                            ***************************************
                            *     ORCA property calculations      *
                            ***************************************

                                    ---------------------
                                    Active property flags
                                    ---------------------
   (+) Dipole Moment


------------------------------------------------------------------------------
                       ORCA ELECTRIC PROPERTIES CALCULATION
------------------------------------------------------------------------------

Dipole Moment Calculation                       ... on
Quadrupole Moment Calculation                   ... off
Polarizability Calculation                      ... off
GBWName                                         ... Scan_43.gbw
Electron density file                           ... Scan_43.scfp.tmp

-------------
DIPOLE MOMENT
-------------
                                X             Y             Z
Electronic contribution:      0.03181      -0.00710       0.00703
Nuclear contribution   :     -0.30727       0.03912      -0.04792
                        -----------------------------------------
Total Dipole Moment    :     -0.27546       0.03202      -0.04089
                        -----------------------------------------
Magnitude (a.u.)       :      0.28031
Magnitude (Debye)      :      0.71250


Timings for individual modules:

Sum of individual times         ...        4.050 sec (=   0.068 min)
GTO integral calculation        ...        0.414 sec (=   0.007 min)  10.2 %
SCF iterations                  ...        3.636 sec (=   0.061 min)  89.8 %
                             ****ORCA TERMINATED NORMALLY****
TOTAL RUN TIME: 0 days 0 hours 0 minutes 4 seconds 434 msec
