
                                 *****************
                                 * O   R   C   A *
                                 *****************

           --- An Ab Initio, DFT and Semiempirical electronic structure package ---

                  #######################################################
                  #                        -***-                        #
                  #  Department of molecular theory and spectroscopy    #
                  #              Directorship: Frank Neese              #
                  # Max Planck Institute for Chemical Energy Conversion #
                  #                  D-45470 Muelheim/Ruhr              #
                  #                       Germany                       #
                  #                                                     #
                  #                  All rights reserved                #
                  #                        -***-                        #
                  #######################################################


                         Program Version 4.0.0.2 - RELEASE -


 With contributions from (in alphabetic order):
   Daniel Aravena         : Magnetic Properties
   Michael Atanasov       : Ab Initio Ligand Field Theory
   Ute Becker             : Parallelization
   Martin Brehm           : Molecular dynamics
   Dmytro Bykov           : SCF Hessian
   Vijay G. Chilkuri      : MRCI spin determinant printing
   Dipayan Datta          : RHF DLPNO-CCSD density
   Achintya Kumar Dutta   : EOM-CC, STEOM-CC
   Dmitry Ganyushin       : Spin-Orbit,Spin-Spin,Magnetic field MRCI
   Yang Guo               : DLPNO-NEVPT2, CIM, IAO-localization
   Andreas Hansen         : Spin unrestricted coupled pair/coupled cluster methods
   Lee Huntington         : MR-EOM, pCC
   Robert Izsak           : Overlap fitted RIJCOSX, COSX-SCS-MP3, EOM
   Christian Kollmar      : KDIIS, OOCD, Brueckner-CCSD(T), CCSD density
   Simone Kossmann        : Meta GGA functionals, TD-DFT gradient, OOMP2, MP2 Hessian
   Martin Krupicka        : AUTO-CI
   Dagmar Lenk            : GEPOL surface
   Dimitrios Liakos       : Extrapolation schemes; parallel MDCI
   Dimitrios Manganas     : ROCIS; embedding schemes
   Dimitrios Pantazis     : SARC Basis sets
   Taras Petrenko         : DFT Hessian,TD-DFT gradient, ASA, ECA, R-Raman, ABS, FL, XAS/XES, NRVS
   Peter Pinski           : DLPNO-MP2
   Christoph Reimann      : Effective Core Potentials
   Marius Retegan         : Local ZFS, SOC
   Christoph Riplinger    : Optimizer, TS searches, QM/MM, DLPNO-CCSD(T), (RO)-DLPNO pert. Triples
   Tobias Risthaus        : Range-separated hybrids, TD-DFT gradient, RPA, STAB
   Michael Roemelt        : Restricted open shell CIS
   Masaaki Saitow         : Open-shell DLPNO
   Barbara Sandhoefer     : DKH picture change effects
   Kantharuban Sivalingam : CASSCF convergence, NEVPT2, FIC-MRCI
   Georgi Stoychev        : AutoAux
   Boris Wezisla          : Elementary symmetry handling
   Frank Wennmohs         : Technical directorship


 We gratefully acknowledge several colleagues who have allowed us to
 interface, adapt or use parts of their codes:
   Stefan Grimme, W. Hujo, H. Kruse,             : VdW corrections, initial TS optimization,
                  C. Bannwarth                     DFT functionals, gCP, sTDA/sTD-DF
   Ed Valeev                                     : LibInt (2-el integral package), F12 methods
   Garnet Chan, S. Sharma, J. Yang, R. Olivares  : DMRG
   Ulf Ekstrom                                   : XCFun DFT Library
   Mihaly Kallay                                 : mrcc  (arbitrary order and MRCC methods)
   Jiri Pittner, Ondrej Demel                    : Mk-CCSD
   Frank Weinhold                                : gennbo (NPA and NBO analysis)
   Christopher J. Cramer and Donald G. Truhlar   : smd solvation model


 Your calculation uses the libint2 library for the computation of 2-el integrals
 For citations please refer to: http://libint.valeyev.net

 This ORCA versions uses:
   CBLAS   interface :  Fast vector & matrix operations
   LAPACKE interface :  Fast linear algebra routines
   SCALAPACK package :  Parallel linear algebra routines


Your calculation utilizes the atom-pairwise dispersion correction
with the zero-damping scheme (D30)
Cite in your paper:
S.Grimme, J.Antony, S.Ehrlich and H.Krieg, J.Chem.Phys., 132, (2010), 154104 
   

XCFun DFT library Copyright 2009-2010 Ulf Ekstrom and contributors.
See http://admol.org/xcfun for more information. This is free soft-
ware; see the source code for copying conditions. There is ABSOLUTELY
NO WARRANTY; not even for MERCHANTABILITY or FITNESS FOR A PARTICULAR
PURPOSE. For details see the documentation. Scientific users of this 
library should cite U. Ekstrom, L. Visscher, R. Bast, A. J. Thorvald-
sen and K. Ruud; J.Chem.Theor.Comp. 2010, DOI: 10.1021/ct100117s
XCFun Version 0.99 
Your calculation utilizes the basis: 6-31G(d)
   H-He, Li-Ne : W. J. Hehre, R. Ditchfield and J.A. Pople, J. Chem. Phys. 56, 2257 (1972).
                 Note: He and Ne are unpublished basis sets taken from the Gaussian program.
                 Note: Li and B from J. D. Dill and J. A. Pople, J. Chem. Phys. 62, 2921 (1975).
   Na - Ar     : M. M. Francl, W. J. Pietro, W. J. Hehre, J. S. Binkley, M. S. Gordon, 
                 D. J. DeFrees and J. A. Pople, J. Chem. Phys. 77, 3654 (1982).
   K - Zn      : V. A. Rassolov, J. A. Pople, M. A. Ratner, and T. L. Windus, J. Chem. Phys. 109, 1223 (1998).

================================================================================
                                        WARNINGS
                       Please study these warnings very carefully!
================================================================================

Warning: TCutStore was < 0. Adjusted to Thresh (uncritical)

INFO   : the flag for use of LIBINT has been found!

================================================================================
                                       INPUT FILE
================================================================================
NAME = initial44.inp
|  1> ! WB97X-D3 6-31G(d) VerySlowConv
|  2> ! KDIIS NOSOSCF
|  3> %base "Scan_44"
|  4> 
|  5> %scf
|  6> maxiter 999
|  7> end
|  8> 
|  9> * xyz 0 1
| 10> C         -3.361044710229    0.961546797664    0.354430929164
| 11> C          1.451459611280    1.566477909035   -0.327148318423
| 12> H         -3.313742622465    0.596276068938   -0.657781703443
| 13> H         -3.321265735163    2.019600264362    0.552357953715
| 14> H          1.219424295699    0.542084560509   -0.566099624901
| 15> H          1.211899160878    1.965644399492    0.644240763887
| 16> **                         ****END OF INPUT****
================================================================================

                       ****************************
                       * Single Point Calculation *
                       ****************************

---------------------------------
CARTESIAN COORDINATES (ANGSTROEM)
---------------------------------
  C     -3.361045    0.961547    0.354431
  C      1.451460    1.566478   -0.327148
  H     -3.313743    0.596276   -0.657782
  H     -3.321266    2.019600    0.552358
  H      1.219424    0.542085   -0.566100
  H      1.211899    1.965644    0.644241

----------------------------
CARTESIAN COORDINATES (A.U.)
----------------------------
  NO LB      ZA    FRAG     MASS         X           Y           Z
   0 C     6.0000    0    12.011   -6.351454    1.817060    0.669777
   1 C     6.0000    0    12.011    2.742861    2.960214   -0.618221
   2 H     1.0000    0     1.008   -6.262066    1.126798   -1.243027
   3 H     1.0000    0     1.008   -6.276283    3.816491    1.043805
   4 H     1.0000    0     1.008    2.304378    1.024391   -1.069773
   5 H     1.0000    0     1.008    2.290158    3.714530    1.217439

--------------------------------
INTERNAL COORDINATES (ANGSTROEM)
--------------------------------
 C      0   0   0     0.000000000000     0.00000000     0.00000000
 C      1   0   0     4.898029171492     0.00000000     0.00000000
 H      1   2   0     1.077141869198    82.41300293     0.00000000
 H      1   2   3     1.077141871945    82.41298106   237.93766490
 H      2   1   3     1.077181436457    72.64852919   306.35576253
 H      2   1   3     1.077181435846    72.64850643   175.70658610

---------------------------
INTERNAL COORDINATES (A.U.)
---------------------------
 C      0   0   0     0.000000000000     0.00000000     0.00000000
 C      1   0   0     9.255933730077     0.00000000     0.00000000
 H      1   2   0     2.035503140165    82.41300293     0.00000000
 H      1   2   3     2.035503145355    82.41298106   237.93766490
 H      2   1   3     2.035577911449    72.64852919   306.35576253
 H      2   1   3     2.035577910293    72.64850643   175.70658610

---------------------
BASIS SET INFORMATION
---------------------
There are 2 groups of distinct atoms

 Group   1 Type C   : 10s4p1d contracted to 3s2p1d pattern {631/31/1}
 Group   2 Type H   : 4s contracted to 2s pattern {31}

Atom   0C    basis set group =>   1
Atom   1C    basis set group =>   1
Atom   2H    basis set group =>   2
Atom   3H    basis set group =>   2
Atom   4H    basis set group =>   2
Atom   5H    basis set group =>   2
------------------------------------------------------------------------------
                           ORCA GTO INTEGRAL CALCULATION
------------------------------------------------------------------------------

                         BASIS SET STATISTICS AND STARTUP INFO

 # of primitive gaussian shells          ...   46
 # of primitive gaussian functions       ...   70
 # of contracted shells                  ...   20
 # of contracted basis functions         ...   36
 Highest angular momentum                ...    2
 Maximum contraction depth               ...    6
 Integral package used                   ... LIBINT
 Integral threshhold            Thresh   ...  1.000e-10
 Primitive cut-off              TCut     ...  1.000e-11


------------------------------ INTEGRAL EVALUATION ----------------------------


 * One electron integrals 
 Pre-screening matrix                    ... done
 Shell pair data                         ... done (   0.000 sec)

-------------------------------------------------------------------------------
                                 ORCA SCF
-------------------------------------------------------------------------------

------------
SCF SETTINGS
------------
Hamiltonian:
 Density Functional     Method          .... DFT(GTOs)
 Exchange Functional    Exchange        .... WB97X-D3
 Correlation Functional Correlation     .... WB97X-D3
 Gradients option       PostSCFGGA      .... off
 Hybrid DFT is turned on
   Fraction HF Exchange ScalHFX         ....  0.195728
   Scaling of DF-GGA-X  ScalDFX         ....  0.000000
   Scaling of DF-GGA-C  ScalDFC         ....  1.000000
   Scaling of DF-LDA-C  ScalLDAC        ....  1.000000
   Perturbative correction              ....  0.000000
 Long-range corrected/Screened/Range-Separated Hybrid DFT is turned on
   Amount of maximum screened exact exchange              ....  0.804272
   Range separation parameter mu (erf(mu*r12)/r12)        ....  0.250000


General Settings:
 Integral files         IntName         .... Scan_44
 Hartree-Fock type      HFTyp           .... RHF
 Total Charge           Charge          ....    0
 Multiplicity           Mult            ....    1
 Number of Electrons    NEL             ....   16
 Basis Dimension        Dim             ....   36
 Nuclear Repulsion      ENuc            ....     19.3520669171 Eh

Convergence Acceleration:
 DIIS                   CNVDIIS         .... on
   Start iteration      DIISMaxIt       ....     0
   Startup error        DIISStart       ....  0.200000
   # of expansion vecs  DIISMaxEq       ....     5
   Bias factor          DIISBfac        ....   1.050
   Max. coefficient     DIISMaxC        ....  10.000
 Newton-Raphson         CNVNR           .... off
 SOSCF                  CNVSOSCF        .... off
 Level Shifting         CNVShift        .... off
 Zerner damping         CNVZerner       .... off
 Static damping         CNVDamp         .... off
 Fernandez-Rico         CNVRico         .... off

SCF Procedure:
 Maximum # iterations   MaxIter         ....   999
 SCF integral mode      SCFMode         .... Direct
   Integral package                     .... LIBINT
 Reset frequeny         DirectResetFreq ....    20
 Integral Threshold     Thresh          ....  1.000e-10 Eh
 Primitive CutOff       TCut            ....  1.000e-11 Eh

Convergence Tolerance:
 Convergence Check Mode ConvCheckMode   .... All-Criteria
 Convergence forced     ConvForced      .... 0
 Energy Change          TolE            ....  1.000e-06 Eh
 Max Density Change     TolMaxP         ....  1.000e-05
 RMS Density Change     TolRMSP         ....  1.000e-06
 DIIS Error             TolErr          ....  1.000e-06


Diagonalization of the overlap matrix:
Smallest eigenvalue                        ... 3.621e-02
Time for diagonalization                   ...    0.001 sec
Threshold for overlap eigenvalues          ... 1.000e-08
Number of eigenvalues below threshold      ... 0
Time for construction of square roots      ...    0.005 sec
Total time needed                          ...    0.006 sec

-------------------
DFT GRID GENERATION
-------------------

General Integration Accuracy     IntAcc      ...  4.340
Radial Grid Type                 RadialGrid  ... Gauss-Chebyshev
Angular Grid (max. acc.)         AngularGrid ... Lebedev-110
Angular grid pruning method      GridPruning ... 3 (G Style)
Weight generation scheme         WeightScheme... Becke
Basis function cutoff            BFCut       ...    1.0000e-10
Integration weight cutoff        WCut        ...    1.0000e-14
Grids for H and He will be reduced by one unit

# of grid points (after initial pruning)     ...   6488 (   0.0 sec)
# of grid points (after weights+screening)   ...   6391 (   0.0 sec)
nearest neighbour list constructed           ...    0.0 sec
Grid point re-assignment to atoms done       ...    0.0 sec
Grid point division into batches done        ...    0.0 sec
Reduced shell lists constructed in    0.0 sec

Total number of grid points                  ...     6391
Total number of batches                      ...      103
Average number of points per batch           ...       62
Average number of grid points per atom       ...     1065
Average number of shells per batch           ...    14.04 (70.19%)
Average number of basis functions per batch  ...    24.63 (68.43%)
Average number of large shells per batch     ...    10.69 (76.16%)
Average number of large basis fcns per batch ...    19.10 (77.52%)
Maximum spatial batch extension              ...  19.75, 21.76, 22.36 au
Average spatial batch extension              ...   5.71,  5.22,  5.37 au

Time for grid setup =    0.047 sec

------------------------------
INITIAL GUESS: MODEL POTENTIAL
------------------------------
Loading Hartree-Fock densities                     ... done
Calculating cut-offs                               ... done
Setting up the integral package                    ... done
Initializing the effective Hamiltonian             ... done
Starting the Coulomb interaction                   ... done (   0.0 sec)
Reading the grid                                   ... done
Mapping shells                                     ... done
Starting the XC term evaluation                    ... done (   0.0 sec)
  promolecular density results
     # of electrons  =     15.998486932
     EX              =    -11.194676467
     EC              =     -0.448743336
     EX+EC           =    -11.643419803
Transforming the Hamiltonian                       ... done (   0.0 sec)
Diagonalizing the Hamiltonian                      ... done (   0.0 sec)
Back transforming the eigenvectors                 ... done (   0.0 sec)
Now organizing SCF variables                       ... done
                      ------------------
                      INITIAL GUESS DONE (   0.2 sec)
                      ------------------
--------------
SCF ITERATIONS
--------------
ITER       Energy         Delta-E        Max-DP      RMS-DP      [F,P]   Gradient Norm
               ***  Starting incremental Fock matrix formation  ***
                             ****Resetting KDIIS****
                             ****Turning on KDIIS(Cayley)****
  0    -78.1799176350   0.000000000000 0.01240471  0.00105909  0.0481839   0.049451928
  1    -78.1863216815  -0.006404046492 0.01323547  0.00126519  0.0414397   0.042607340
  2    -78.1927525262  -0.006430844719 0.02195955  0.00212590  0.0335326   0.034423429
  3    -78.2004756836  -0.007723157369 0.03303990  0.00325411  0.0202931   0.020834225
  4    -78.2049359292  -0.004460245581 0.00194096  0.00012794  0.0003254   0.000251266
  5    -78.2049370111  -0.000001081990 0.00014303  0.00001812  0.0001497   0.000105186
                          ***Energy convergence achieved***
  6    -78.2049371642  -0.000000153007 0.00014328  0.00001575  0.0000395   0.000034066
  7    -78.2049372332  -0.000000069081 0.00018303  0.00001603  0.0000240   0.000015353

            ***Energy convergence in two consecutive cycles with***
                    ***'reasonable' density convergence***
                       *** signaling convergence ***

                    *** KDIIS BlockDiag ( 0.000 sec) ***

               *****************************************************
               *                     SUCCESS                       *
               *           SCF CONVERGED AFTER   8 CYCLES          *
               *****************************************************

Setting up the final grid:

General Integration Accuracy     IntAcc      ...  4.670
Radial Grid Type                 RadialGrid  ... Gauss-Chebyshev
Angular Grid (max. acc.)         AngularGrid ... Lebedev-302
Angular grid pruning method      GridPruning ... 3 (G Style)
Weight generation scheme         WeightScheme... Becke
Basis function cutoff            BFCut       ...    1.0000e-10
Integration weight cutoff        WCut        ...    1.0000e-14
Grids for H and He will be reduced by one unit

# of grid points (after initial pruning)     ...  26000 (   0.0 sec)
# of grid points (after weights+screening)   ...  25582 (   0.0 sec)
nearest neighbour list constructed           ...    0.0 sec
Grid point re-assignment to atoms done       ...    0.0 sec
Grid point division into batches done        ...    0.1 sec
Reduced shell lists constructed in    0.2 sec

Total number of grid points                  ...    25582
Total number of batches                      ...      403
Average number of points per batch           ...       63
Average number of grid points per atom       ...     4264
Average number of shells per batch           ...    12.40 (62.02%)
Average number of basis functions per batch  ...    21.61 (60.02%)
Average number of large shells per batch     ...     9.55 (77.03%)
Average number of large basis fcns per batch ...    17.09 (79.09%)
Maximum spatial batch extension              ...  19.40, 20.86, 18.95 au
Average spatial batch extension              ...   3.50,  3.46,  3.41 au

Final grid set up in    0.2 sec
Final integration                            ... done (   0.2 sec)
Change in XC energy                          ...     0.001192543
Integrated number of electrons               ...    15.999981148
Previous integrated no of electrons          ...    16.002542351

----------------
TOTAL SCF ENERGY
----------------

Total Energy       :          -78.20374473 Eh           -2128.03208 eV

Components:
Nuclear Repulsion  :           19.35206692 Eh             526.59651 eV
Electronic Energy  :          -97.55581165 Eh           -2654.62859 eV
One Electron Energy:         -141.80775419 Eh           -3858.78517 eV
Two Electron Energy:           44.25194254 Eh            1204.15657 eV

Virial components:
Potential Energy   :         -156.15169633 Eh           -4249.10368 eV
Kinetic Energy     :           77.94795160 Eh            2121.07160 eV
Virial Ratio       :            2.00328159


DFT components:
N(Alpha)           :        7.999990574170 electrons
N(Beta)            :        7.999990574170 electrons
N(Total)           :       15.999981148340 electrons
E(XC)              :       -8.145867673539 Eh       

---------------
SCF CONVERGENCE
---------------

  Last Energy change         ...   -3.9723e-08  Tolerance :   1.0000e-06
  Last MAX-Density change    ...    6.3653e-05  Tolerance :   1.0000e-05
  Last RMS-Density change    ...    6.6736e-06  Tolerance :   1.0000e-06
  Last DIIS Error            ...    8.6521e-06  Tolerance :   1.0000e-06

             **** THE GBW FILE WAS UPDATED (Scan_44.gbw) ****
             **** DENSITY FILE WAS UPDATED (Scan_44.scfp.tmp) ****
             **** ENERGY FILE WAS UPDATED (Scan_44.en.tmp) ****
----------------
ORBITAL ENERGIES
----------------

  NO   OCC          E(Eh)            E(eV) 
   0   2.0000     -10.336982      -281.2836 
   1   2.0000     -10.335691      -281.2485 
   2   2.0000      -0.777210       -21.1490 
   3   2.0000      -0.775628       -21.1059 
   4   2.0000      -0.541425       -14.7329 
   5   2.0000      -0.539769       -14.6879 
   6   2.0000      -0.312745        -8.5102 
   7   2.0000      -0.310807        -8.4575 
   8   0.0000      -0.023209        -0.6315 
   9   0.0000      -0.019343        -0.5263 
  10   0.0000       0.208204         5.6655 
  11   0.0000       0.212803         5.7907 
  12   0.0000       0.273602         7.4451 
  13   0.0000       0.278254         7.5717 
  14   0.0000       0.649475        17.6731 
  15   0.0000       0.656898        17.8751 
  16   0.0000       0.658637        17.9224 
  17   0.0000       0.659243        17.9389 
  18   0.0000       0.665568        18.1110 
  19   0.0000       0.682253        18.5650 
  20   0.0000       0.767358        20.8809 
  21   0.0000       0.772741        21.0274 
  22   0.0000       1.015837        27.6423 
  23   0.0000       1.021221        27.7888 
  24   0.0000       1.031593        28.0711 
  25   0.0000       1.035071        28.1657 
  26   0.0000       1.743051        47.4308 
  27   0.0000       1.743753        47.4499 
  28   0.0000       1.789230        48.6874 
  29   0.0000       1.790933        48.7338 
  30   0.0000       1.793159        48.7943 
  31   0.0000       1.794719        48.8368 
  32   0.0000       2.177017        59.2396 
  33   0.0000       2.181114        59.3511 
  34   0.0000       2.309321        62.8398 
  35   0.0000       2.311145        62.8895 

                    ********************************
                    * MULLIKEN POPULATION ANALYSIS *
                    ********************************

-----------------------
MULLIKEN ATOMIC CHARGES
-----------------------
   0 C :   -0.340837
   1 C :   -0.341604
   2 H :    0.170426
   3 H :    0.170343
   4 H :    0.170926
   5 H :    0.170746
Sum of atomic charges:   -0.0000000

--------------------------------
MULLIKEN REDUCED ORBITAL CHARGES
--------------------------------
  0 C s       :     3.679196  s :     3.679196
      pz      :     1.365515  p :     2.638976
      px      :     0.009121
      py      :     1.264340
      dz2     :     0.013109  d :     0.022666
      dxz     :     0.000104
      dyz     :     0.001209
      dx2y2   :     0.008156
      dxy     :     0.000088
  1 C s       :     3.680144  s :     3.680144
      pz      :     1.186850  p :     2.638735
      px      :     0.312795
      py      :     1.139090
      dz2     :     0.010211  d :     0.022726
      dxz     :     0.002678
      dyz     :     0.001403
      dx2y2   :     0.005693
      dxy     :     0.002739
  2 H s       :     0.829574  s :     0.829574
  3 H s       :     0.829657  s :     0.829657
  4 H s       :     0.829074  s :     0.829074
  5 H s       :     0.829254  s :     0.829254


                     *******************************
                     * LOEWDIN POPULATION ANALYSIS *
                     *******************************

----------------------
LOEWDIN ATOMIC CHARGES
----------------------
   0 C :   -0.251036
   1 C :   -0.250703
   2 H :    0.125559
   3 H :    0.125410
   4 H :    0.125609
   5 H :    0.125161

-------------------------------
LOEWDIN REDUCED ORBITAL CHARGES
-------------------------------
  0 C s       :     3.423078  s :     3.423078
      pz      :     1.439017  p :     2.795605
      px      :     0.009383
      py      :     1.347205
      dz2     :     0.018519  d :     0.032353
      dxz     :     0.000131
      dyz     :     0.002516
      dx2y2   :     0.011073
      dxy     :     0.000115
  1 C s       :     3.423413  s :     3.423413
      pz      :     1.254866  p :     2.794884
      px      :     0.321698
      py      :     1.218320
      dz2     :     0.014552  d :     0.032406
      dxz     :     0.003357
      dyz     :     0.002861
      dx2y2   :     0.008050
      dxy     :     0.003586
  2 H s       :     0.874441  s :     0.874441
  3 H s       :     0.874590  s :     0.874590
  4 H s       :     0.874391  s :     0.874391
  5 H s       :     0.874839  s :     0.874839


                      *****************************
                      * MAYER POPULATION ANALYSIS *
                      *****************************

  NA   - Mulliken gross atomic population
  ZA   - Total nuclear charge
  QA   - Mulliken gross atomic charge
  VA   - Mayer's total valence
  BVA  - Mayer's bonded valence
  FA   - Mayer's free valence

  ATOM       NA         ZA         QA         VA         BVA        FA
  0 C      6.3408     6.0000    -0.3408     1.8459     1.8459     0.0000
  1 C      6.3416     6.0000    -0.3416     1.8453     1.8453    -0.0000
  2 H      0.8296     1.0000     0.1704     0.9247     0.9247     0.0000
  3 H      0.8297     1.0000     0.1703     0.9252     0.9252     0.0000
  4 H      0.8291     1.0000     0.1709     0.9249     0.9249    -0.0000
  5 H      0.8293     1.0000     0.1707     0.9245     0.9245    -0.0000

  Mayer bond orders larger than 0.1
B(  0-C ,  2-H ) :   0.9226 B(  0-C ,  3-H ) :   0.9231 B(  1-C ,  4-H ) :   0.9228 
B(  1-C ,  5-H ) :   0.9224 

-------
TIMINGS
-------

Total SCF time: 0 days 0 hours 0 min 3 sec 

Total time                  ....       3.078 sec
Sum of individual times     ....       2.959 sec  ( 96.1%)

Fock matrix formation       ....       2.513 sec  ( 81.6%)
  XC integration            ....       0.817 sec  ( 32.5% of F)
    Basis function eval.    ....       0.268 sec  ( 32.9% of XC)
    Density eval.           ....       0.039 sec  (  4.8% of XC)
    XC-Functional eval.     ....       0.253 sec  ( 31.0% of XC)
    XC-Potential eval.      ....       0.028 sec  (  3.4% of XC)
Diagonalization             ....       0.030 sec  (  1.0%)
Density matrix formation    ....       0.000 sec  (  0.0%)
Population analysis         ....       0.013 sec  (  0.4%)
Initial guess               ....       0.139 sec  (  4.5%)
Orbital Transformation      ....       0.000 sec  (  0.0%)
Orbital Orthonormalization  ....       0.000 sec  (  0.0%)
DIIS solution               ....       0.000 sec  (  0.0%)
Grid generation             ....       0.264 sec  (  8.6%)


-------------------------------------------------------------------------------
                          DFT DISPERSION CORRECTION                            
                                                                               
                              DFTD3 V3.1  Rev 1                                
                              USING zero damping                               
-------------------------------------------------------------------------------
The omegaB97X-D3 functional is recognized. Fit by Chai et al.
Active option DFTDOPT                   ...         3   

molecular C6(AA) [au] = 320.313883 


            DFT-D V3
 parameters
 s6 scaling factor         :     1.0000 
 rs6 scaling factor        :     1.2810 
 s8 scaling factor         :     1.0000 
 rs8 scaling factor        :     1.0940 
 Damping factor alpha6     :    14.0000 
 Damping factor alpha8     :    16.0000 
 ad hoc parameters k1-k3   :    16.0000     1.3333    -4.0000 

 Edisp/kcal,au: -0.115704817782  -0.000184387344 
 E6   /kcal   :  -0.086642746 
 E8   /kcal   :  -0.029062071 
 % E8         :  25.117425471 

-------------------------   ----------------
Dispersion correction           -0.000184387
-------------------------   ----------------


-------------------------   --------------------
FINAL SINGLE POINT ENERGY       -78.203929117231
-------------------------   --------------------


                            ***************************************
                            *     ORCA property calculations      *
                            ***************************************

                                    ---------------------
                                    Active property flags
                                    ---------------------
   (+) Dipole Moment


------------------------------------------------------------------------------
                       ORCA ELECTRIC PROPERTIES CALCULATION
------------------------------------------------------------------------------

Dipole Moment Calculation                       ... on
Quadrupole Moment Calculation                   ... off
Polarizability Calculation                      ... off
GBWName                                         ... Scan_44.gbw
Electron density file                           ... Scan_44.scfp.tmp

-------------
DIPOLE MOMENT
-------------
                                X             Y             Z
Electronic contribution:      0.02964      -0.00802       0.00820
Nuclear contribution   :     -0.30890       0.05427      -0.06575
                        -----------------------------------------
Total Dipole Moment    :     -0.27926       0.04626      -0.05755
                        -----------------------------------------
Magnitude (a.u.)       :      0.28886
Magnitude (Debye)      :      0.73421


Timings for individual modules:

Sum of individual times         ...        3.451 sec (=   0.058 min)
GTO integral calculation        ...        0.331 sec (=   0.006 min)   9.6 %
SCF iterations                  ...        3.120 sec (=   0.052 min)  90.4 %
                             ****ORCA TERMINATED NORMALLY****
TOTAL RUN TIME: 0 days 0 hours 0 minutes 3 seconds 794 msec
