
                                 *****************
                                 * O   R   C   A *
                                 *****************

           --- An Ab Initio, DFT and Semiempirical electronic structure package ---

                  #######################################################
                  #                        -***-                        #
                  #  Department of molecular theory and spectroscopy    #
                  #              Directorship: Frank Neese              #
                  # Max Planck Institute for Chemical Energy Conversion #
                  #                  D-45470 Muelheim/Ruhr              #
                  #                       Germany                       #
                  #                                                     #
                  #                  All rights reserved                #
                  #                        -***-                        #
                  #######################################################


                         Program Version 4.0.0.2 - RELEASE -


 With contributions from (in alphabetic order):
   Daniel Aravena         : Magnetic Properties
   Michael Atanasov       : Ab Initio Ligand Field Theory
   Ute Becker             : Parallelization
   Martin Brehm           : Molecular dynamics
   Dmytro Bykov           : SCF Hessian
   Vijay G. Chilkuri      : MRCI spin determinant printing
   Dipayan Datta          : RHF DLPNO-CCSD density
   Achintya Kumar Dutta   : EOM-CC, STEOM-CC
   Dmitry Ganyushin       : Spin-Orbit,Spin-Spin,Magnetic field MRCI
   Yang Guo               : DLPNO-NEVPT2, CIM, IAO-localization
   Andreas Hansen         : Spin unrestricted coupled pair/coupled cluster methods
   Lee Huntington         : MR-EOM, pCC
   Robert Izsak           : Overlap fitted RIJCOSX, COSX-SCS-MP3, EOM
   Christian Kollmar      : KDIIS, OOCD, Brueckner-CCSD(T), CCSD density
   Simone Kossmann        : Meta GGA functionals, TD-DFT gradient, OOMP2, MP2 Hessian
   Martin Krupicka        : AUTO-CI
   Dagmar Lenk            : GEPOL surface
   Dimitrios Liakos       : Extrapolation schemes; parallel MDCI
   Dimitrios Manganas     : ROCIS; embedding schemes
   Dimitrios Pantazis     : SARC Basis sets
   Taras Petrenko         : DFT Hessian,TD-DFT gradient, ASA, ECA, R-Raman, ABS, FL, XAS/XES, NRVS
   Peter Pinski           : DLPNO-MP2
   Christoph Reimann      : Effective Core Potentials
   Marius Retegan         : Local ZFS, SOC
   Christoph Riplinger    : Optimizer, TS searches, QM/MM, DLPNO-CCSD(T), (RO)-DLPNO pert. Triples
   Tobias Risthaus        : Range-separated hybrids, TD-DFT gradient, RPA, STAB
   Michael Roemelt        : Restricted open shell CIS
   Masaaki Saitow         : Open-shell DLPNO
   Barbara Sandhoefer     : DKH picture change effects
   Kantharuban Sivalingam : CASSCF convergence, NEVPT2, FIC-MRCI
   Georgi Stoychev        : AutoAux
   Boris Wezisla          : Elementary symmetry handling
   Frank Wennmohs         : Technical directorship


 We gratefully acknowledge several colleagues who have allowed us to
 interface, adapt or use parts of their codes:
   Stefan Grimme, W. Hujo, H. Kruse,             : VdW corrections, initial TS optimization,
                  C. Bannwarth                     DFT functionals, gCP, sTDA/sTD-DF
   Ed Valeev                                     : LibInt (2-el integral package), F12 methods
   Garnet Chan, S. Sharma, J. Yang, R. Olivares  : DMRG
   Ulf Ekstrom                                   : XCFun DFT Library
   Mihaly Kallay                                 : mrcc  (arbitrary order and MRCC methods)
   Jiri Pittner, Ondrej Demel                    : Mk-CCSD
   Frank Weinhold                                : gennbo (NPA and NBO analysis)
   Christopher J. Cramer and Donald G. Truhlar   : smd solvation model


 Your calculation uses the libint2 library for the computation of 2-el integrals
 For citations please refer to: http://libint.valeyev.net

 This ORCA versions uses:
   CBLAS   interface :  Fast vector & matrix operations
   LAPACKE interface :  Fast linear algebra routines
   SCALAPACK package :  Parallel linear algebra routines


Your calculation utilizes the atom-pairwise dispersion correction
with the zero-damping scheme (D30)
Cite in your paper:
S.Grimme, J.Antony, S.Ehrlich and H.Krieg, J.Chem.Phys., 132, (2010), 154104 
   

XCFun DFT library Copyright 2009-2010 Ulf Ekstrom and contributors.
See http://admol.org/xcfun for more information. This is free soft-
ware; see the source code for copying conditions. There is ABSOLUTELY
NO WARRANTY; not even for MERCHANTABILITY or FITNESS FOR A PARTICULAR
PURPOSE. For details see the documentation. Scientific users of this 
library should cite U. Ekstrom, L. Visscher, R. Bast, A. J. Thorvald-
sen and K. Ruud; J.Chem.Theor.Comp. 2010, DOI: 10.1021/ct100117s
XCFun Version 0.99 
Your calculation utilizes the basis: 6-31G(d)
   H-He, Li-Ne : W. J. Hehre, R. Ditchfield and J.A. Pople, J. Chem. Phys. 56, 2257 (1972).
                 Note: He and Ne are unpublished basis sets taken from the Gaussian program.
                 Note: Li and B from J. D. Dill and J. A. Pople, J. Chem. Phys. 62, 2921 (1975).
   Na - Ar     : M. M. Francl, W. J. Pietro, W. J. Hehre, J. S. Binkley, M. S. Gordon, 
                 D. J. DeFrees and J. A. Pople, J. Chem. Phys. 77, 3654 (1982).
   K - Zn      : V. A. Rassolov, J. A. Pople, M. A. Ratner, and T. L. Windus, J. Chem. Phys. 109, 1223 (1998).

================================================================================
                                        WARNINGS
                       Please study these warnings very carefully!
================================================================================

Warning: TCutStore was < 0. Adjusted to Thresh (uncritical)

INFO   : the flag for use of LIBINT has been found!

================================================================================
                                       INPUT FILE
================================================================================
NAME = initial45.inp
|  1> ! WB97X-D3 6-31G(d) VerySlowConv
|  2> ! KDIIS NOSOSCF
|  3> %base "Scan_45"
|  4> 
|  5> %scf
|  6> maxiter 999
|  7> end
|  8> 
|  9> * xyz 0 1
| 10> C         -3.401480133775    0.960897998424    0.354942494914
| 11> C          1.510403273983    1.581215125409   -0.344115128673
| 12> H         -3.464717911475    0.595755815912   -0.657491791713
| 13> H         -3.472236545708    2.018471412199    0.552130239888
| 14> H          1.361143264123    0.535870087266   -0.557898740827
| 15> H          1.353618052851    1.959419560789    0.652432926411
| 16> **                         ****END OF INPUT****
================================================================================

                       ****************************
                       * Single Point Calculation *
                       ****************************

---------------------------------
CARTESIAN COORDINATES (ANGSTROEM)
---------------------------------
  C     -3.401480    0.960898    0.354942
  C      1.510403    1.581215   -0.344115
  H     -3.464718    0.595756   -0.657492
  H     -3.472237    2.018471    0.552130
  H      1.361143    0.535870   -0.557899
  H      1.353618    1.959420    0.652433

----------------------------
CARTESIAN COORDINATES (A.U.)
----------------------------
  NO LB      ZA    FRAG     MASS         X           Y           Z
   0 C     6.0000    0    12.011   -6.427866    1.815834    0.670744
   1 C     6.0000    0    12.011    2.854249    2.988064   -0.650283
   2 H     1.0000    0     1.008   -6.547368    1.125815   -1.242479
   3 H     1.0000    0     1.008   -6.561576    3.814358    1.043375
   4 H     1.0000    0     1.008    2.572188    1.012648   -1.054276
   5 H     1.0000    0     1.008    2.557967    3.702766    1.232920

--------------------------------
INTERNAL COORDINATES (ANGSTROEM)
--------------------------------
 C      0   0   0     0.000000000000     0.00000000     0.00000000
 C      1   0   0     5.000007351048     0.00000000     0.00000000
 H      1   2   0     1.078123840158    88.18611536     0.00000000
 H      1   2   3     1.078123834316    88.18602290   239.89161488
 H      2   1   3     1.077370981668    76.77758862   303.02719803
 H      2   1   3     1.077370979096    76.77756215   177.08119746

---------------------------
INTERNAL COORDINATES (A.U.)
---------------------------
 C      0   0   0     0.000000000000     0.00000000     0.00000000
 C      1   0   0     9.448644561074     0.00000000     0.00000000
 H      1   2   0     2.037358796349    88.18611536     0.00000000
 H      1   2   3     2.037358785311    88.18602290   239.89161488
 H      2   1   3     2.035936099985    76.77758862   303.02719803
 H      2   1   3     2.035936095126    76.77756215   177.08119746

---------------------
BASIS SET INFORMATION
---------------------
There are 2 groups of distinct atoms

 Group   1 Type C   : 10s4p1d contracted to 3s2p1d pattern {631/31/1}
 Group   2 Type H   : 4s contracted to 2s pattern {31}

Atom   0C    basis set group =>   1
Atom   1C    basis set group =>   1
Atom   2H    basis set group =>   2
Atom   3H    basis set group =>   2
Atom   4H    basis set group =>   2
Atom   5H    basis set group =>   2
------------------------------------------------------------------------------
                           ORCA GTO INTEGRAL CALCULATION
------------------------------------------------------------------------------

                         BASIS SET STATISTICS AND STARTUP INFO

 # of primitive gaussian shells          ...   46
 # of primitive gaussian functions       ...   70
 # of contracted shells                  ...   20
 # of contracted basis functions         ...   36
 Highest angular momentum                ...    2
 Maximum contraction depth               ...    6
 Integral package used                   ... LIBINT
 Integral threshhold            Thresh   ...  1.000e-10
 Primitive cut-off              TCut     ...  1.000e-11


------------------------------ INTEGRAL EVALUATION ----------------------------


 * One electron integrals 
 Pre-screening matrix                    ... done
 Shell pair data                         ... done (   0.000 sec)

-------------------------------------------------------------------------------
                                 ORCA SCF
-------------------------------------------------------------------------------

------------
SCF SETTINGS
------------
Hamiltonian:
 Density Functional     Method          .... DFT(GTOs)
 Exchange Functional    Exchange        .... WB97X-D3
 Correlation Functional Correlation     .... WB97X-D3
 Gradients option       PostSCFGGA      .... off
 Hybrid DFT is turned on
   Fraction HF Exchange ScalHFX         ....  0.195728
   Scaling of DF-GGA-X  ScalDFX         ....  0.000000
   Scaling of DF-GGA-C  ScalDFC         ....  1.000000
   Scaling of DF-LDA-C  ScalLDAC        ....  1.000000
   Perturbative correction              ....  0.000000
 Long-range corrected/Screened/Range-Separated Hybrid DFT is turned on
   Amount of maximum screened exact exchange              ....  0.804272
   Range separation parameter mu (erf(mu*r12)/r12)        ....  0.250000


General Settings:
 Integral files         IntName         .... Scan_45
 Hartree-Fock type      HFTyp           .... RHF
 Total Charge           Charge          ....    0
 Multiplicity           Mult            ....    1
 Number of Electrons    NEL             ....   16
 Basis Dimension        Dim             ....   36
 Nuclear Repulsion      ENuc            ....     19.1385875682 Eh

Convergence Acceleration:
 DIIS                   CNVDIIS         .... on
   Start iteration      DIISMaxIt       ....     0
   Startup error        DIISStart       ....  0.200000
   # of expansion vecs  DIISMaxEq       ....     5
   Bias factor          DIISBfac        ....   1.050
   Max. coefficient     DIISMaxC        ....  10.000
 Newton-Raphson         CNVNR           .... off
 SOSCF                  CNVSOSCF        .... off
 Level Shifting         CNVShift        .... off
 Zerner damping         CNVZerner       .... off
 Static damping         CNVDamp         .... off
 Fernandez-Rico         CNVRico         .... off

SCF Procedure:
 Maximum # iterations   MaxIter         ....   999
 SCF integral mode      SCFMode         .... Direct
   Integral package                     .... LIBINT
 Reset frequeny         DirectResetFreq ....    20
 Integral Threshold     Thresh          ....  1.000e-10 Eh
 Primitive CutOff       TCut            ....  1.000e-11 Eh

Convergence Tolerance:
 Convergence Check Mode ConvCheckMode   .... All-Criteria
 Convergence forced     ConvForced      .... 0
 Energy Change          TolE            ....  1.000e-06 Eh
 Max Density Change     TolMaxP         ....  1.000e-05
 RMS Density Change     TolRMSP         ....  1.000e-06
 DIIS Error             TolErr          ....  1.000e-06


Diagonalization of the overlap matrix:
Smallest eigenvalue                        ... 3.624e-02
Time for diagonalization                   ...    0.001 sec
Threshold for overlap eigenvalues          ... 1.000e-08
Number of eigenvalues below threshold      ... 0
Time for construction of square roots      ...    0.006 sec
Total time needed                          ...    0.006 sec

-------------------
DFT GRID GENERATION
-------------------

General Integration Accuracy     IntAcc      ...  4.340
Radial Grid Type                 RadialGrid  ... Gauss-Chebyshev
Angular Grid (max. acc.)         AngularGrid ... Lebedev-110
Angular grid pruning method      GridPruning ... 3 (G Style)
Weight generation scheme         WeightScheme... Becke
Basis function cutoff            BFCut       ...    1.0000e-10
Integration weight cutoff        WCut        ...    1.0000e-14
Grids for H and He will be reduced by one unit

# of grid points (after initial pruning)     ...   6488 (   0.0 sec)
# of grid points (after weights+screening)   ...   6406 (   0.0 sec)
nearest neighbour list constructed           ...    0.0 sec
Grid point re-assignment to atoms done       ...    0.0 sec
Grid point division into batches done        ...    0.0 sec
Reduced shell lists constructed in    0.0 sec

Total number of grid points                  ...     6406
Total number of batches                      ...      104
Average number of points per batch           ...       61
Average number of grid points per atom       ...     1068
Average number of shells per batch           ...    13.67 (68.33%)
Average number of basis functions per batch  ...    23.84 (66.22%)
Average number of large shells per batch     ...    10.42 (76.24%)
Average number of large basis fcns per batch ...    18.61 (78.07%)
Maximum spatial batch extension              ...  19.93, 21.73, 23.68 au
Average spatial batch extension              ...   5.68,  5.21,  5.37 au

Time for grid setup =    0.045 sec

------------------------------
INITIAL GUESS: MODEL POTENTIAL
------------------------------
Loading Hartree-Fock densities                     ... done
Calculating cut-offs                               ... done
Setting up the integral package                    ... done
Initializing the effective Hamiltonian             ... done
Starting the Coulomb interaction                   ... done (   0.0 sec)
Reading the grid                                   ... done
Mapping shells                                     ... done
Starting the XC term evaluation                    ... done (   0.0 sec)
  promolecular density results
     # of electrons  =     15.997896039
     EX              =    -11.194173917
     EC              =     -0.448685365
     EX+EC           =    -11.642859282
Transforming the Hamiltonian                       ... done (   0.0 sec)
Diagonalizing the Hamiltonian                      ... done (   0.0 sec)
Back transforming the eigenvectors                 ... done (   0.0 sec)
Now organizing SCF variables                       ... done
                      ------------------
                      INITIAL GUESS DONE (   0.2 sec)
                      ------------------
--------------
SCF ITERATIONS
--------------
ITER       Energy         Delta-E        Max-DP      RMS-DP      [F,P]   Gradient Norm
               ***  Starting incremental Fock matrix formation  ***
                             ****Resetting KDIIS****
                             ****Turning on KDIIS(Cayley)****
  0    -78.1805941323   0.000000000000 0.01230333  0.00106196  0.0472579   0.049210733
  1    -78.1869347097  -0.006340577401 0.01317274  0.00126849  0.0406522   0.042401021
  2    -78.1932999232  -0.006365213494 0.02183924  0.00212934  0.0328967   0.034257485
  3    -78.2009410767  -0.007641153538 0.03294859  0.00325663  0.0199134   0.020735481
  4    -78.2053544389  -0.004413362252 0.00191366  0.00012646  0.0002832   0.000258672
  5    -78.2053555601  -0.000001121178 0.00026132  0.00002312  0.0001428   0.000111198
                          ***Energy convergence achieved***
  6    -78.2053557218  -0.000000161725 0.00012792  0.00001288  0.0000620   0.000053818
  7    -78.2053558018  -0.000000079952 0.00013138  0.00001205  0.0000300   0.000022135
  8    -78.2053558434  -0.000000041632 0.00015905  0.00001493  0.0000165   0.000013164
                           ***RMSP convergence achieved***
                           ***MAXP convergence achieved***
                    *** KDIIS BlockDiag ( 0.000 sec) ***

               *****************************************************
               *                     SUCCESS                       *
               *           SCF CONVERGED AFTER   9 CYCLES          *
               *****************************************************

Setting up the final grid:

General Integration Accuracy     IntAcc      ...  4.670
Radial Grid Type                 RadialGrid  ... Gauss-Chebyshev
Angular Grid (max. acc.)         AngularGrid ... Lebedev-302
Angular grid pruning method      GridPruning ... 3 (G Style)
Weight generation scheme         WeightScheme... Becke
Basis function cutoff            BFCut       ...    1.0000e-10
Integration weight cutoff        WCut        ...    1.0000e-14
Grids for H and He will be reduced by one unit

# of grid points (after initial pruning)     ...  26000 (   0.0 sec)
# of grid points (after weights+screening)   ...  25607 (   0.0 sec)
nearest neighbour list constructed           ...    0.0 sec
Grid point re-assignment to atoms done       ...    0.0 sec
Grid point division into batches done        ...    0.1 sec
Reduced shell lists constructed in    0.2 sec

Total number of grid points                  ...    25607
Total number of batches                      ...      404
Average number of points per batch           ...       63
Average number of grid points per atom       ...     4268
Average number of shells per batch           ...    12.30 (61.48%)
Average number of basis functions per batch  ...    21.46 (59.60%)
Average number of large shells per batch     ...     9.20 (74.86%)
Average number of large basis fcns per batch ...    16.63 (77.49%)
Maximum spatial batch extension              ...  18.54, 21.99, 20.11 au
Average spatial batch extension              ...   3.50,  3.41,  3.47 au

Final grid set up in    0.2 sec
Final integration                            ... done (   0.2 sec)
Change in XC energy                          ...     0.001072335
Integrated number of electrons               ...    15.999982153
Previous integrated no of electrons          ...    16.002582794

----------------
TOTAL SCF ENERGY
----------------

Total Energy       :          -78.20428353 Eh           -2128.04674 eV

Components:
Nuclear Repulsion  :           19.13858757 Eh             520.78744 eV
Electronic Energy  :          -97.34287110 Eh           -2648.83419 eV
One Electron Energy:         -141.40418495 Eh           -3847.80349 eV
Two Electron Energy:           44.06131385 Eh            1198.96930 eV

Virial components:
Potential Energy   :         -156.14960414 Eh           -4249.04675 eV
Kinetic Energy     :           77.94532061 Eh            2121.00000 eV
Virial Ratio       :            2.00332237


DFT components:
N(Alpha)           :        7.999991076443 electrons
N(Beta)            :        7.999991076443 electrons
N(Total)           :       15.999982152886 electrons
E(XC)              :       -8.145257315465 Eh       

---------------
SCF CONVERGENCE
---------------

  Last Energy change         ...   -1.9660e-08  Tolerance :   1.0000e-06
  Last MAX-Density change    ...    8.0729e-06  Tolerance :   1.0000e-05
  Last RMS-Density change    ...    8.4650e-07  Tolerance :   1.0000e-06
  Last DIIS Error            ...    2.6640e-06  Tolerance :   1.0000e-06

             **** THE GBW FILE WAS UPDATED (Scan_45.gbw) ****
             **** DENSITY FILE WAS UPDATED (Scan_45.scfp.tmp) ****
             **** ENERGY FILE WAS UPDATED (Scan_45.en.tmp) ****
----------------
ORBITAL ENERGIES
----------------

  NO   OCC          E(Eh)            E(eV) 
   0   2.0000     -10.336372      -281.2670 
   1   2.0000     -10.333688      -281.1939 
   2   2.0000      -0.776106       -21.1189 
   3   2.0000      -0.773602       -21.0508 
   4   2.0000      -0.539869       -14.6906 
   5   2.0000      -0.537823       -14.6349 
   6   2.0000      -0.312390        -8.5006 
   7   2.0000      -0.309321        -8.4170 
   8   0.0000      -0.021999        -0.5986 
   9   0.0000      -0.017852        -0.4858 
  10   0.0000       0.210141         5.7182 
  11   0.0000       0.213519         5.8101 
  12   0.0000       0.275489         7.4964 
  13   0.0000       0.278686         7.5834 
  14   0.0000       0.655568        17.8389 
  15   0.0000       0.657128        17.8814 
  16   0.0000       0.659108        17.9352 
  17   0.0000       0.660346        17.9689 
  18   0.0000       0.665384        18.1060 
  19   0.0000       0.681415        18.5422 
  20   0.0000       0.769547        20.9404 
  21   0.0000       0.774013        21.0620 
  22   0.0000       1.016906        27.6714 
  23   0.0000       1.020945        27.7813 
  24   0.0000       1.032372        28.0923 
  25   0.0000       1.035856        28.1871 
  26   0.0000       1.744036        47.4576 
  27   0.0000       1.745785        47.5052 
  28   0.0000       1.789825        48.7036 
  29   0.0000       1.792316        48.7714 
  30   0.0000       1.793766        48.8108 
  31   0.0000       1.796784        48.8930 
  32   0.0000       2.176227        59.2182 
  33   0.0000       2.181478        59.3610 
  34   0.0000       2.310818        62.8806 
  35   0.0000       2.312841        62.9356 

                    ********************************
                    * MULLIKEN POPULATION ANALYSIS *
                    ********************************

-----------------------
MULLIKEN ATOMIC CHARGES
-----------------------
   0 C :   -0.341225
   1 C :   -0.342453
   2 H :    0.170630
   3 H :    0.170576
   4 H :    0.171228
   5 H :    0.171244
Sum of atomic charges:   -0.0000000

--------------------------------
MULLIKEN REDUCED ORBITAL CHARGES
--------------------------------
  0 C s       :     3.680849  s :     3.680849
      pz      :     1.356210  p :     2.637709
      px      :     0.025767
      py      :     1.255732
      dz2     :     0.013023  d :     0.022667
      dxz     :     0.000208
      dyz     :     0.001192
      dx2y2   :     0.007999
      dxy     :     0.000245
  1 C s       :     3.679370  s :     3.679370
      pz      :     1.296942  p :     2.640475
      px      :     0.126023
      py      :     1.217510
      dz2     :     0.011898  d :     0.022608
      dxz     :     0.001181
      dyz     :     0.001258
      dx2y2   :     0.007105
      dxy     :     0.001166
  2 H s       :     0.829370  s :     0.829370
  3 H s       :     0.829424  s :     0.829424
  4 H s       :     0.828772  s :     0.828772
  5 H s       :     0.828756  s :     0.828756


                     *******************************
                     * LOEWDIN POPULATION ANALYSIS *
                     *******************************

----------------------
LOEWDIN ATOMIC CHARGES
----------------------
   0 C :   -0.251100
   1 C :   -0.251719
   2 H :    0.125585
   3 H :    0.125497
   4 H :    0.125961
   5 H :    0.125776

-------------------------------
LOEWDIN REDUCED ORBITAL CHARGES
-------------------------------
  0 C s       :     3.424794  s :     3.424794
      pz      :     1.429345  p :     2.793957
      px      :     0.026527
      py      :     1.338084
      dz2     :     0.018395  d :     0.032349
      dxz     :     0.000259
      dyz     :     0.002494
      dx2y2   :     0.010880
      dxy     :     0.000321
  1 C s       :     3.423307  s :     3.423307
      pz      :     1.367936  p :     2.796144
      px      :     0.129677
      py      :     1.298531
      dz2     :     0.016856  d :     0.032268
      dxz     :     0.001477
      dyz     :     0.002620
      dx2y2   :     0.009793
      dxy     :     0.001522
  2 H s       :     0.874415  s :     0.874415
  3 H s       :     0.874503  s :     0.874503
  4 H s       :     0.874039  s :     0.874039
  5 H s       :     0.874224  s :     0.874224


                      *****************************
                      * MAYER POPULATION ANALYSIS *
                      *****************************

  NA   - Mulliken gross atomic population
  ZA   - Total nuclear charge
  QA   - Mulliken gross atomic charge
  VA   - Mayer's total valence
  BVA  - Mayer's bonded valence
  FA   - Mayer's free valence

  ATOM       NA         ZA         QA         VA         BVA        FA
  0 C      6.3412     6.0000    -0.3412     1.8461     1.8461     0.0000
  1 C      6.3425     6.0000    -0.3425     1.8459     1.8459    -0.0000
  2 H      0.8294     1.0000     0.1706     0.9247     0.9247     0.0000
  3 H      0.8294     1.0000     0.1706     0.9252     0.9252     0.0000
  4 H      0.8288     1.0000     0.1712     0.9251     0.9251    -0.0000
  5 H      0.8288     1.0000     0.1712     0.9246     0.9246    -0.0000

  Mayer bond orders larger than 0.1
B(  0-C ,  2-H ) :   0.9228 B(  0-C ,  3-H ) :   0.9232 B(  1-C ,  4-H ) :   0.9232 
B(  1-C ,  5-H ) :   0.9227 

-------
TIMINGS
-------

Total SCF time: 0 days 0 hours 0 min 3 sec 

Total time                  ....       3.314 sec
Sum of individual times     ....       3.185 sec  ( 96.1%)

Fock matrix formation       ....       2.752 sec  ( 83.0%)
  XC integration            ....       0.889 sec  ( 32.3% of F)
    Basis function eval.    ....       0.284 sec  ( 32.0% of XC)
    Density eval.           ....       0.041 sec  (  4.6% of XC)
    XC-Functional eval.     ....       0.302 sec  ( 33.9% of XC)
    XC-Potential eval.      ....       0.028 sec  (  3.1% of XC)
Diagonalization             ....       0.026 sec  (  0.8%)
Density matrix formation    ....       0.000 sec  (  0.0%)
Population analysis         ....       0.011 sec  (  0.3%)
Initial guess               ....       0.139 sec  (  4.2%)
Orbital Transformation      ....       0.000 sec  (  0.0%)
Orbital Orthonormalization  ....       0.000 sec  (  0.0%)
DIIS solution               ....       0.000 sec  (  0.0%)
Grid generation             ....       0.257 sec  (  7.8%)


-------------------------------------------------------------------------------
                          DFT DISPERSION CORRECTION                            
                                                                               
                              DFTD3 V3.1  Rev 1                                
                              USING zero damping                               
-------------------------------------------------------------------------------
The omegaB97X-D3 functional is recognized. Fit by Chai et al.
Active option DFTDOPT                   ...         3   

molecular C6(AA) [au] = 320.317259 


            DFT-D V3
 parameters
 s6 scaling factor         :     1.0000 
 rs6 scaling factor        :     1.2810 
 s8 scaling factor         :     1.0000 
 rs8 scaling factor        :     1.0940 
 Damping factor alpha6     :    14.0000 
 Damping factor alpha8     :    16.0000 
 ad hoc parameters k1-k3   :    16.0000     1.3333    -4.0000 

 Edisp/kcal,au: -0.094639942989  -0.000150818333 
 E6   /kcal   :  -0.070742677 
 E8   /kcal   :  -0.023897266 
 % E8         :  25.250719209 

-------------------------   ----------------
Dispersion correction           -0.000150818
-------------------------   ----------------


-------------------------   --------------------
FINAL SINGLE POINT ENERGY       -78.204434346706
-------------------------   --------------------


                            ***************************************
                            *     ORCA property calculations      *
                            ***************************************

                                    ---------------------
                                    Active property flags
                                    ---------------------
   (+) Dipole Moment


------------------------------------------------------------------------------
                       ORCA ELECTRIC PROPERTIES CALCULATION
------------------------------------------------------------------------------

Dipole Moment Calculation                       ... on
Quadrupole Moment Calculation                   ... off
Polarizability Calculation                      ... off
GBWName                                         ... Scan_45.gbw
Electron density file                           ... Scan_45.scfp.tmp

-------------
DIPOLE MOMENT
-------------
                                X             Y             Z
Electronic contribution:      0.04040      -0.00728       0.00801
Nuclear contribution   :     -0.35350       0.02032      -0.02609
                        -----------------------------------------
Total Dipole Moment    :     -0.31310       0.01304      -0.01808
                        -----------------------------------------
Magnitude (a.u.)       :      0.31389
Magnitude (Debye)      :      0.79785


Timings for individual modules:

Sum of individual times         ...        3.686 sec (=   0.061 min)
GTO integral calculation        ...        0.330 sec (=   0.006 min)   9.0 %
SCF iterations                  ...        3.356 sec (=   0.056 min)  91.0 %
                             ****ORCA TERMINATED NORMALLY****
TOTAL RUN TIME: 0 days 0 hours 0 minutes 4 seconds 58 msec
