
                                 *****************
                                 * O   R   C   A *
                                 *****************

           --- An Ab Initio, DFT and Semiempirical electronic structure package ---

                  #######################################################
                  #                        -***-                        #
                  #  Department of molecular theory and spectroscopy    #
                  #              Directorship: Frank Neese              #
                  # Max Planck Institute for Chemical Energy Conversion #
                  #                  D-45470 Muelheim/Ruhr              #
                  #                       Germany                       #
                  #                                                     #
                  #                  All rights reserved                #
                  #                        -***-                        #
                  #######################################################


                         Program Version 4.0.0.2 - RELEASE -


 With contributions from (in alphabetic order):
   Daniel Aravena         : Magnetic Properties
   Michael Atanasov       : Ab Initio Ligand Field Theory
   Ute Becker             : Parallelization
   Martin Brehm           : Molecular dynamics
   Dmytro Bykov           : SCF Hessian
   Vijay G. Chilkuri      : MRCI spin determinant printing
   Dipayan Datta          : RHF DLPNO-CCSD density
   Achintya Kumar Dutta   : EOM-CC, STEOM-CC
   Dmitry Ganyushin       : Spin-Orbit,Spin-Spin,Magnetic field MRCI
   Yang Guo               : DLPNO-NEVPT2, CIM, IAO-localization
   Andreas Hansen         : Spin unrestricted coupled pair/coupled cluster methods
   Lee Huntington         : MR-EOM, pCC
   Robert Izsak           : Overlap fitted RIJCOSX, COSX-SCS-MP3, EOM
   Christian Kollmar      : KDIIS, OOCD, Brueckner-CCSD(T), CCSD density
   Simone Kossmann        : Meta GGA functionals, TD-DFT gradient, OOMP2, MP2 Hessian
   Martin Krupicka        : AUTO-CI
   Dagmar Lenk            : GEPOL surface
   Dimitrios Liakos       : Extrapolation schemes; parallel MDCI
   Dimitrios Manganas     : ROCIS; embedding schemes
   Dimitrios Pantazis     : SARC Basis sets
   Taras Petrenko         : DFT Hessian,TD-DFT gradient, ASA, ECA, R-Raman, ABS, FL, XAS/XES, NRVS
   Peter Pinski           : DLPNO-MP2
   Christoph Reimann      : Effective Core Potentials
   Marius Retegan         : Local ZFS, SOC
   Christoph Riplinger    : Optimizer, TS searches, QM/MM, DLPNO-CCSD(T), (RO)-DLPNO pert. Triples
   Tobias Risthaus        : Range-separated hybrids, TD-DFT gradient, RPA, STAB
   Michael Roemelt        : Restricted open shell CIS
   Masaaki Saitow         : Open-shell DLPNO
   Barbara Sandhoefer     : DKH picture change effects
   Kantharuban Sivalingam : CASSCF convergence, NEVPT2, FIC-MRCI
   Georgi Stoychev        : AutoAux
   Boris Wezisla          : Elementary symmetry handling
   Frank Wennmohs         : Technical directorship


 We gratefully acknowledge several colleagues who have allowed us to
 interface, adapt or use parts of their codes:
   Stefan Grimme, W. Hujo, H. Kruse,             : VdW corrections, initial TS optimization,
                  C. Bannwarth                     DFT functionals, gCP, sTDA/sTD-DF
   Ed Valeev                                     : LibInt (2-el integral package), F12 methods
   Garnet Chan, S. Sharma, J. Yang, R. Olivares  : DMRG
   Ulf Ekstrom                                   : XCFun DFT Library
   Mihaly Kallay                                 : mrcc  (arbitrary order and MRCC methods)
   Jiri Pittner, Ondrej Demel                    : Mk-CCSD
   Frank Weinhold                                : gennbo (NPA and NBO analysis)
   Christopher J. Cramer and Donald G. Truhlar   : smd solvation model


 Your calculation uses the libint2 library for the computation of 2-el integrals
 For citations please refer to: http://libint.valeyev.net

 This ORCA versions uses:
   CBLAS   interface :  Fast vector & matrix operations
   LAPACKE interface :  Fast linear algebra routines
   SCALAPACK package :  Parallel linear algebra routines


Your calculation utilizes the atom-pairwise dispersion correction
with the zero-damping scheme (D30)
Cite in your paper:
S.Grimme, J.Antony, S.Ehrlich and H.Krieg, J.Chem.Phys., 132, (2010), 154104 
   

XCFun DFT library Copyright 2009-2010 Ulf Ekstrom and contributors.
See http://admol.org/xcfun for more information. This is free soft-
ware; see the source code for copying conditions. There is ABSOLUTELY
NO WARRANTY; not even for MERCHANTABILITY or FITNESS FOR A PARTICULAR
PURPOSE. For details see the documentation. Scientific users of this 
library should cite U. Ekstrom, L. Visscher, R. Bast, A. J. Thorvald-
sen and K. Ruud; J.Chem.Theor.Comp. 2010, DOI: 10.1021/ct100117s
XCFun Version 0.99 
Your calculation utilizes the basis: 6-31G(d)
   H-He, Li-Ne : W. J. Hehre, R. Ditchfield and J.A. Pople, J. Chem. Phys. 56, 2257 (1972).
                 Note: He and Ne are unpublished basis sets taken from the Gaussian program.
                 Note: Li and B from J. D. Dill and J. A. Pople, J. Chem. Phys. 62, 2921 (1975).
   Na - Ar     : M. M. Francl, W. J. Pietro, W. J. Hehre, J. S. Binkley, M. S. Gordon, 
                 D. J. DeFrees and J. A. Pople, J. Chem. Phys. 77, 3654 (1982).
   K - Zn      : V. A. Rassolov, J. A. Pople, M. A. Ratner, and T. L. Windus, J. Chem. Phys. 109, 1223 (1998).

================================================================================
                                        WARNINGS
                       Please study these warnings very carefully!
================================================================================

Warning: TCutStore was < 0. Adjusted to Thresh (uncritical)

INFO   : the flag for use of LIBINT has been found!

================================================================================
                                       INPUT FILE
================================================================================
NAME = initial5.inp
|  1> ! WB97X-D3 6-31G(d) VerySlowConv
|  2> ! KDIIS NOSOSCF
|  3> %base "Scan_5"
|  4> 
|  5> %scf
|  6> maxiter 999
|  7> end
|  8> 
|  9> * xyz 0 1
| 10> C         -1.608815177367    1.272010794745    0.000230876268
| 11> C         -0.428939649607    1.278169583791    0.000196027242
| 12> H         -2.214878913334    0.582885777403   -0.583459898187
| 13> H         -2.222182562109    1.955155220368    0.583274702975
| 14> H          0.184424987012    0.595567511892   -0.583487501254
| 15> H          0.177121315405    1.967841111800    0.583245792956
| 16> **                         ****END OF INPUT****
================================================================================

                       ****************************
                       * Single Point Calculation *
                       ****************************

---------------------------------
CARTESIAN COORDINATES (ANGSTROEM)
---------------------------------
  C     -1.608815    1.272011    0.000231
  C     -0.428940    1.278170    0.000196
  H     -2.214879    0.582886   -0.583460
  H     -2.222183    1.955155    0.583275
  H      0.184425    0.595568   -0.583488
  H      0.177121    1.967841    0.583246

----------------------------
CARTESIAN COORDINATES (A.U.)
----------------------------
  NO LB      ZA    FRAG     MASS         X           Y           Z
   0 C     6.0000    0    12.011   -3.040220    2.403752    0.000436
   1 C     6.0000    0    12.011   -0.810578    2.415390    0.000370
   2 H     1.0000    0     1.008   -4.185515    1.101494   -1.102579
   3 H     1.0000    0     1.008   -4.199316    3.694708    1.102229
   4 H     1.0000    0     1.008    0.348513    1.125459   -1.102632
   5 H     1.0000    0     1.008    0.334711    3.718681    1.102175

--------------------------------
INTERNAL COORDINATES (ANGSTROEM)
--------------------------------
 C      0   0   0     0.000000000000     0.00000000     0.00000000
 C      1   0   0     1.179891602184     0.00000000     0.00000000
 H      1   2   0     1.087612735198   124.09218913     0.00000000
 H      1   2   3     1.087587218933   124.10423546   180.04895358
 H      2   1   3     1.087588261914   124.10420473     0.00000000
 H      2   1   3     1.087613782166   124.09215821   179.94641486

---------------------------
INTERNAL COORDINATES (A.U.)
---------------------------
 C      0   0   0     0.000000000000     0.00000000     0.00000000
 C      1   0   0     2.229671995841     0.00000000     0.00000000
 H      1   2   0     2.055290209289   124.09218913     0.00000000
 H      1   2   3     2.055241990536   124.10423546   180.04895358
 H      2   1   3     2.055243961485   124.10420473     0.00000000
 H      2   1   3     2.055292187771   124.09215821   179.94641486

---------------------
BASIS SET INFORMATION
---------------------
There are 2 groups of distinct atoms

 Group   1 Type C   : 10s4p1d contracted to 3s2p1d pattern {631/31/1}
 Group   2 Type H   : 4s contracted to 2s pattern {31}

Atom   0C    basis set group =>   1
Atom   1C    basis set group =>   1
Atom   2H    basis set group =>   2
Atom   3H    basis set group =>   2
Atom   4H    basis set group =>   2
Atom   5H    basis set group =>   2
------------------------------------------------------------------------------
                           ORCA GTO INTEGRAL CALCULATION
------------------------------------------------------------------------------

                         BASIS SET STATISTICS AND STARTUP INFO

 # of primitive gaussian shells          ...   46
 # of primitive gaussian functions       ...   70
 # of contracted shells                  ...   20
 # of contracted basis functions         ...   36
 Highest angular momentum                ...    2
 Maximum contraction depth               ...    6
 Integral package used                   ... LIBINT
 Integral threshhold            Thresh   ...  1.000e-10
 Primitive cut-off              TCut     ...  1.000e-11


------------------------------ INTEGRAL EVALUATION ----------------------------


 * One electron integrals 
 Pre-screening matrix                    ... done
 Shell pair data                         ... done (   0.000 sec)

-------------------------------------------------------------------------------
                                 ORCA SCF
-------------------------------------------------------------------------------

------------
SCF SETTINGS
------------
Hamiltonian:
 Density Functional     Method          .... DFT(GTOs)
 Exchange Functional    Exchange        .... WB97X-D3
 Correlation Functional Correlation     .... WB97X-D3
 Gradients option       PostSCFGGA      .... off
 Hybrid DFT is turned on
   Fraction HF Exchange ScalHFX         ....  0.195728
   Scaling of DF-GGA-X  ScalDFX         ....  0.000000
   Scaling of DF-GGA-C  ScalDFC         ....  1.000000
   Scaling of DF-LDA-C  ScalLDAC        ....  1.000000
   Perturbative correction              ....  0.000000
 Long-range corrected/Screened/Range-Separated Hybrid DFT is turned on
   Amount of maximum screened exact exchange              ....  0.804272
   Range separation parameter mu (erf(mu*r12)/r12)        ....  0.250000


General Settings:
 Integral files         IntName         .... Scan_5
 Hartree-Fock type      HFTyp           .... RHF
 Total Charge           Charge          ....    0
 Multiplicity           Mult            ....    1
 Number of Electrons    NEL             ....   16
 Basis Dimension        Dim             ....   36
 Nuclear Repulsion      ENuc            ....     35.5437957945 Eh

Convergence Acceleration:
 DIIS                   CNVDIIS         .... on
   Start iteration      DIISMaxIt       ....     0
   Startup error        DIISStart       ....  0.200000
   # of expansion vecs  DIISMaxEq       ....     5
   Bias factor          DIISBfac        ....   1.050
   Max. coefficient     DIISMaxC        ....  10.000
 Newton-Raphson         CNVNR           .... off
 SOSCF                  CNVSOSCF        .... off
 Level Shifting         CNVShift        .... off
 Zerner damping         CNVZerner       .... off
 Static damping         CNVDamp         .... off
 Fernandez-Rico         CNVRico         .... off

SCF Procedure:
 Maximum # iterations   MaxIter         ....   999
 SCF integral mode      SCFMode         .... Direct
   Integral package                     .... LIBINT
 Reset frequeny         DirectResetFreq ....    20
 Integral Threshold     Thresh          ....  1.000e-10 Eh
 Primitive CutOff       TCut            ....  1.000e-11 Eh

Convergence Tolerance:
 Convergence Check Mode ConvCheckMode   .... All-Criteria
 Convergence forced     ConvForced      .... 0
 Energy Change          TolE            ....  1.000e-06 Eh
 Max Density Change     TolMaxP         ....  1.000e-05
 RMS Density Change     TolRMSP         ....  1.000e-06
 DIIS Error             TolErr          ....  1.000e-06


Diagonalization of the overlap matrix:
Smallest eigenvalue                        ... 4.632e-03
Time for diagonalization                   ...    0.001 sec
Threshold for overlap eigenvalues          ... 1.000e-08
Number of eigenvalues below threshold      ... 0
Time for construction of square roots      ...    0.019 sec
Total time needed                          ...    0.020 sec

-------------------
DFT GRID GENERATION
-------------------

General Integration Accuracy     IntAcc      ...  4.340
Radial Grid Type                 RadialGrid  ... Gauss-Chebyshev
Angular Grid (max. acc.)         AngularGrid ... Lebedev-110
Angular grid pruning method      GridPruning ... 3 (G Style)
Weight generation scheme         WeightScheme... Becke
Basis function cutoff            BFCut       ...    1.0000e-10
Integration weight cutoff        WCut        ...    1.0000e-14
Grids for H and He will be reduced by one unit

# of grid points (after initial pruning)     ...   6488 (   0.0 sec)
# of grid points (after weights+screening)   ...   6234 (   0.0 sec)
nearest neighbour list constructed           ...    0.0 sec
Grid point re-assignment to atoms done       ...    0.0 sec
Grid point division into batches done        ...    0.0 sec
Reduced shell lists constructed in    0.1 sec

Total number of grid points                  ...     6234
Total number of batches                      ...      100
Average number of points per batch           ...       62
Average number of grid points per atom       ...     1039
Average number of shells per batch           ...    18.07 (90.35%)
Average number of basis functions per batch  ...    32.86 (91.28%)
Average number of large shells per batch     ...    16.54 (91.56%)
Average number of large basis fcns per batch ...    30.80 (93.73%)
Maximum spatial batch extension              ...  20.05, 20.86, 31.36 au
Average spatial batch extension              ...   4.90,  5.40,  6.02 au

Time for grid setup =    0.078 sec

------------------------------
INITIAL GUESS: MODEL POTENTIAL
------------------------------
Loading Hartree-Fock densities                     ... done
Calculating cut-offs                               ... done
Setting up the integral package                    ... done
Initializing the effective Hamiltonian             ... done
Starting the Coulomb interaction                   ... done (   0.0 sec)
Reading the grid                                   ... done
Mapping shells                                     ... done
Starting the XC term evaluation                    ... done (   0.1 sec)
  promolecular density results
     # of electrons  =     16.006017356
     EX              =    -11.411131976
     EC              =     -0.494478949
     EX+EC           =    -11.905610925
Transforming the Hamiltonian                       ... done (   0.1 sec)
Diagonalizing the Hamiltonian                      ... done (   0.0 sec)
Back transforming the eigenvectors                 ... done (   0.0 sec)
Now organizing SCF variables                       ... done
                      ------------------
                      INITIAL GUESS DONE (   0.4 sec)
                      ------------------
--------------
SCF ITERATIONS
--------------
ITER       Energy         Delta-E        Max-DP      RMS-DP      [F,P]   Gradient Norm
               ***  Starting incremental Fock matrix formation  ***
                             ****Resetting KDIIS****
                             ****Turning on KDIIS(Cayley)****
  0    -78.4082768853   0.000000000000 0.02450023  0.00216660  0.1312431   0.112806437
  1    -78.4449985568  -0.036721671545 0.02066814  0.00195236  0.1097732   0.092810932
  2    -78.4712738473  -0.026275290425 0.03388264  0.00334246  0.0898668   0.075808055
  3    -78.5036431355  -0.032369288193 0.05185531  0.00526787  0.0556614   0.047027304
  4    -78.5237539439  -0.020110808485 0.00221437  0.00027184  0.0020708   0.001577660
  5    -78.5237781929  -0.000024248908 0.00078972  0.00009436  0.0009791   0.000594976
  6    -78.5237805414  -0.000002348580 0.00045999  0.00005370  0.0004727   0.000352650
  7    -78.5237817951  -0.000001253676 0.00008179  0.00000954  0.0000956   0.000073289
                          ***Energy convergence achieved***
                           ***RMSP convergence achieved***
                           ***MAXP convergence achieved***
                    *** KDIIS BlockDiag ( 0.000 sec) ***

               *****************************************************
               *                     SUCCESS                       *
               *           SCF CONVERGED AFTER   8 CYCLES          *
               *****************************************************

Setting up the final grid:

General Integration Accuracy     IntAcc      ...  4.670
Radial Grid Type                 RadialGrid  ... Gauss-Chebyshev
Angular Grid (max. acc.)         AngularGrid ... Lebedev-302
Angular grid pruning method      GridPruning ... 3 (G Style)
Weight generation scheme         WeightScheme... Becke
Basis function cutoff            BFCut       ...    1.0000e-10
Integration weight cutoff        WCut        ...    1.0000e-14
Grids for H and He will be reduced by one unit

# of grid points (after initial pruning)     ...  26000 (   0.0 sec)
# of grid points (after weights+screening)   ...  25130 (   0.0 sec)
nearest neighbour list constructed           ...    0.0 sec
Grid point re-assignment to atoms done       ...    0.0 sec
Grid point division into batches done        ...    0.3 sec
Reduced shell lists constructed in    0.6 sec

Total number of grid points                  ...    25130
Total number of batches                      ...      394
Average number of points per batch           ...       63
Average number of grid points per atom       ...     4188
Average number of shells per batch           ...    16.38 (81.89%)
Average number of basis functions per batch  ...    29.94 (83.16%)
Average number of large shells per batch     ...    14.77 (90.21%)
Average number of large basis fcns per batch ...    27.54 (92.01%)
Maximum spatial batch extension              ...  18.04, 19.43, 20.64 au
Average spatial batch extension              ...   3.05,  3.26,  3.21 au

Final grid set up in    0.7 sec
Final integration                            ... done (   0.3 sec)
Change in XC energy                          ...     0.001350985
Integrated number of electrons               ...    16.000000993
Previous integrated no of electrons          ...    16.004104264

----------------
TOTAL SCF ENERGY
----------------

Total Energy       :          -78.52243087 Eh           -2136.70397 eV

Components:
Nuclear Repulsion  :           35.54379579 Eh             967.19585 eV
Electronic Energy  :         -114.06622666 Eh           -3103.89983 eV
One Electron Energy:         -174.54377204 Eh           -4749.57750 eV
Two Electron Energy:           60.47754538 Eh            1645.67767 eV

Virial components:
Potential Energy   :         -157.14367268 Eh           -4276.09673 eV
Kinetic Energy     :           78.62124181 Eh            2139.39275 eV
Virial Ratio       :            1.99874320


DFT components:
N(Alpha)           :        8.000000496613 electrons
N(Beta)            :        8.000000496613 electrons
N(Total)           :       16.000000993227 electrons
E(XC)              :       -8.368828804001 Eh       

---------------
SCF CONVERGENCE
---------------

  Last Energy change         ...   -5.8898e-08  Tolerance :   1.0000e-06
  Last MAX-Density change    ...    5.9420e-06  Tolerance :   1.0000e-05
  Last RMS-Density change    ...    4.6860e-07  Tolerance :   1.0000e-06
  Last DIIS Error            ...    1.6078e-06  Tolerance :   1.0000e-06

             **** THE GBW FILE WAS UPDATED (Scan_5.gbw) ****
             **** DENSITY FILE WAS UPDATED (Scan_5.scfp.tmp) ****
             **** ENERGY FILE WAS UPDATED (Scan_5.en.tmp) ****
----------------
ORBITAL ENERGIES
----------------

  NO   OCC          E(Eh)            E(eV) 
   0   2.0000     -10.257240      -279.1137 
   1   2.0000     -10.254391      -279.0362 
   2   2.0000      -0.904027       -24.5998 
   3   2.0000      -0.673770       -18.3342 
   4   2.0000      -0.577172       -15.7057 
   5   2.0000      -0.535614       -14.5748 
   6   2.0000      -0.417679       -11.3656 
   7   2.0000      -0.390033       -10.6133 
   8   0.0000       0.143545         3.9061 
   9   0.0000       0.219465         5.9719 
  10   0.0000       0.222653         6.0587 
  11   0.0000       0.261740         7.1223 
  12   0.0000       0.361053         9.8248 
  13   0.0000       0.463620        12.6157 
  14   0.0000       0.537280        14.6201 
  15   0.0000       0.622467        16.9382 
  16   0.0000       0.689590        18.7647 
  17   0.0000       0.768639        20.9157 
  18   0.0000       0.769225        20.9317 
  19   0.0000       0.914062        24.8729 
  20   0.0000       0.915159        24.9027 
  21   0.0000       1.010640        27.5009 
  22   0.0000       1.067454        29.0469 
  23   0.0000       1.076287        29.2873 
  24   0.0000       1.320849        35.9421 
  25   0.0000       1.352399        36.8006 
  26   0.0000       1.589246        43.2456 
  27   0.0000       1.633761        44.4569 
  28   0.0000       1.924933        52.3801 
  29   0.0000       1.998302        54.3766 
  30   0.0000       2.169890        59.0457 
  31   0.0000       2.324790        63.2607 
  32   0.0000       2.457381        66.8687 
  33   0.0000       2.640227        71.8442 
  34   0.0000       2.987067        81.2822 
  35   0.0000       3.083898        83.9171 

                    ********************************
                    * MULLIKEN POPULATION ANALYSIS *
                    ********************************

-----------------------
MULLIKEN ATOMIC CHARGES
-----------------------
   0 C :   -0.318564
   1 C :   -0.318563
   2 H :    0.159255
   3 H :    0.159309
   4 H :    0.159310
   5 H :    0.159253
Sum of atomic charges:   -0.0000000

--------------------------------
MULLIKEN REDUCED ORBITAL CHARGES
--------------------------------
  0 C s       :     3.205926  s :     3.205926
      pz      :     1.018433  p :     3.074339
      px      :     1.027855
      py      :     1.028051
      dz2     :     0.001429  d :     0.038299
      dxz     :     0.012946
      dyz     :     0.004402
      dx2y2   :     0.004697
      dxy     :     0.014825
  1 C s       :     3.205926  s :     3.205926
      pz      :     1.018433  p :     3.074338
      px      :     1.027855
      py      :     1.028050
      dz2     :     0.001429  d :     0.038299
      dxz     :     0.012946
      dyz     :     0.004402
      dx2y2   :     0.004697
      dxy     :     0.014825
  2 H s       :     0.840745  s :     0.840745
  3 H s       :     0.840691  s :     0.840691
  4 H s       :     0.840690  s :     0.840690
  5 H s       :     0.840747  s :     0.840747


                     *******************************
                     * LOEWDIN POPULATION ANALYSIS *
                     *******************************

----------------------
LOEWDIN ATOMIC CHARGES
----------------------
   0 C :   -0.263276
   1 C :   -0.263276
   2 H :    0.131634
   3 H :    0.131642
   4 H :    0.131641
   5 H :    0.131635

-------------------------------
LOEWDIN REDUCED ORBITAL CHARGES
-------------------------------
  0 C s       :     2.939463  s :     2.939463
      pz      :     1.028805  p :     3.232937
      px      :     1.158980
      py      :     1.045152
      dz2     :     0.005004  d :     0.090876
      dxz     :     0.028955
      dyz     :     0.006204
      dx2y2   :     0.016459
      dxy     :     0.034254
  1 C s       :     2.939464  s :     2.939464
      pz      :     1.028804  p :     3.232936
      px      :     1.158980
      py      :     1.045151
      dz2     :     0.005004  d :     0.090876
      dxz     :     0.028955
      dyz     :     0.006204
      dx2y2   :     0.016459
      dxy     :     0.034254
  2 H s       :     0.868366  s :     0.868366
  3 H s       :     0.868358  s :     0.868358
  4 H s       :     0.868359  s :     0.868359
  5 H s       :     0.868365  s :     0.868365


                      *****************************
                      * MAYER POPULATION ANALYSIS *
                      *****************************

  NA   - Mulliken gross atomic population
  ZA   - Total nuclear charge
  QA   - Mulliken gross atomic charge
  VA   - Mayer's total valence
  BVA  - Mayer's bonded valence
  FA   - Mayer's free valence

  ATOM       NA         ZA         QA         VA         BVA        FA
  0 C      6.3186     6.0000    -0.3186     3.9223     3.9223    -0.0000
  1 C      6.3186     6.0000    -0.3186     3.9223     3.9223     0.0000
  2 H      0.8407     1.0000     0.1593     0.9375     0.9375    -0.0000
  3 H      0.8407     1.0000     0.1593     0.9375     0.9375     0.0000
  4 H      0.8407     1.0000     0.1593     0.9375     0.9375     0.0000
  5 H      0.8407     1.0000     0.1593     0.9375     0.9375     0.0000

  Mayer bond orders larger than 0.1
B(  0-C ,  1-C ) :   2.0582 B(  0-C ,  2-H ) :   0.9430 B(  0-C ,  3-H ) :   0.9430 
B(  1-C ,  4-H ) :   0.9430 B(  1-C ,  5-H ) :   0.9430 

-------
TIMINGS
-------

Total SCF time: 0 days 0 hours 0 min 10 sec 

Total time                  ....      10.747 sec
Sum of individual times     ....      10.091 sec  ( 93.9%)

Fock matrix formation       ....       8.754 sec  ( 81.5%)
  XC integration            ....       2.308 sec  ( 26.4% of F)
    Basis function eval.    ....       0.594 sec  ( 25.7% of XC)
    Density eval.           ....       0.105 sec  (  4.5% of XC)
    XC-Functional eval.     ....       0.563 sec  ( 24.4% of XC)
    XC-Potential eval.      ....       0.075 sec  (  3.2% of XC)
Diagonalization             ....       0.059 sec  (  0.6%)
Density matrix formation    ....       0.000 sec  (  0.0%)
Population analysis         ....       0.042 sec  (  0.4%)
Initial guess               ....       0.468 sec  (  4.4%)
Orbital Transformation      ....       0.000 sec  (  0.0%)
Orbital Orthonormalization  ....       0.000 sec  (  0.0%)
DIIS solution               ....       0.000 sec  (  0.0%)
Grid generation             ....       0.769 sec  (  7.2%)


-------------------------------------------------------------------------------
                          DFT DISPERSION CORRECTION                            
                                                                               
                              DFTD3 V3.1  Rev 1                                
                              USING zero damping                               
-------------------------------------------------------------------------------
The omegaB97X-D3 functional is recognized. Fit by Chai et al.
Active option DFTDOPT                   ...         3   

molecular C6(AA) [au] = 294.310713 


            DFT-D V3
 parameters
 s6 scaling factor         :     1.0000 
 rs6 scaling factor        :     1.2810 
 s8 scaling factor         :     1.0000 
 rs8 scaling factor        :     1.0940 
 Damping factor alpha6     :    14.0000 
 Damping factor alpha8     :    16.0000 
 ad hoc parameters k1-k3   :    16.0000     1.3333    -4.0000 

 Edisp/kcal,au: -0.146697714545  -0.000233777664 
 E6   /kcal   :  -0.047980231 
 E8   /kcal   :  -0.098717483 
 % E8         :  67.293129747 

-------------------------   ----------------
Dispersion correction           -0.000233778
-------------------------   ----------------


-------------------------   --------------------
FINAL SINGLE POINT ENERGY       -78.522664647099
-------------------------   --------------------


                            ***************************************
                            *     ORCA property calculations      *
                            ***************************************

                                    ---------------------
                                    Active property flags
                                    ---------------------
   (+) Dipole Moment


------------------------------------------------------------------------------
                       ORCA ELECTRIC PROPERTIES CALCULATION
------------------------------------------------------------------------------

Dipole Moment Calculation                       ... on
Quadrupole Moment Calculation                   ... off
Polarizability Calculation                      ... off
GBWName                                         ... Scan_5.gbw
Electron density file                           ... Scan_5.scfp.tmp

-------------
DIPOLE MOMENT
-------------
                                X             Y             Z
Electronic contribution:      0.00000      -0.00059       0.00070
Nuclear contribution   :     -0.00000       0.00087      -0.00103
                        -----------------------------------------
Total Dipole Moment    :     -0.00000       0.00029      -0.00033
                        -----------------------------------------
Magnitude (a.u.)       :      0.00043
Magnitude (Debye)      :      0.00110


Timings for individual modules:

Sum of individual times         ...       12.269 sec (=   0.204 min)
GTO integral calculation        ...        1.314 sec (=   0.022 min)  10.7 %
SCF iterations                  ...       10.956 sec (=   0.183 min)  89.3 %
                             ****ORCA TERMINATED NORMALLY****
TOTAL RUN TIME: 0 days 0 hours 0 minutes 13 seconds 453 msec
