
                                 *****************
                                 * O   R   C   A *
                                 *****************

           --- An Ab Initio, DFT and Semiempirical electronic structure package ---

                  #######################################################
                  #                        -***-                        #
                  #  Department of molecular theory and spectroscopy    #
                  #              Directorship: Frank Neese              #
                  # Max Planck Institute for Chemical Energy Conversion #
                  #                  D-45470 Muelheim/Ruhr              #
                  #                       Germany                       #
                  #                                                     #
                  #                  All rights reserved                #
                  #                        -***-                        #
                  #######################################################


                         Program Version 4.0.0.2 - RELEASE -


 With contributions from (in alphabetic order):
   Daniel Aravena         : Magnetic Properties
   Michael Atanasov       : Ab Initio Ligand Field Theory
   Ute Becker             : Parallelization
   Martin Brehm           : Molecular dynamics
   Dmytro Bykov           : SCF Hessian
   Vijay G. Chilkuri      : MRCI spin determinant printing
   Dipayan Datta          : RHF DLPNO-CCSD density
   Achintya Kumar Dutta   : EOM-CC, STEOM-CC
   Dmitry Ganyushin       : Spin-Orbit,Spin-Spin,Magnetic field MRCI
   Yang Guo               : DLPNO-NEVPT2, CIM, IAO-localization
   Andreas Hansen         : Spin unrestricted coupled pair/coupled cluster methods
   Lee Huntington         : MR-EOM, pCC
   Robert Izsak           : Overlap fitted RIJCOSX, COSX-SCS-MP3, EOM
   Christian Kollmar      : KDIIS, OOCD, Brueckner-CCSD(T), CCSD density
   Simone Kossmann        : Meta GGA functionals, TD-DFT gradient, OOMP2, MP2 Hessian
   Martin Krupicka        : AUTO-CI
   Dagmar Lenk            : GEPOL surface
   Dimitrios Liakos       : Extrapolation schemes; parallel MDCI
   Dimitrios Manganas     : ROCIS; embedding schemes
   Dimitrios Pantazis     : SARC Basis sets
   Taras Petrenko         : DFT Hessian,TD-DFT gradient, ASA, ECA, R-Raman, ABS, FL, XAS/XES, NRVS
   Peter Pinski           : DLPNO-MP2
   Christoph Reimann      : Effective Core Potentials
   Marius Retegan         : Local ZFS, SOC
   Christoph Riplinger    : Optimizer, TS searches, QM/MM, DLPNO-CCSD(T), (RO)-DLPNO pert. Triples
   Tobias Risthaus        : Range-separated hybrids, TD-DFT gradient, RPA, STAB
   Michael Roemelt        : Restricted open shell CIS
   Masaaki Saitow         : Open-shell DLPNO
   Barbara Sandhoefer     : DKH picture change effects
   Kantharuban Sivalingam : CASSCF convergence, NEVPT2, FIC-MRCI
   Georgi Stoychev        : AutoAux
   Boris Wezisla          : Elementary symmetry handling
   Frank Wennmohs         : Technical directorship


 We gratefully acknowledge several colleagues who have allowed us to
 interface, adapt or use parts of their codes:
   Stefan Grimme, W. Hujo, H. Kruse,             : VdW corrections, initial TS optimization,
                  C. Bannwarth                     DFT functionals, gCP, sTDA/sTD-DF
   Ed Valeev                                     : LibInt (2-el integral package), F12 methods
   Garnet Chan, S. Sharma, J. Yang, R. Olivares  : DMRG
   Ulf Ekstrom                                   : XCFun DFT Library
   Mihaly Kallay                                 : mrcc  (arbitrary order and MRCC methods)
   Jiri Pittner, Ondrej Demel                    : Mk-CCSD
   Frank Weinhold                                : gennbo (NPA and NBO analysis)
   Christopher J. Cramer and Donald G. Truhlar   : smd solvation model


 Your calculation uses the libint2 library for the computation of 2-el integrals
 For citations please refer to: http://libint.valeyev.net

 This ORCA versions uses:
   CBLAS   interface :  Fast vector & matrix operations
   LAPACKE interface :  Fast linear algebra routines
   SCALAPACK package :  Parallel linear algebra routines


Your calculation utilizes the atom-pairwise dispersion correction
with the zero-damping scheme (D30)
Cite in your paper:
S.Grimme, J.Antony, S.Ehrlich and H.Krieg, J.Chem.Phys., 132, (2010), 154104 
   

XCFun DFT library Copyright 2009-2010 Ulf Ekstrom and contributors.
See http://admol.org/xcfun for more information. This is free soft-
ware; see the source code for copying conditions. There is ABSOLUTELY
NO WARRANTY; not even for MERCHANTABILITY or FITNESS FOR A PARTICULAR
PURPOSE. For details see the documentation. Scientific users of this 
library should cite U. Ekstrom, L. Visscher, R. Bast, A. J. Thorvald-
sen and K. Ruud; J.Chem.Theor.Comp. 2010, DOI: 10.1021/ct100117s
XCFun Version 0.99 
Your calculation utilizes the basis: 6-31G(d)
   H-He, Li-Ne : W. J. Hehre, R. Ditchfield and J.A. Pople, J. Chem. Phys. 56, 2257 (1972).
                 Note: He and Ne are unpublished basis sets taken from the Gaussian program.
                 Note: Li and B from J. D. Dill and J. A. Pople, J. Chem. Phys. 62, 2921 (1975).
   Na - Ar     : M. M. Francl, W. J. Pietro, W. J. Hehre, J. S. Binkley, M. S. Gordon, 
                 D. J. DeFrees and J. A. Pople, J. Chem. Phys. 77, 3654 (1982).
   K - Zn      : V. A. Rassolov, J. A. Pople, M. A. Ratner, and T. L. Windus, J. Chem. Phys. 109, 1223 (1998).

================================================================================
                                        WARNINGS
                       Please study these warnings very carefully!
================================================================================

Warning: TCutStore was < 0. Adjusted to Thresh (uncritical)

INFO   : the flag for use of LIBINT has been found!

================================================================================
                                       INPUT FILE
================================================================================
NAME = initial6.inp
|  1> ! WB97X-D3 6-31G(d) VerySlowConv
|  2> ! KDIIS NOSOSCF
|  3> %base "Scan_6"
|  4> 
|  5> %scf
|  6> maxiter 999
|  7> end
|  8> 
|  9> * xyz 0 1
| 10> C         -1.623078217011    1.272444908165   -0.000424491606
| 11> C         -0.414682314008    1.278829962753   -0.000435941558
| 12> H         -2.220816091585    0.580480072316   -0.584927521702
| 13> H         -2.228097457538    1.956944523334    0.585370402412
| 14> H          0.190342721420    0.593233345610   -0.584940666088
| 15> H          0.183061358722    1.969697187822    0.585358218543
| 16> **                         ****END OF INPUT****
================================================================================

                       ****************************
                       * Single Point Calculation *
                       ****************************

---------------------------------
CARTESIAN COORDINATES (ANGSTROEM)
---------------------------------
  C     -1.623078    1.272445   -0.000424
  C     -0.414682    1.278830   -0.000436
  H     -2.220816    0.580480   -0.584928
  H     -2.228097    1.956945    0.585370
  H      0.190343    0.593233   -0.584941
  H      0.183061    1.969697    0.585358

----------------------------
CARTESIAN COORDINATES (A.U.)
----------------------------
  NO LB      ZA    FRAG     MASS         X           Y           Z
   0 C     6.0000    0    12.011   -3.067173    2.404572   -0.000802
   1 C     6.0000    0    12.011   -0.783636    2.416638   -0.000824
   2 H     1.0000    0     1.008   -4.196734    1.096948   -1.105353
   3 H     1.0000    0     1.008   -4.210494    3.698089    1.106190
   4 H     1.0000    0     1.008    0.359696    1.121049   -1.105378
   5 H     1.0000    0     1.008    0.345936    3.722188    1.106167

--------------------------------
INTERNAL COORDINATES (ANGSTROEM)
--------------------------------
 C      0   0   0     0.000000000000     0.00000000     0.00000000
 C      1   0   0     1.208412771965     0.00000000     0.00000000
 H      1   2   0     1.085241767047   123.65177629     0.00000000
 H      1   2   3     1.085238988625   123.65310064   179.89252749
 H      2   1   3     1.085239046446   123.65309773     0.00000000
 H      2   1   3     1.085241825112   123.65177337   180.10748066

---------------------------
INTERNAL COORDINATES (A.U.)
---------------------------
 C      0   0   0     0.000000000000     0.00000000     0.00000000
 C      1   0   0     2.283569195746     0.00000000     0.00000000
 H      1   2   0     2.050809728811   123.65177629     0.00000000
 H      1   2   3     2.050804478355   123.65310064   179.89252749
 H      2   1   3     2.050804587620   123.65309773     0.00000000
 H      2   1   3     2.050809838538   123.65177337   180.10748066

---------------------
BASIS SET INFORMATION
---------------------
There are 2 groups of distinct atoms

 Group   1 Type C   : 10s4p1d contracted to 3s2p1d pattern {631/31/1}
 Group   2 Type H   : 4s contracted to 2s pattern {31}

Atom   0C    basis set group =>   1
Atom   1C    basis set group =>   1
Atom   2H    basis set group =>   2
Atom   3H    basis set group =>   2
Atom   4H    basis set group =>   2
Atom   5H    basis set group =>   2
------------------------------------------------------------------------------
                           ORCA GTO INTEGRAL CALCULATION
------------------------------------------------------------------------------

                         BASIS SET STATISTICS AND STARTUP INFO

 # of primitive gaussian shells          ...   46
 # of primitive gaussian functions       ...   70
 # of contracted shells                  ...   20
 # of contracted basis functions         ...   36
 Highest angular momentum                ...    2
 Maximum contraction depth               ...    6
 Integral package used                   ... LIBINT
 Integral threshhold            Thresh   ...  1.000e-10
 Primitive cut-off              TCut     ...  1.000e-11


------------------------------ INTEGRAL EVALUATION ----------------------------


 * One electron integrals 
 Pre-screening matrix                    ... done
 Shell pair data                         ... done (   0.000 sec)

-------------------------------------------------------------------------------
                                 ORCA SCF
-------------------------------------------------------------------------------

------------
SCF SETTINGS
------------
Hamiltonian:
 Density Functional     Method          .... DFT(GTOs)
 Exchange Functional    Exchange        .... WB97X-D3
 Correlation Functional Correlation     .... WB97X-D3
 Gradients option       PostSCFGGA      .... off
 Hybrid DFT is turned on
   Fraction HF Exchange ScalHFX         ....  0.195728
   Scaling of DF-GGA-X  ScalDFX         ....  0.000000
   Scaling of DF-GGA-C  ScalDFC         ....  1.000000
   Scaling of DF-LDA-C  ScalLDAC        ....  1.000000
   Perturbative correction              ....  0.000000
 Long-range corrected/Screened/Range-Separated Hybrid DFT is turned on
   Amount of maximum screened exact exchange              ....  0.804272
   Range separation parameter mu (erf(mu*r12)/r12)        ....  0.250000


General Settings:
 Integral files         IntName         .... Scan_6
 Hartree-Fock type      HFTyp           .... RHF
 Total Charge           Charge          ....    0
 Multiplicity           Mult            ....    1
 Number of Electrons    NEL             ....   16
 Basis Dimension        Dim             ....   36
 Nuclear Repulsion      ENuc            ....     35.1222311975 Eh

Convergence Acceleration:
 DIIS                   CNVDIIS         .... on
   Start iteration      DIISMaxIt       ....     0
   Startup error        DIISStart       ....  0.200000
   # of expansion vecs  DIISMaxEq       ....     5
   Bias factor          DIISBfac        ....   1.050
   Max. coefficient     DIISMaxC        ....  10.000
 Newton-Raphson         CNVNR           .... off
 SOSCF                  CNVSOSCF        .... off
 Level Shifting         CNVShift        .... off
 Zerner damping         CNVZerner       .... off
 Static damping         CNVDamp         .... off
 Fernandez-Rico         CNVRico         .... off

SCF Procedure:
 Maximum # iterations   MaxIter         ....   999
 SCF integral mode      SCFMode         .... Direct
   Integral package                     .... LIBINT
 Reset frequeny         DirectResetFreq ....    20
 Integral Threshold     Thresh          ....  1.000e-10 Eh
 Primitive CutOff       TCut            ....  1.000e-11 Eh

Convergence Tolerance:
 Convergence Check Mode ConvCheckMode   .... All-Criteria
 Convergence forced     ConvForced      .... 0
 Energy Change          TolE            ....  1.000e-06 Eh
 Max Density Change     TolMaxP         ....  1.000e-05
 RMS Density Change     TolRMSP         ....  1.000e-06
 DIIS Error             TolErr          ....  1.000e-06


Diagonalization of the overlap matrix:
Smallest eigenvalue                        ... 5.201e-03
Time for diagonalization                   ...    0.001 sec
Threshold for overlap eigenvalues          ... 1.000e-08
Number of eigenvalues below threshold      ... 0
Time for construction of square roots      ...    0.004 sec
Total time needed                          ...    0.005 sec

-------------------
DFT GRID GENERATION
-------------------

General Integration Accuracy     IntAcc      ...  4.340
Radial Grid Type                 RadialGrid  ... Gauss-Chebyshev
Angular Grid (max. acc.)         AngularGrid ... Lebedev-110
Angular grid pruning method      GridPruning ... 3 (G Style)
Weight generation scheme         WeightScheme... Becke
Basis function cutoff            BFCut       ...    1.0000e-10
Integration weight cutoff        WCut        ...    1.0000e-14
Grids for H and He will be reduced by one unit

# of grid points (after initial pruning)     ...   6488 (   0.0 sec)
# of grid points (after weights+screening)   ...   6236 (   0.0 sec)
nearest neighbour list constructed           ...    0.0 sec
Grid point re-assignment to atoms done       ...    0.0 sec
Grid point division into batches done        ...    0.0 sec
Reduced shell lists constructed in    0.0 sec

Total number of grid points                  ...     6236
Total number of batches                      ...      100
Average number of points per batch           ...       62
Average number of grid points per atom       ...     1039
Average number of shells per batch           ...    18.07 (90.35%)
Average number of basis functions per batch  ...    32.86 (91.28%)
Average number of large shells per batch     ...    16.54 (91.56%)
Average number of large basis fcns per batch ...    30.78 (93.67%)
Maximum spatial batch extension              ...  20.05, 20.87, 31.36 au
Average spatial batch extension              ...   4.91,  5.36,  6.04 au

Time for grid setup =    0.047 sec

------------------------------
INITIAL GUESS: MODEL POTENTIAL
------------------------------
Loading Hartree-Fock densities                     ... done
Calculating cut-offs                               ... done
Setting up the integral package                    ... done
Initializing the effective Hamiltonian             ... done
Starting the Coulomb interaction                   ... done (   0.0 sec)
Reading the grid                                   ... done
Mapping shells                                     ... done
Starting the XC term evaluation                    ... done (   0.0 sec)
  promolecular density results
     # of electrons  =     16.006109865
     EX              =    -11.400488176
     EC              =     -0.493472397
     EX+EC           =    -11.893960573
Transforming the Hamiltonian                       ... done (   0.0 sec)
Diagonalizing the Hamiltonian                      ... done (   0.0 sec)
Back transforming the eigenvectors                 ... done (   0.0 sec)
Now organizing SCF variables                       ... done
                      ------------------
                      INITIAL GUESS DONE (   0.2 sec)
                      ------------------
--------------
SCF ITERATIONS
--------------
ITER       Energy         Delta-E        Max-DP      RMS-DP      [F,P]   Gradient Norm
               ***  Starting incremental Fock matrix formation  ***
                             ****Resetting KDIIS****
                             ****Turning on KDIIS(Cayley)****
  0    -78.4317390977   0.000000000000 0.02320680  0.00205689  0.1257157   0.107199431
  1    -78.4648626965  -0.033123598781 0.01996709  0.00189897  0.1053396   0.088391136
  2    -78.4890269669  -0.024164270440 0.03270151  0.00324893  0.0861242   0.072129270
  3    -78.5187167179  -0.029689751035 0.04977124  0.00508494  0.0531765   0.044632446
  4    -78.5370049083  -0.018288190353 0.00204184  0.00025775  0.0018262   0.001454526
  5    -78.5370250812  -0.000020172903 0.00067112  0.00008429  0.0009334   0.000582121
  6    -78.5370275505  -0.000002469326 0.00039059  0.00004622  0.0004107   0.000307693
                          ***Energy convergence achieved***
  7    -78.5370285074  -0.000000956893 0.00006695  0.00000819  0.0000798   0.000061166
                           ***RMSP convergence achieved***
                           ***MAXP convergence achieved***
                    *** KDIIS BlockDiag ( 0.000 sec) ***

               *****************************************************
               *                     SUCCESS                       *
               *           SCF CONVERGED AFTER   8 CYCLES          *
               *****************************************************

Setting up the final grid:

General Integration Accuracy     IntAcc      ...  4.670
Radial Grid Type                 RadialGrid  ... Gauss-Chebyshev
Angular Grid (max. acc.)         AngularGrid ... Lebedev-302
Angular grid pruning method      GridPruning ... 3 (G Style)
Weight generation scheme         WeightScheme... Becke
Basis function cutoff            BFCut       ...    1.0000e-10
Integration weight cutoff        WCut        ...    1.0000e-14
Grids for H and He will be reduced by one unit

# of grid points (after initial pruning)     ...  26000 (   0.0 sec)
# of grid points (after weights+screening)   ...  25133 (   0.0 sec)
nearest neighbour list constructed           ...    0.0 sec
Grid point re-assignment to atoms done       ...    0.0 sec
Grid point division into batches done        ...    0.1 sec
Reduced shell lists constructed in    0.2 sec

Total number of grid points                  ...    25133
Total number of batches                      ...      394
Average number of points per batch           ...       63
Average number of grid points per atom       ...     4189
Average number of shells per batch           ...    16.37 (81.84%)
Average number of basis functions per batch  ...    29.95 (83.20%)
Average number of large shells per batch     ...    14.73 (90.01%)
Average number of large basis fcns per batch ...    27.51 (91.84%)
Maximum spatial batch extension              ...  18.04, 20.64, 18.89 au
Average spatial batch extension              ...   3.02,  3.25,  3.22 au

Final grid set up in    0.2 sec
Final integration                            ... done (   0.2 sec)
Change in XC energy                          ...     0.001345511
Integrated number of electrons               ...    16.000001132
Previous integrated no of electrons          ...    16.004274648

----------------
TOTAL SCF ENERGY
----------------

Total Energy       :          -78.53568304 Eh           -2137.06458 eV

Components:
Nuclear Repulsion  :           35.12223120 Eh             955.72450 eV
Electronic Energy  :         -113.65791423 Eh           -3092.78908 eV
One Electron Energy:         -173.74239616 Eh           -4727.77095 eV
Two Electron Energy:           60.08448192 Eh            1634.98187 eV

Virial components:
Potential Energy   :         -157.03242819 Eh           -4273.06961 eV
Kinetic Energy     :           78.49674515 Eh            2136.00503 eV
Virial Ratio       :            2.00049604


DFT components:
N(Alpha)           :        8.000000566180 electrons
N(Beta)            :        8.000000566180 electrons
N(Total)           :       16.000001132360 electrons
E(XC)              :       -8.352161358226 Eh       

---------------
SCF CONVERGENCE
---------------

  Last Energy change         ...   -4.0930e-08  Tolerance :   1.0000e-06
  Last MAX-Density change    ...    5.7411e-06  Tolerance :   1.0000e-05
  Last RMS-Density change    ...    4.4979e-07  Tolerance :   1.0000e-06
  Last DIIS Error            ...    1.3856e-06  Tolerance :   1.0000e-06

             **** THE GBW FILE WAS UPDATED (Scan_6.gbw) ****
             **** DENSITY FILE WAS UPDATED (Scan_6.scfp.tmp) ****
             **** ENERGY FILE WAS UPDATED (Scan_6.en.tmp) ****
----------------
ORBITAL ENERGIES
----------------

  NO   OCC          E(Eh)            E(eV) 
   0   2.0000     -10.260794      -279.2104 
   1   2.0000     -10.258559      -279.1496 
   2   2.0000      -0.897820       -24.4309 
   3   2.0000      -0.676490       -18.4082 
   4   2.0000      -0.575008       -15.6468 
   5   2.0000      -0.531733       -14.4692 
   6   2.0000      -0.423657       -11.5283 
   7   2.0000      -0.383618       -10.4388 
   8   0.0000       0.135967         3.6998 
   9   0.0000       0.222084         6.0432 
  10   0.0000       0.223358         6.0779 
  11   0.0000       0.261251         7.1090 
  12   0.0000       0.358013         9.7420 
  13   0.0000       0.457078        12.4377 
  14   0.0000       0.544762        14.8237 
  15   0.0000       0.628671        17.1070 
  16   0.0000       0.684829        18.6352 
  17   0.0000       0.763802        20.7841 
  18   0.0000       0.766211        20.8497 
  19   0.0000       0.895820        24.3765 
  20   0.0000       0.924815        25.1655 
  21   0.0000       1.006659        27.3926 
  22   0.0000       1.066938        29.0328 
  23   0.0000       1.072438        29.1825 
  24   0.0000       1.293627        35.2014 
  25   0.0000       1.347354        36.6634 
  26   0.0000       1.598040        43.4849 
  27   0.0000       1.615513        43.9604 
  28   0.0000       1.939490        52.7762 
  29   0.0000       1.983416        53.9715 
  30   0.0000       2.154485        58.6265 
  31   0.0000       2.305108        62.7252 
  32   0.0000       2.445094        66.5344 
  33   0.0000       2.609776        71.0156 
  34   0.0000       2.954611        80.3991 
  35   0.0000       3.010179        81.9111 

                    ********************************
                    * MULLIKEN POPULATION ANALYSIS *
                    ********************************

-----------------------
MULLIKEN ATOMIC CHARGES
-----------------------
   0 C :   -0.322356
   1 C :   -0.322356
   2 H :    0.161158
   3 H :    0.161198
   4 H :    0.161195
   5 H :    0.161161
Sum of atomic charges:   -0.0000000

--------------------------------
MULLIKEN REDUCED ORBITAL CHARGES
--------------------------------
  0 C s       :     3.215233  s :     3.215233
      pz      :     1.019257  p :     3.070468
      px      :     1.022278
      py      :     1.028933
      dz2     :     0.001377  d :     0.036655
      dxz     :     0.012197
      dyz     :     0.004487
      dx2y2   :     0.004573
      dxy     :     0.014021
  1 C s       :     3.215233  s :     3.215233
      pz      :     1.019256  p :     3.070468
      px      :     1.022278
      py      :     1.028933
      dz2     :     0.001377  d :     0.036655
      dxz     :     0.012197
      dyz     :     0.004487
      dx2y2   :     0.004572
      dxy     :     0.014021
  2 H s       :     0.838842  s :     0.838842
  3 H s       :     0.838802  s :     0.838802
  4 H s       :     0.838805  s :     0.838805
  5 H s       :     0.838839  s :     0.838839


                     *******************************
                     * LOEWDIN POPULATION ANALYSIS *
                     *******************************

----------------------
LOEWDIN ATOMIC CHARGES
----------------------
   0 C :   -0.265039
   1 C :   -0.265039
   2 H :    0.132523
   3 H :    0.132516
   4 H :    0.132519
   5 H :    0.132520

-------------------------------
LOEWDIN REDUCED ORBITAL CHARGES
-------------------------------
  0 C s       :     2.948071  s :     2.948071
      pz      :     1.031541  p :     3.231753
      px      :     1.151782
      py      :     1.048430
      dz2     :     0.004695  d :     0.085215
      dxz     :     0.026793
      dyz     :     0.006326
      dx2y2   :     0.015653
      dxy     :     0.031748
  1 C s       :     2.948071  s :     2.948071
      pz      :     1.031541  p :     3.231752
      px      :     1.151782
      py      :     1.048430
      dz2     :     0.004695  d :     0.085215
      dxz     :     0.026793
      dyz     :     0.006326
      dx2y2   :     0.015653
      dxy     :     0.031749
  2 H s       :     0.867477  s :     0.867477
  3 H s       :     0.867484  s :     0.867484
  4 H s       :     0.867481  s :     0.867481
  5 H s       :     0.867480  s :     0.867480


                      *****************************
                      * MAYER POPULATION ANALYSIS *
                      *****************************

  NA   - Mulliken gross atomic population
  ZA   - Total nuclear charge
  QA   - Mulliken gross atomic charge
  VA   - Mayer's total valence
  BVA  - Mayer's bonded valence
  FA   - Mayer's free valence

  ATOM       NA         ZA         QA         VA         BVA        FA
  0 C      6.3224     6.0000    -0.3224     3.9158     3.9158    -0.0000
  1 C      6.3224     6.0000    -0.3224     3.9158     3.9158     0.0000
  2 H      0.8388     1.0000     0.1612     0.9376     0.9376    -0.0000
  3 H      0.8388     1.0000     0.1612     0.9376     0.9376    -0.0000
  4 H      0.8388     1.0000     0.1612     0.9376     0.9376    -0.0000
  5 H      0.8388     1.0000     0.1612     0.9376     0.9376     0.0000

  Mayer bond orders larger than 0.1
B(  0-C ,  1-C ) :   2.0488 B(  0-C ,  2-H ) :   0.9444 B(  0-C ,  3-H ) :   0.9444 
B(  1-C ,  4-H ) :   0.9444 B(  1-C ,  5-H ) :   0.9444 

-------
TIMINGS
-------

Total SCF time: 0 days 0 hours 0 min 3 sec 

Total time                  ....       3.598 sec
Sum of individual times     ....       3.486 sec  ( 96.9%)

Fock matrix formation       ....       3.047 sec  ( 84.7%)
  XC integration            ....       0.916 sec  ( 30.1% of F)
    Basis function eval.    ....       0.374 sec  ( 40.8% of XC)
    Density eval.           ....       0.044 sec  (  4.8% of XC)
    XC-Functional eval.     ....       0.239 sec  ( 26.1% of XC)
    XC-Potential eval.      ....       0.053 sec  (  5.8% of XC)
Diagonalization             ....       0.007 sec  (  0.2%)
Density matrix formation    ....       0.000 sec  (  0.0%)
Population analysis         ....       0.009 sec  (  0.2%)
Initial guess               ....       0.149 sec  (  4.1%)
Orbital Transformation      ....       0.000 sec  (  0.0%)
Orbital Orthonormalization  ....       0.000 sec  (  0.0%)
DIIS solution               ....       0.000 sec  (  0.0%)
Grid generation             ....       0.275 sec  (  7.6%)


-------------------------------------------------------------------------------
                          DFT DISPERSION CORRECTION                            
                                                                               
                              DFTD3 V3.1  Rev 1                                
                              USING zero damping                               
-------------------------------------------------------------------------------
The omegaB97X-D3 functional is recognized. Fit by Chai et al.
Active option DFTDOPT                   ...         3   

molecular C6(AA) [au] = 294.341170 


            DFT-D V3
 parameters
 s6 scaling factor         :     1.0000 
 rs6 scaling factor        :     1.2810 
 s8 scaling factor         :     1.0000 
 rs8 scaling factor        :     1.0940 
 Damping factor alpha6     :    14.0000 
 Damping factor alpha8     :    16.0000 
 ad hoc parameters k1-k3   :    16.0000     1.3333    -4.0000 

 Edisp/kcal,au: -0.149327437594  -0.000237968394 
 E6   /kcal   :  -0.049082439 
 E8   /kcal   :  -0.100244999 
 % E8         :  67.130997571 

-------------------------   ----------------
Dispersion correction           -0.000237968
-------------------------   ----------------


-------------------------   --------------------
FINAL SINGLE POINT ENERGY       -78.535921005399
-------------------------   --------------------


                            ***************************************
                            *     ORCA property calculations      *
                            ***************************************

                                    ---------------------
                                    Active property flags
                                    ---------------------
   (+) Dipole Moment


------------------------------------------------------------------------------
                       ORCA ELECTRIC PROPERTIES CALCULATION
------------------------------------------------------------------------------

Dipole Moment Calculation                       ... on
Quadrupole Moment Calculation                   ... off
Polarizability Calculation                      ... off
GBWName                                         ... Scan_6.gbw
Electron density file                           ... Scan_6.scfp.tmp

-------------
DIPOLE MOMENT
-------------
                                X             Y             Z
Electronic contribution:     -0.00001       0.00118      -0.00141
Nuclear contribution   :      0.00001      -0.00176       0.00207
                        -----------------------------------------
Total Dipole Moment    :      0.00000      -0.00058       0.00066
                        -----------------------------------------
Magnitude (a.u.)       :      0.00088
Magnitude (Debye)      :      0.00225


Timings for individual modules:

Sum of individual times         ...        3.957 sec (=   0.066 min)
GTO integral calculation        ...        0.320 sec (=   0.005 min)   8.1 %
SCF iterations                  ...        3.638 sec (=   0.061 min)  91.9 %
                             ****ORCA TERMINATED NORMALLY****
TOTAL RUN TIME: 0 days 0 hours 0 minutes 4 seconds 289 msec
