
                                 *****************
                                 * O   R   C   A *
                                 *****************

           --- An Ab Initio, DFT and Semiempirical electronic structure package ---

                  #######################################################
                  #                        -***-                        #
                  #  Department of molecular theory and spectroscopy    #
                  #              Directorship: Frank Neese              #
                  # Max Planck Institute for Chemical Energy Conversion #
                  #                  D-45470 Muelheim/Ruhr              #
                  #                       Germany                       #
                  #                                                     #
                  #                  All rights reserved                #
                  #                        -***-                        #
                  #######################################################


                         Program Version 4.0.0.2 - RELEASE -


 With contributions from (in alphabetic order):
   Daniel Aravena         : Magnetic Properties
   Michael Atanasov       : Ab Initio Ligand Field Theory
   Ute Becker             : Parallelization
   Martin Brehm           : Molecular dynamics
   Dmytro Bykov           : SCF Hessian
   Vijay G. Chilkuri      : MRCI spin determinant printing
   Dipayan Datta          : RHF DLPNO-CCSD density
   Achintya Kumar Dutta   : EOM-CC, STEOM-CC
   Dmitry Ganyushin       : Spin-Orbit,Spin-Spin,Magnetic field MRCI
   Yang Guo               : DLPNO-NEVPT2, CIM, IAO-localization
   Andreas Hansen         : Spin unrestricted coupled pair/coupled cluster methods
   Lee Huntington         : MR-EOM, pCC
   Robert Izsak           : Overlap fitted RIJCOSX, COSX-SCS-MP3, EOM
   Christian Kollmar      : KDIIS, OOCD, Brueckner-CCSD(T), CCSD density
   Simone Kossmann        : Meta GGA functionals, TD-DFT gradient, OOMP2, MP2 Hessian
   Martin Krupicka        : AUTO-CI
   Dagmar Lenk            : GEPOL surface
   Dimitrios Liakos       : Extrapolation schemes; parallel MDCI
   Dimitrios Manganas     : ROCIS; embedding schemes
   Dimitrios Pantazis     : SARC Basis sets
   Taras Petrenko         : DFT Hessian,TD-DFT gradient, ASA, ECA, R-Raman, ABS, FL, XAS/XES, NRVS
   Peter Pinski           : DLPNO-MP2
   Christoph Reimann      : Effective Core Potentials
   Marius Retegan         : Local ZFS, SOC
   Christoph Riplinger    : Optimizer, TS searches, QM/MM, DLPNO-CCSD(T), (RO)-DLPNO pert. Triples
   Tobias Risthaus        : Range-separated hybrids, TD-DFT gradient, RPA, STAB
   Michael Roemelt        : Restricted open shell CIS
   Masaaki Saitow         : Open-shell DLPNO
   Barbara Sandhoefer     : DKH picture change effects
   Kantharuban Sivalingam : CASSCF convergence, NEVPT2, FIC-MRCI
   Georgi Stoychev        : AutoAux
   Boris Wezisla          : Elementary symmetry handling
   Frank Wennmohs         : Technical directorship


 We gratefully acknowledge several colleagues who have allowed us to
 interface, adapt or use parts of their codes:
   Stefan Grimme, W. Hujo, H. Kruse,             : VdW corrections, initial TS optimization,
                  C. Bannwarth                     DFT functionals, gCP, sTDA/sTD-DF
   Ed Valeev                                     : LibInt (2-el integral package), F12 methods
   Garnet Chan, S. Sharma, J. Yang, R. Olivares  : DMRG
   Ulf Ekstrom                                   : XCFun DFT Library
   Mihaly Kallay                                 : mrcc  (arbitrary order and MRCC methods)
   Jiri Pittner, Ondrej Demel                    : Mk-CCSD
   Frank Weinhold                                : gennbo (NPA and NBO analysis)
   Christopher J. Cramer and Donald G. Truhlar   : smd solvation model


 Your calculation uses the libint2 library for the computation of 2-el integrals
 For citations please refer to: http://libint.valeyev.net

 This ORCA versions uses:
   CBLAS   interface :  Fast vector & matrix operations
   LAPACKE interface :  Fast linear algebra routines
   SCALAPACK package :  Parallel linear algebra routines


Your calculation utilizes the atom-pairwise dispersion correction
with the zero-damping scheme (D30)
Cite in your paper:
S.Grimme, J.Antony, S.Ehrlich and H.Krieg, J.Chem.Phys., 132, (2010), 154104 
   

XCFun DFT library Copyright 2009-2010 Ulf Ekstrom and contributors.
See http://admol.org/xcfun for more information. This is free soft-
ware; see the source code for copying conditions. There is ABSOLUTELY
NO WARRANTY; not even for MERCHANTABILITY or FITNESS FOR A PARTICULAR
PURPOSE. For details see the documentation. Scientific users of this 
library should cite U. Ekstrom, L. Visscher, R. Bast, A. J. Thorvald-
sen and K. Ruud; J.Chem.Theor.Comp. 2010, DOI: 10.1021/ct100117s
XCFun Version 0.99 
Your calculation utilizes the basis: 6-31G(d)
   H-He, Li-Ne : W. J. Hehre, R. Ditchfield and J.A. Pople, J. Chem. Phys. 56, 2257 (1972).
                 Note: He and Ne are unpublished basis sets taken from the Gaussian program.
                 Note: Li and B from J. D. Dill and J. A. Pople, J. Chem. Phys. 62, 2921 (1975).
   Na - Ar     : M. M. Francl, W. J. Pietro, W. J. Hehre, J. S. Binkley, M. S. Gordon, 
                 D. J. DeFrees and J. A. Pople, J. Chem. Phys. 77, 3654 (1982).
   K - Zn      : V. A. Rassolov, J. A. Pople, M. A. Ratner, and T. L. Windus, J. Chem. Phys. 109, 1223 (1998).

================================================================================
                                        WARNINGS
                       Please study these warnings very carefully!
================================================================================

Warning: TCutStore was < 0. Adjusted to Thresh (uncritical)

INFO   : the flag for use of LIBINT has been found!

================================================================================
                                       INPUT FILE
================================================================================
NAME = initial7.inp
|  1> ! WB97X-D3 6-31G(d) VerySlowConv
|  2> ! KDIIS NOSOSCF
|  3> %base "Scan_7"
|  4> 
|  5> %scf
|  6> maxiter 999
|  7> end
|  8> 
|  9> * xyz 0 1
| 10> C         -1.638907174220    1.272022176217    0.000011849453
| 11> C         -0.398849468951    1.278527464097   -0.000019269057
| 12> H         -2.227272543689    0.578213867281   -0.587189281799
| 13> H         -2.234610994936    1.959510954152    0.587216168900
| 14> H          0.196854313861    0.591029568110   -0.587214329767
| 15> H          0.189515867934    1.972325970143    0.587194862270
| 16> **                         ****END OF INPUT****
================================================================================

                       ****************************
                       * Single Point Calculation *
                       ****************************

---------------------------------
CARTESIAN COORDINATES (ANGSTROEM)
---------------------------------
  C     -1.638907    1.272022    0.000012
  C     -0.398849    1.278527   -0.000019
  H     -2.227273    0.578214   -0.587189
  H     -2.234611    1.959511    0.587216
  H      0.196854    0.591030   -0.587214
  H      0.189516    1.972326    0.587195

----------------------------
CARTESIAN COORDINATES (A.U.)
----------------------------
  NO LB      ZA    FRAG     MASS         X           Y           Z
   0 C     6.0000    0    12.011   -3.097086    2.403774    0.000022
   1 C     6.0000    0    12.011   -0.753716    2.416067   -0.000036
   2 H     1.0000    0     1.008   -4.208935    1.092666   -1.109627
   3 H     1.0000    0     1.008   -4.222803    3.702939    1.109678
   4 H     1.0000    0     1.008    0.372001    1.116884   -1.109674
   5 H     1.0000    0     1.008    0.358133    3.727156    1.109637

--------------------------------
INTERNAL COORDINATES (ANGSTROEM)
--------------------------------
 C      0   0   0     0.000000000000     0.00000000     0.00000000
 C      1   0   0     1.240074768768     0.00000000     0.00000000
 H      1   2   0     1.082750638920   123.14359211     0.00000000
 H      1   2   3     1.082733935267   123.15186096   179.99685768
 H      2   1   3     1.082734682720   123.15182969     0.00000000
 H      2   1   3     1.082751390057   123.14356083   180.00102723

---------------------------
INTERNAL COORDINATES (A.U.)
---------------------------
 C      0   0   0     0.000000000000     0.00000000     0.00000000
 C      1   0   0     2.343401698558     0.00000000     0.00000000
 H      1   2   0     2.046102178888   123.14359211     0.00000000
 H      1   2   3     2.046070613558   123.15186096   179.99685768
 H      2   1   3     2.046072026039   123.15182969     0.00000000
 H      2   1   3     2.046103598330   123.14356083   180.00102723

---------------------
BASIS SET INFORMATION
---------------------
There are 2 groups of distinct atoms

 Group   1 Type C   : 10s4p1d contracted to 3s2p1d pattern {631/31/1}
 Group   2 Type H   : 4s contracted to 2s pattern {31}

Atom   0C    basis set group =>   1
Atom   1C    basis set group =>   1
Atom   2H    basis set group =>   2
Atom   3H    basis set group =>   2
Atom   4H    basis set group =>   2
Atom   5H    basis set group =>   2
------------------------------------------------------------------------------
                           ORCA GTO INTEGRAL CALCULATION
------------------------------------------------------------------------------

                         BASIS SET STATISTICS AND STARTUP INFO

 # of primitive gaussian shells          ...   46
 # of primitive gaussian functions       ...   70
 # of contracted shells                  ...   20
 # of contracted basis functions         ...   36
 Highest angular momentum                ...    2
 Maximum contraction depth               ...    6
 Integral package used                   ... LIBINT
 Integral threshhold            Thresh   ...  1.000e-10
 Primitive cut-off              TCut     ...  1.000e-11


------------------------------ INTEGRAL EVALUATION ----------------------------


 * One electron integrals 
 Pre-screening matrix                    ... done
 Shell pair data                         ... done (   0.000 sec)

-------------------------------------------------------------------------------
                                 ORCA SCF
-------------------------------------------------------------------------------

------------
SCF SETTINGS
------------
Hamiltonian:
 Density Functional     Method          .... DFT(GTOs)
 Exchange Functional    Exchange        .... WB97X-D3
 Correlation Functional Correlation     .... WB97X-D3
 Gradients option       PostSCFGGA      .... off
 Hybrid DFT is turned on
   Fraction HF Exchange ScalHFX         ....  0.195728
   Scaling of DF-GGA-X  ScalDFX         ....  0.000000
   Scaling of DF-GGA-C  ScalDFC         ....  1.000000
   Scaling of DF-LDA-C  ScalLDAC        ....  1.000000
   Perturbative correction              ....  0.000000
 Long-range corrected/Screened/Range-Separated Hybrid DFT is turned on
   Amount of maximum screened exact exchange              ....  0.804272
   Range separation parameter mu (erf(mu*r12)/r12)        ....  0.250000


General Settings:
 Integral files         IntName         .... Scan_7
 Hartree-Fock type      HFTyp           .... RHF
 Total Charge           Charge          ....    0
 Multiplicity           Mult            ....    1
 Number of Electrons    NEL             ....   16
 Basis Dimension        Dim             ....   36
 Nuclear Repulsion      ENuc            ....     34.6749564790 Eh

Convergence Acceleration:
 DIIS                   CNVDIIS         .... on
   Start iteration      DIISMaxIt       ....     0
   Startup error        DIISStart       ....  0.200000
   # of expansion vecs  DIISMaxEq       ....     5
   Bias factor          DIISBfac        ....   1.050
   Max. coefficient     DIISMaxC        ....  10.000
 Newton-Raphson         CNVNR           .... off
 SOSCF                  CNVSOSCF        .... off
 Level Shifting         CNVShift        .... off
 Zerner damping         CNVZerner       .... off
 Static damping         CNVDamp         .... off
 Fernandez-Rico         CNVRico         .... off

SCF Procedure:
 Maximum # iterations   MaxIter         ....   999
 SCF integral mode      SCFMode         .... Direct
   Integral package                     .... LIBINT
 Reset frequeny         DirectResetFreq ....    20
 Integral Threshold     Thresh          ....  1.000e-10 Eh
 Primitive CutOff       TCut            ....  1.000e-11 Eh

Convergence Tolerance:
 Convergence Check Mode ConvCheckMode   .... All-Criteria
 Convergence forced     ConvForced      .... 0
 Energy Change          TolE            ....  1.000e-06 Eh
 Max Density Change     TolMaxP         ....  1.000e-05
 RMS Density Change     TolRMSP         ....  1.000e-06
 DIIS Error             TolErr          ....  1.000e-06


Diagonalization of the overlap matrix:
Smallest eigenvalue                        ... 5.882e-03
Time for diagonalization                   ...    0.001 sec
Threshold for overlap eigenvalues          ... 1.000e-08
Number of eigenvalues below threshold      ... 0
Time for construction of square roots      ...    0.005 sec
Total time needed                          ...    0.006 sec

-------------------
DFT GRID GENERATION
-------------------

General Integration Accuracy     IntAcc      ...  4.340
Radial Grid Type                 RadialGrid  ... Gauss-Chebyshev
Angular Grid (max. acc.)         AngularGrid ... Lebedev-110
Angular grid pruning method      GridPruning ... 3 (G Style)
Weight generation scheme         WeightScheme... Becke
Basis function cutoff            BFCut       ...    1.0000e-10
Integration weight cutoff        WCut        ...    1.0000e-14
Grids for H and He will be reduced by one unit

# of grid points (after initial pruning)     ...   6488 (   0.0 sec)
# of grid points (after weights+screening)   ...   6236 (   0.0 sec)
nearest neighbour list constructed           ...    0.0 sec
Grid point re-assignment to atoms done       ...    0.0 sec
Grid point division into batches done        ...    0.0 sec
Reduced shell lists constructed in    0.0 sec

Total number of grid points                  ...     6236
Total number of batches                      ...      100
Average number of points per batch           ...       62
Average number of grid points per atom       ...     1039
Average number of shells per batch           ...    18.00 (90.00%)
Average number of basis functions per batch  ...    32.77 (91.03%)
Average number of large shells per batch     ...    16.49 (91.58%)
Average number of large basis fcns per batch ...    30.66 (93.56%)
Maximum spatial batch extension              ...  20.05, 20.58, 31.36 au
Average spatial batch extension              ...   4.80,  5.40,  6.10 au

Time for grid setup =    0.050 sec

------------------------------
INITIAL GUESS: MODEL POTENTIAL
------------------------------
Loading Hartree-Fock densities                     ... done
Calculating cut-offs                               ... done
Setting up the integral package                    ... done
Initializing the effective Hamiltonian             ... done
Starting the Coulomb interaction                   ... done (   0.0 sec)
Reading the grid                                   ... done
Mapping shells                                     ... done
Starting the XC term evaluation                    ... done (   0.1 sec)
  promolecular density results
     # of electrons  =     16.006179545
     EX              =    -11.389202766
     EC              =     -0.492340740
     EX+EC           =    -11.881543507
Transforming the Hamiltonian                       ... done (   0.0 sec)
Diagonalizing the Hamiltonian                      ... done (   0.0 sec)
Back transforming the eigenvectors                 ... done (   0.0 sec)
Now organizing SCF variables                       ... done
                      ------------------
                      INITIAL GUESS DONE (   0.2 sec)
                      ------------------
--------------
SCF ITERATIONS
--------------
ITER       Energy         Delta-E        Max-DP      RMS-DP      [F,P]   Gradient Norm
               ***  Starting incremental Fock matrix formation  ***
                             ****Resetting KDIIS****
                             ****Turning on KDIIS(Cayley)****
  0    -78.4521355582   0.000000000000 0.02189144  0.00194662  0.1200012   0.101482367
  1    -78.4817825495  -0.029646991245 0.01921939  0.00184256  0.1007509   0.083875957
  2    -78.5038561528  -0.022073603343 0.03144971  0.00315019  0.0822682   0.068380884
  3    -78.5309068668  -0.027050713969 0.04760876  0.00489625  0.0506445   0.042209488
  4    -78.5474331277  -0.016526260941 0.00187327  0.00024425  0.0016888   0.001350463
  5    -78.5474503999  -0.000017272197 0.00056603  0.00007455  0.0008614   0.000551514
  6    -78.5474527093  -0.000002309373 0.00033421  0.00004038  0.0003609   0.000271750
                          ***Energy convergence achieved***
  7    -78.5474534584  -0.000000749097 0.00005434  0.00000704  0.0000661   0.000050752
                           ***RMSP convergence achieved***
                           ***MAXP convergence achieved***
                    *** KDIIS BlockDiag ( 0.000 sec) ***

               *****************************************************
               *                     SUCCESS                       *
               *           SCF CONVERGED AFTER   8 CYCLES          *
               *****************************************************

Setting up the final grid:

General Integration Accuracy     IntAcc      ...  4.670
Radial Grid Type                 RadialGrid  ... Gauss-Chebyshev
Angular Grid (max. acc.)         AngularGrid ... Lebedev-302
Angular grid pruning method      GridPruning ... 3 (G Style)
Weight generation scheme         WeightScheme... Becke
Basis function cutoff            BFCut       ...    1.0000e-10
Integration weight cutoff        WCut        ...    1.0000e-14
Grids for H and He will be reduced by one unit

# of grid points (after initial pruning)     ...  26000 (   0.0 sec)
# of grid points (after weights+screening)   ...  25140 (   0.0 sec)
nearest neighbour list constructed           ...    0.0 sec
Grid point re-assignment to atoms done       ...    0.0 sec
Grid point division into batches done        ...    0.1 sec
Reduced shell lists constructed in    0.2 sec

Total number of grid points                  ...    25140
Total number of batches                      ...      396
Average number of points per batch           ...       63
Average number of grid points per atom       ...     4190
Average number of shells per batch           ...    16.39 (81.96%)
Average number of basis functions per batch  ...    30.01 (83.35%)
Average number of large shells per batch     ...    14.73 (89.84%)
Average number of large basis fcns per batch ...    27.51 (91.70%)
Maximum spatial batch extension              ...  18.04, 20.64, 18.89 au
Average spatial batch extension              ...   3.05,  3.26,  3.24 au

Final grid set up in    0.2 sec
Final integration                            ... done (   0.3 sec)
Change in XC energy                          ...     0.001326255
Integrated number of electrons               ...    16.000006782
Previous integrated no of electrons          ...    16.004447119

----------------
TOTAL SCF ENERGY
----------------

Total Energy       :          -78.54612723 Eh           -2137.34878 eV

Components:
Nuclear Repulsion  :           34.67495648 Eh             943.55354 eV
Electronic Energy  :         -113.22108371 Eh           -3080.90232 eV
One Electron Energy:         -172.88476605 Eh           -4704.43365 eV
Two Electron Energy:           59.66368234 Eh            1623.53134 eV

Virial components:
Potential Energy   :         -156.91915280 Eh           -4269.98723 eV
Kinetic Energy     :           78.37302557 Eh            2132.63845 eV
Virial Ratio       :            2.00220869


DFT components:
N(Alpha)           :        8.000003390931 electrons
N(Beta)            :        8.000003390931 electrons
N(Total)           :       16.000006781862 electrons
E(XC)              :       -8.334776560173 Eh       

---------------
SCF CONVERGENCE
---------------

  Last Energy change         ...   -2.8330e-08  Tolerance :   1.0000e-06
  Last MAX-Density change    ...    5.3408e-06  Tolerance :   1.0000e-05
  Last RMS-Density change    ...    4.1716e-07  Tolerance :   1.0000e-06
  Last DIIS Error            ...    1.2567e-06  Tolerance :   1.0000e-06

             **** THE GBW FILE WAS UPDATED (Scan_7.gbw) ****
             **** DENSITY FILE WAS UPDATED (Scan_7.scfp.tmp) ****
             **** ENERGY FILE WAS UPDATED (Scan_7.en.tmp) ****
----------------
ORBITAL ENERGIES
----------------

  NO   OCC          E(Eh)            E(eV) 
   0   2.0000     -10.264815      -279.3198 
   1   2.0000     -10.263104      -279.2733 
   2   2.0000      -0.890957       -24.2442 
   3   2.0000      -0.679395       -18.4873 
   4   2.0000      -0.572907       -15.5896 
   5   2.0000      -0.527116       -14.3436 
   6   2.0000      -0.430127       -11.7044 
   7   2.0000      -0.376831       -10.2541 
   8   0.0000       0.127826         3.4783 
   9   0.0000       0.221384         6.0242 
  10   0.0000       0.227491         6.1903 
  11   0.0000       0.260635         7.0923 
  12   0.0000       0.354799         9.6546 
  13   0.0000       0.449216        12.2238 
  14   0.0000       0.553238        15.0544 
  15   0.0000       0.635107        17.2821 
  16   0.0000       0.679655        18.4944 
  17   0.0000       0.758371        20.6363 
  18   0.0000       0.763682        20.7808 
  19   0.0000       0.874421        23.7942 
  20   0.0000       0.935417        25.4540 
  21   0.0000       1.002825        27.2882 
  22   0.0000       1.066133        29.0110 
  23   0.0000       1.068066        29.0636 
  24   0.0000       1.267244        34.4835 
  25   0.0000       1.341953        36.5164 
  26   0.0000       1.597372        43.4667 
  27   0.0000       1.607809        43.7507 
  28   0.0000       1.955548        53.2132 
  29   0.0000       1.967541        53.5395 
  30   0.0000       2.139421        58.2166 
  31   0.0000       2.280280        62.0496 
  32   0.0000       2.432426        66.1897 
  33   0.0000       2.576406        70.1076 
  34   0.0000       2.918543        79.4176 
  35   0.0000       2.943115        80.0862 

                    ********************************
                    * MULLIKEN POPULATION ANALYSIS *
                    ********************************

-----------------------
MULLIKEN ATOMIC CHARGES
-----------------------
   0 C :   -0.326444
   1 C :   -0.326443
   2 H :    0.163196
   3 H :    0.163248
   4 H :    0.163248
   5 H :    0.163195
Sum of atomic charges:   -0.0000000

--------------------------------
MULLIKEN REDUCED ORBITAL CHARGES
--------------------------------
  0 C s       :     3.225197  s :     3.225197
      pz      :     1.020044  p :     3.066276
      px      :     1.016477
      py      :     1.029755
      dz2     :     0.001325  d :     0.034971
      dxz     :     0.011420
      dyz     :     0.004584
      dx2y2   :     0.004448
      dxy     :     0.013193
  1 C s       :     3.225197  s :     3.225197
      pz      :     1.020044  p :     3.066275
      px      :     1.016477
      py      :     1.029755
      dz2     :     0.001325  d :     0.034971
      dxz     :     0.011420
      dyz     :     0.004584
      dx2y2   :     0.004448
      dxy     :     0.013193
  2 H s       :     0.836804  s :     0.836804
  3 H s       :     0.836752  s :     0.836752
  4 H s       :     0.836752  s :     0.836752
  5 H s       :     0.836805  s :     0.836805


                     *******************************
                     * LOEWDIN POPULATION ANALYSIS *
                     *******************************

----------------------
LOEWDIN ATOMIC CHARGES
----------------------
   0 C :   -0.266962
   1 C :   -0.266961
   2 H :    0.133481
   3 H :    0.133481
   4 H :    0.133481
   5 H :    0.133481

-------------------------------
LOEWDIN REDUCED ORBITAL CHARGES
-------------------------------
  0 C s       :     2.957403  s :     2.957403
      pz      :     1.034318  p :     3.230030
      px      :     1.143959
      py      :     1.051753
      dz2     :     0.004395  d :     0.079529
      dxz     :     0.024588
      dyz     :     0.006465
      dx2y2   :     0.014882
      dxy     :     0.029200
  1 C s       :     2.957403  s :     2.957403
      pz      :     1.034318  p :     3.230029
      px      :     1.143958
      py      :     1.051753
      dz2     :     0.004395  d :     0.079529
      dxz     :     0.024588
      dyz     :     0.006465
      dx2y2   :     0.014882
      dxy     :     0.029200
  2 H s       :     0.866519  s :     0.866519
  3 H s       :     0.866519  s :     0.866519
  4 H s       :     0.866519  s :     0.866519
  5 H s       :     0.866519  s :     0.866519


                      *****************************
                      * MAYER POPULATION ANALYSIS *
                      *****************************

  NA   - Mulliken gross atomic population
  ZA   - Total nuclear charge
  QA   - Mulliken gross atomic charge
  VA   - Mayer's total valence
  BVA  - Mayer's bonded valence
  FA   - Mayer's free valence

  ATOM       NA         ZA         QA         VA         BVA        FA
  0 C      6.3264     6.0000    -0.3264     3.9093     3.9093    -0.0000
  1 C      6.3264     6.0000    -0.3264     3.9093     3.9093     0.0000
  2 H      0.8368     1.0000     0.1632     0.9377     0.9377     0.0000
  3 H      0.8368     1.0000     0.1632     0.9377     0.9377     0.0000
  4 H      0.8368     1.0000     0.1632     0.9377     0.9377    -0.0000
  5 H      0.8368     1.0000     0.1632     0.9377     0.9377     0.0000

  Mayer bond orders larger than 0.1
B(  0-C ,  1-C ) :   2.0398 B(  0-C ,  2-H ) :   0.9455 B(  0-C ,  3-H ) :   0.9455 
B(  1-C ,  4-H ) :   0.9455 B(  1-C ,  5-H ) :   0.9455 

-------
TIMINGS
-------

Total SCF time: 0 days 0 hours 0 min 3 sec 

Total time                  ....       3.753 sec
Sum of individual times     ....       3.602 sec  ( 96.0%)

Fock matrix formation       ....       3.137 sec  ( 83.6%)
  XC integration            ....       1.022 sec  ( 32.6% of F)
    Basis function eval.    ....       0.429 sec  ( 42.0% of XC)
    Density eval.           ....       0.049 sec  (  4.8% of XC)
    XC-Functional eval.     ....       0.274 sec  ( 26.8% of XC)
    XC-Potential eval.      ....       0.059 sec  (  5.8% of XC)
Diagonalization             ....       0.007 sec  (  0.2%)
Density matrix formation    ....       0.000 sec  (  0.0%)
Population analysis         ....       0.010 sec  (  0.3%)
Initial guess               ....       0.158 sec  (  4.2%)
Orbital Transformation      ....       0.000 sec  (  0.0%)
Orbital Orthonormalization  ....       0.000 sec  (  0.0%)
DIIS solution               ....       0.000 sec  (  0.0%)
Grid generation             ....       0.289 sec  (  7.7%)


-------------------------------------------------------------------------------
                          DFT DISPERSION CORRECTION                            
                                                                               
                              DFTD3 V3.1  Rev 1                                
                              USING zero damping                               
-------------------------------------------------------------------------------
The omegaB97X-D3 functional is recognized. Fit by Chai et al.
Active option DFTDOPT                   ...         3   

molecular C6(AA) [au] = 294.370435 


            DFT-D V3
 parameters
 s6 scaling factor         :     1.0000 
 rs6 scaling factor        :     1.2810 
 s8 scaling factor         :     1.0000 
 rs8 scaling factor        :     1.0940 
 Damping factor alpha6     :    14.0000 
 Damping factor alpha8     :    16.0000 
 ad hoc parameters k1-k3   :    16.0000     1.3333    -4.0000 

 Edisp/kcal,au: -0.152329490406  -0.000242752469 
 E6   /kcal   :  -0.050301757 
 E8   /kcal   :  -0.102027734 
 % E8         :  66.978320058 

-------------------------   ----------------
Dispersion correction           -0.000242752
-------------------------   ----------------


-------------------------   --------------------
FINAL SINGLE POINT ENERGY       -78.546369983960
-------------------------   --------------------


                            ***************************************
                            *     ORCA property calculations      *
                            ***************************************

                                    ---------------------
                                    Active property flags
                                    ---------------------
   (+) Dipole Moment


------------------------------------------------------------------------------
                       ORCA ELECTRIC PROPERTIES CALCULATION
------------------------------------------------------------------------------

Dipole Moment Calculation                       ... on
Quadrupole Moment Calculation                   ... off
Polarizability Calculation                      ... off
GBWName                                         ... Scan_7.gbw
Electron density file                           ... Scan_7.scfp.tmp

-------------
DIPOLE MOMENT
-------------
                                X             Y             Z
Electronic contribution:      0.00000       0.00001      -0.00001
Nuclear contribution   :     -0.00000      -0.00002       0.00002
                        -----------------------------------------
Total Dipole Moment    :      0.00000      -0.00001       0.00001
                        -----------------------------------------
Magnitude (a.u.)       :      0.00001
Magnitude (Debye)      :      0.00002


Timings for individual modules:

Sum of individual times         ...        4.107 sec (=   0.068 min)
GTO integral calculation        ...        0.315 sec (=   0.005 min)   7.7 %
SCF iterations                  ...        3.791 sec (=   0.063 min)  92.3 %
                             ****ORCA TERMINATED NORMALLY****
TOTAL RUN TIME: 0 days 0 hours 0 minutes 4 seconds 435 msec
