
                                 *****************
                                 * O   R   C   A *
                                 *****************

           --- An Ab Initio, DFT and Semiempirical electronic structure package ---

                  #######################################################
                  #                        -***-                        #
                  #  Department of molecular theory and spectroscopy    #
                  #              Directorship: Frank Neese              #
                  # Max Planck Institute for Chemical Energy Conversion #
                  #                  D-45470 Muelheim/Ruhr              #
                  #                       Germany                       #
                  #                                                     #
                  #                  All rights reserved                #
                  #                        -***-                        #
                  #######################################################


                         Program Version 4.0.0.2 - RELEASE -


 With contributions from (in alphabetic order):
   Daniel Aravena         : Magnetic Properties
   Michael Atanasov       : Ab Initio Ligand Field Theory
   Ute Becker             : Parallelization
   Martin Brehm           : Molecular dynamics
   Dmytro Bykov           : SCF Hessian
   Vijay G. Chilkuri      : MRCI spin determinant printing
   Dipayan Datta          : RHF DLPNO-CCSD density
   Achintya Kumar Dutta   : EOM-CC, STEOM-CC
   Dmitry Ganyushin       : Spin-Orbit,Spin-Spin,Magnetic field MRCI
   Yang Guo               : DLPNO-NEVPT2, CIM, IAO-localization
   Andreas Hansen         : Spin unrestricted coupled pair/coupled cluster methods
   Lee Huntington         : MR-EOM, pCC
   Robert Izsak           : Overlap fitted RIJCOSX, COSX-SCS-MP3, EOM
   Christian Kollmar      : KDIIS, OOCD, Brueckner-CCSD(T), CCSD density
   Simone Kossmann        : Meta GGA functionals, TD-DFT gradient, OOMP2, MP2 Hessian
   Martin Krupicka        : AUTO-CI
   Dagmar Lenk            : GEPOL surface
   Dimitrios Liakos       : Extrapolation schemes; parallel MDCI
   Dimitrios Manganas     : ROCIS; embedding schemes
   Dimitrios Pantazis     : SARC Basis sets
   Taras Petrenko         : DFT Hessian,TD-DFT gradient, ASA, ECA, R-Raman, ABS, FL, XAS/XES, NRVS
   Peter Pinski           : DLPNO-MP2
   Christoph Reimann      : Effective Core Potentials
   Marius Retegan         : Local ZFS, SOC
   Christoph Riplinger    : Optimizer, TS searches, QM/MM, DLPNO-CCSD(T), (RO)-DLPNO pert. Triples
   Tobias Risthaus        : Range-separated hybrids, TD-DFT gradient, RPA, STAB
   Michael Roemelt        : Restricted open shell CIS
   Masaaki Saitow         : Open-shell DLPNO
   Barbara Sandhoefer     : DKH picture change effects
   Kantharuban Sivalingam : CASSCF convergence, NEVPT2, FIC-MRCI
   Georgi Stoychev        : AutoAux
   Boris Wezisla          : Elementary symmetry handling
   Frank Wennmohs         : Technical directorship


 We gratefully acknowledge several colleagues who have allowed us to
 interface, adapt or use parts of their codes:
   Stefan Grimme, W. Hujo, H. Kruse,             : VdW corrections, initial TS optimization,
                  C. Bannwarth                     DFT functionals, gCP, sTDA/sTD-DF
   Ed Valeev                                     : LibInt (2-el integral package), F12 methods
   Garnet Chan, S. Sharma, J. Yang, R. Olivares  : DMRG
   Ulf Ekstrom                                   : XCFun DFT Library
   Mihaly Kallay                                 : mrcc  (arbitrary order and MRCC methods)
   Jiri Pittner, Ondrej Demel                    : Mk-CCSD
   Frank Weinhold                                : gennbo (NPA and NBO analysis)
   Christopher J. Cramer and Donald G. Truhlar   : smd solvation model


 Your calculation uses the libint2 library for the computation of 2-el integrals
 For citations please refer to: http://libint.valeyev.net

 This ORCA versions uses:
   CBLAS   interface :  Fast vector & matrix operations
   LAPACKE interface :  Fast linear algebra routines
   SCALAPACK package :  Parallel linear algebra routines


Your calculation utilizes the atom-pairwise dispersion correction
with the zero-damping scheme (D30)
Cite in your paper:
S.Grimme, J.Antony, S.Ehrlich and H.Krieg, J.Chem.Phys., 132, (2010), 154104 
   

XCFun DFT library Copyright 2009-2010 Ulf Ekstrom and contributors.
See http://admol.org/xcfun for more information. This is free soft-
ware; see the source code for copying conditions. There is ABSOLUTELY
NO WARRANTY; not even for MERCHANTABILITY or FITNESS FOR A PARTICULAR
PURPOSE. For details see the documentation. Scientific users of this 
library should cite U. Ekstrom, L. Visscher, R. Bast, A. J. Thorvald-
sen and K. Ruud; J.Chem.Theor.Comp. 2010, DOI: 10.1021/ct100117s
XCFun Version 0.99 
Your calculation utilizes the basis: 6-31G(d)
   H-He, Li-Ne : W. J. Hehre, R. Ditchfield and J.A. Pople, J. Chem. Phys. 56, 2257 (1972).
                 Note: He and Ne are unpublished basis sets taken from the Gaussian program.
                 Note: Li and B from J. D. Dill and J. A. Pople, J. Chem. Phys. 62, 2921 (1975).
   Na - Ar     : M. M. Francl, W. J. Pietro, W. J. Hehre, J. S. Binkley, M. S. Gordon, 
                 D. J. DeFrees and J. A. Pople, J. Chem. Phys. 77, 3654 (1982).
   K - Zn      : V. A. Rassolov, J. A. Pople, M. A. Ratner, and T. L. Windus, J. Chem. Phys. 109, 1223 (1998).

================================================================================
                                        WARNINGS
                       Please study these warnings very carefully!
================================================================================

Warning: TCutStore was < 0. Adjusted to Thresh (uncritical)

INFO   : the flag for use of LIBINT has been found!

================================================================================
                                       INPUT FILE
================================================================================
NAME = initial8.inp
|  1> ! WB97X-D3 6-31G(d) VerySlowConv
|  2> ! KDIIS NOSOSCF
|  3> %base "Scan_8"
|  4> 
|  5> %scf
|  6> maxiter 999
|  7> end
|  8> 
|  9> * xyz 0 1
| 10> C         -1.656952924982    1.271979340678   -0.000092365201
| 11> C         -0.380804601381    1.278727071185   -0.000099447427
| 12> H         -2.235205181678    0.575408286176   -0.589462580459
| 13> H         -2.242536485803    1.962147350286    0.589570726740
| 14> H          0.204780246119    0.588314955774   -0.589475410721
| 15> H          0.197448947724    1.975052995901    0.589559077068
| 16> **                         ****END OF INPUT****
================================================================================

                       ****************************
                       * Single Point Calculation *
                       ****************************

---------------------------------
CARTESIAN COORDINATES (ANGSTROEM)
---------------------------------
  C     -1.656953    1.271979   -0.000092
  C     -0.380805    1.278727   -0.000099
  H     -2.235205    0.575408   -0.589463
  H     -2.242536    1.962147    0.589571
  H      0.204780    0.588315   -0.589475
  H      0.197449    1.975053    0.589559

----------------------------
CARTESIAN COORDINATES (A.U.)
----------------------------
  NO LB      ZA    FRAG     MASS         X           Y           Z
   0 C     6.0000    0    12.011   -3.131187    2.403693   -0.000175
   1 C     6.0000    0    12.011   -0.719616    2.416444   -0.000188
   2 H     1.0000    0     1.008   -4.223926    1.087364   -1.113923
   3 H     1.0000    0     1.008   -4.237780    3.707921    1.114127
   4 H     1.0000    0     1.008    0.386979    1.111754   -1.113947
   5 H     1.0000    0     1.008    0.373124    3.732309    1.114105

--------------------------------
INTERNAL COORDINATES (ANGSTROEM)
--------------------------------
 C      0   0   0     0.000000000000     0.00000000     0.00000000
 C      1   0   0     1.276166163063     0.00000000     0.00000000
 H      1   2   0     1.080251895151   122.59470295     0.00000000
 H      1   2   3     1.080251151440   122.59506560   179.97610185
 H      2   1   3     1.080251141558   122.59506558     0.00000000
 H      2   1   3     1.080251885439   122.59470294   180.02382413

---------------------------
INTERNAL COORDINATES (A.U.)
---------------------------
 C      0   0   0     0.000000000000     0.00000000     0.00000000
 C      1   0   0     2.411604549566     0.00000000     0.00000000
 H      1   2   0     2.041380237485   122.59470295     0.00000000
 H      1   2   3     2.041378832075   122.59506560   179.97610185
 H      2   1   3     2.041378813400   122.59506558     0.00000000
 H      2   1   3     2.041380219131   122.59470294   180.02382413

---------------------
BASIS SET INFORMATION
---------------------
There are 2 groups of distinct atoms

 Group   1 Type C   : 10s4p1d contracted to 3s2p1d pattern {631/31/1}
 Group   2 Type H   : 4s contracted to 2s pattern {31}

Atom   0C    basis set group =>   1
Atom   1C    basis set group =>   1
Atom   2H    basis set group =>   2
Atom   3H    basis set group =>   2
Atom   4H    basis set group =>   2
Atom   5H    basis set group =>   2
------------------------------------------------------------------------------
                           ORCA GTO INTEGRAL CALCULATION
------------------------------------------------------------------------------

                         BASIS SET STATISTICS AND STARTUP INFO

 # of primitive gaussian shells          ...   46
 # of primitive gaussian functions       ...   70
 # of contracted shells                  ...   20
 # of contracted basis functions         ...   36
 Highest angular momentum                ...    2
 Maximum contraction depth               ...    6
 Integral package used                   ... LIBINT
 Integral threshhold            Thresh   ...  1.000e-10
 Primitive cut-off              TCut     ...  1.000e-11


------------------------------ INTEGRAL EVALUATION ----------------------------


 * One electron integrals 
 Pre-screening matrix                    ... done
 Shell pair data                         ... done (   0.000 sec)

-------------------------------------------------------------------------------
                                 ORCA SCF
-------------------------------------------------------------------------------

------------
SCF SETTINGS
------------
Hamiltonian:
 Density Functional     Method          .... DFT(GTOs)
 Exchange Functional    Exchange        .... WB97X-D3
 Correlation Functional Correlation     .... WB97X-D3
 Gradients option       PostSCFGGA      .... off
 Hybrid DFT is turned on
   Fraction HF Exchange ScalHFX         ....  0.195728
   Scaling of DF-GGA-X  ScalDFX         ....  0.000000
   Scaling of DF-GGA-C  ScalDFC         ....  1.000000
   Scaling of DF-LDA-C  ScalLDAC        ....  1.000000
   Perturbative correction              ....  0.000000
 Long-range corrected/Screened/Range-Separated Hybrid DFT is turned on
   Amount of maximum screened exact exchange              ....  0.804272
   Range separation parameter mu (erf(mu*r12)/r12)        ....  0.250000


General Settings:
 Integral files         IntName         .... Scan_8
 Hartree-Fock type      HFTyp           .... RHF
 Total Charge           Charge          ....    0
 Multiplicity           Mult            ....    1
 Number of Electrons    NEL             ....   16
 Basis Dimension        Dim             ....   36
 Nuclear Repulsion      ENuc            ....     34.1857485677 Eh

Convergence Acceleration:
 DIIS                   CNVDIIS         .... on
   Start iteration      DIISMaxIt       ....     0
   Startup error        DIISStart       ....  0.200000
   # of expansion vecs  DIISMaxEq       ....     5
   Bias factor          DIISBfac        ....   1.050
   Max. coefficient     DIISMaxC        ....  10.000
 Newton-Raphson         CNVNR           .... off
 SOSCF                  CNVSOSCF        .... off
 Level Shifting         CNVShift        .... off
 Zerner damping         CNVZerner       .... off
 Static damping         CNVDamp         .... off
 Fernandez-Rico         CNVRico         .... off

SCF Procedure:
 Maximum # iterations   MaxIter         ....   999
 SCF integral mode      SCFMode         .... Direct
   Integral package                     .... LIBINT
 Reset frequeny         DirectResetFreq ....    20
 Integral Threshold     Thresh          ....  1.000e-10 Eh
 Primitive CutOff       TCut            ....  1.000e-11 Eh

Convergence Tolerance:
 Convergence Check Mode ConvCheckMode   .... All-Criteria
 Convergence forced     ConvForced      .... 0
 Energy Change          TolE            ....  1.000e-06 Eh
 Max Density Change     TolMaxP         ....  1.000e-05
 RMS Density Change     TolRMSP         ....  1.000e-06
 DIIS Error             TolErr          ....  1.000e-06


Diagonalization of the overlap matrix:
Smallest eigenvalue                        ... 6.721e-03
Time for diagonalization                   ...    0.001 sec
Threshold for overlap eigenvalues          ... 1.000e-08
Number of eigenvalues below threshold      ... 0
Time for construction of square roots      ...    0.005 sec
Total time needed                          ...    0.005 sec

-------------------
DFT GRID GENERATION
-------------------

General Integration Accuracy     IntAcc      ...  4.340
Radial Grid Type                 RadialGrid  ... Gauss-Chebyshev
Angular Grid (max. acc.)         AngularGrid ... Lebedev-110
Angular grid pruning method      GridPruning ... 3 (G Style)
Weight generation scheme         WeightScheme... Becke
Basis function cutoff            BFCut       ...    1.0000e-10
Integration weight cutoff        WCut        ...    1.0000e-14
Grids for H and He will be reduced by one unit

# of grid points (after initial pruning)     ...   6488 (   0.0 sec)
# of grid points (after weights+screening)   ...   6240 (   0.0 sec)
nearest neighbour list constructed           ...    0.0 sec
Grid point re-assignment to atoms done       ...    0.0 sec
Grid point division into batches done        ...    0.0 sec
Reduced shell lists constructed in    0.0 sec

Total number of grid points                  ...     6240
Total number of batches                      ...      100
Average number of points per batch           ...       62
Average number of grid points per atom       ...     1040
Average number of shells per batch           ...    17.98 (89.90%)
Average number of basis functions per batch  ...    32.67 (90.76%)
Average number of large shells per batch     ...    16.40 (91.19%)
Average number of large basis fcns per batch ...    30.50 (93.33%)
Maximum spatial batch extension              ...  20.05, 20.59, 31.36 au
Average spatial batch extension              ...   4.84,  5.54,  6.23 au

Time for grid setup =    0.048 sec

------------------------------
INITIAL GUESS: MODEL POTENTIAL
------------------------------
Loading Hartree-Fock densities                     ... done
Calculating cut-offs                               ... done
Setting up the integral package                    ... done
Initializing the effective Hamiltonian             ... done
Starting the Coulomb interaction                   ... done (   0.0 sec)
Reading the grid                                   ... done
Mapping shells                                     ... done
Starting the XC term evaluation                    ... done (   0.0 sec)
  promolecular density results
     # of electrons  =     16.006196025
     EX              =    -11.376843817
     EC              =     -0.491016291
     EX+EC           =    -11.867860108
Transforming the Hamiltonian                       ... done (   0.0 sec)
Diagonalizing the Hamiltonian                      ... done (   0.0 sec)
Back transforming the eigenvectors                 ... done (   0.0 sec)
Now organizing SCF variables                       ... done
                      ------------------
                      INITIAL GUESS DONE (   0.2 sec)
                      ------------------
--------------
SCF ITERATIONS
--------------
ITER       Energy         Delta-E        Max-DP      RMS-DP      [F,P]   Gradient Norm
               ***  Starting incremental Fock matrix formation  ***
                             ****Resetting KDIIS****
                             ****Turning on KDIIS(Cayley)****
  0    -78.4692190714   0.000000000000 0.02053307  0.00183388  0.1140045   0.095559611
  1    -78.4954704045  -0.026251333060 0.01840783  0.00178147  0.0959287   0.079187125
  2    -78.5154467814  -0.019976376926 0.03010097  0.00304354  0.0782348   0.064498725
  3    -78.5398659614  -0.024419179944 0.04533714  0.00469878  0.0480246   0.039717372
  4    -78.5546667492  -0.014800787856 0.00169233  0.00022979  0.0015540   0.001253593
  5    -78.5546818235  -0.000015074308 0.00048453  0.00006532  0.0007597   0.000498596
  6    -78.5546837077  -0.000001884140 0.00028800  0.00003596  0.0003216   0.000243460
Warning: badly conditioned DIIS matrix, 1 vectors out of 5 destroyed
                          ***Energy convergence achieved***
  7    -78.5546843121  -0.000000604385 0.00004266  0.00000593  0.0000535   0.000041170
                           ***RMSP convergence achieved***
                           ***MAXP convergence achieved***
                    *** KDIIS BlockDiag ( 0.001 sec) ***

               *****************************************************
               *                     SUCCESS                       *
               *           SCF CONVERGED AFTER   8 CYCLES          *
               *****************************************************

Setting up the final grid:

General Integration Accuracy     IntAcc      ...  4.670
Radial Grid Type                 RadialGrid  ... Gauss-Chebyshev
Angular Grid (max. acc.)         AngularGrid ... Lebedev-302
Angular grid pruning method      GridPruning ... 3 (G Style)
Weight generation scheme         WeightScheme... Becke
Basis function cutoff            BFCut       ...    1.0000e-10
Integration weight cutoff        WCut        ...    1.0000e-14
Grids for H and He will be reduced by one unit

# of grid points (after initial pruning)     ...  26000 (   0.0 sec)
# of grid points (after weights+screening)   ...  25158 (   0.0 sec)
nearest neighbour list constructed           ...    0.0 sec
Grid point re-assignment to atoms done       ...    0.0 sec
Grid point division into batches done        ...    0.1 sec
Reduced shell lists constructed in    0.2 sec

Total number of grid points                  ...    25158
Total number of batches                      ...      396
Average number of points per batch           ...       63
Average number of grid points per atom       ...     4193
Average number of shells per batch           ...    16.37 (81.84%)
Average number of basis functions per batch  ...    29.93 (83.15%)
Average number of large shells per batch     ...    14.69 (89.75%)
Average number of large basis fcns per batch ...    27.44 (91.67%)
Maximum spatial batch extension              ...  18.08, 20.64, 18.89 au
Average spatial batch extension              ...   3.04,  3.22,  3.23 au

Final grid set up in    0.2 sec
Final integration                            ... done (   0.2 sec)
Change in XC energy                          ...     0.001311469
Integrated number of electrons               ...    16.000013059
Previous integrated no of electrons          ...    16.004608678

----------------
TOTAL SCF ENERGY
----------------

Total Energy       :          -78.55337286 Eh           -2137.54595 eV

Components:
Nuclear Repulsion  :           34.18574857 Eh             930.24151 eV
Electronic Energy  :         -112.73912143 Eh           -3067.78746 eV
One Electron Energy:         -171.93831113 Eh           -4678.67931 eV
Two Electron Energy:           59.19918970 Eh            1610.89185 eV

Virial components:
Potential Energy   :         -156.80077376 Eh           -4266.76597 eV
Kinetic Energy     :           78.24740090 Eh            2129.22003 eV
Virial Ratio       :            2.00391031


DFT components:
N(Alpha)           :        8.000006529532 electrons
N(Beta)            :        8.000006529532 electrons
N(Total)           :       16.000013059064 electrons
E(XC)              :       -8.316025444767 Eh       

---------------
SCF CONVERGENCE
---------------

  Last Energy change         ...   -1.8638e-08  Tolerance :   1.0000e-06
  Last MAX-Density change    ...    3.5300e-06  Tolerance :   1.0000e-05
  Last RMS-Density change    ...    3.2949e-07  Tolerance :   1.0000e-06
  Last DIIS Error            ...    1.6491e-06  Tolerance :   1.0000e-06

             **** THE GBW FILE WAS UPDATED (Scan_8.gbw) ****
             **** DENSITY FILE WAS UPDATED (Scan_8.scfp.tmp) ****
             **** ENERGY FILE WAS UPDATED (Scan_8.en.tmp) ****
----------------
ORBITAL ENERGIES
----------------

  NO   OCC          E(Eh)            E(eV) 
   0   2.0000     -10.269480      -279.4468 
   1   2.0000     -10.268213      -279.4123 
   2   2.0000      -0.883234       -24.0340 
   3   2.0000      -0.682599       -18.5744 
   4   2.0000      -0.570704       -15.5296 
   5   2.0000      -0.521645       -14.1947 
   6   2.0000      -0.437175       -11.8961 
   7   2.0000      -0.369495       -10.0545 
   8   0.0000       0.118879         3.2349 
   9   0.0000       0.220544         6.0013 
  10   0.0000       0.231852         6.3090 
  11   0.0000       0.259700         7.0668 
  12   0.0000       0.351320         9.5599 
  13   0.0000       0.439551        11.9608 
  14   0.0000       0.563051        15.3214 
  15   0.0000       0.641835        17.4652 
  16   0.0000       0.673722        18.3329 
  17   0.0000       0.752846        20.4860 
  18   0.0000       0.761225        20.7140 
  19   0.0000       0.849014        23.1028 
  20   0.0000       0.947177        25.7740 
  21   0.0000       0.998987        27.1838 
  22   0.0000       1.062845        28.9215 
  23   0.0000       1.064916        28.9778 
  24   0.0000       1.241950        33.7952 
  25   0.0000       1.335117        36.3304 
  26   0.0000       1.579484        42.9800 
  27   0.0000       1.618911        44.0528 
  28   0.0000       1.950348        53.0717 
  29   0.0000       1.973096        53.6907 
  30   0.0000       2.124772        57.8180 
  31   0.0000       2.248523        61.1854 
  32   0.0000       2.418507        65.8109 
  33   0.0000       2.538799        69.0842 
  34   0.0000       2.877925        78.3123 
  35   0.0000       2.881885        78.4201 

                    ********************************
                    * MULLIKEN POPULATION ANALYSIS *
                    ********************************

-----------------------
MULLIKEN ATOMIC CHARGES
-----------------------
   0 C :   -0.330967
   1 C :   -0.330967
   2 H :    0.165463
   3 H :    0.165504
   4 H :    0.165503
   5 H :    0.165464
Sum of atomic charges:   -0.0000000

--------------------------------
MULLIKEN REDUCED ORBITAL CHARGES
--------------------------------
  0 C s       :     3.236200  s :     3.236200
      pz      :     1.020785  p :     3.061537
      px      :     1.010261
      py      :     1.030491
      dz2     :     0.001273  d :     0.033229
      dxz     :     0.010606
      dyz     :     0.004688
      dx2y2   :     0.004331
      dxy     :     0.012332
  1 C s       :     3.236200  s :     3.236200
      pz      :     1.020785  p :     3.061537
      px      :     1.010261
      py      :     1.030491
      dz2     :     0.001273  d :     0.033229
      dxz     :     0.010606
      dyz     :     0.004688
      dx2y2   :     0.004331
      dxy     :     0.012332
  2 H s       :     0.834537  s :     0.834537
  3 H s       :     0.834496  s :     0.834496
  4 H s       :     0.834497  s :     0.834497
  5 H s       :     0.834536  s :     0.834536


                     *******************************
                     * LOEWDIN POPULATION ANALYSIS *
                     *******************************

----------------------
LOEWDIN ATOMIC CHARGES
----------------------
   0 C :   -0.269078
   1 C :   -0.269078
   2 H :    0.134544
   3 H :    0.134534
   4 H :    0.134535
   5 H :    0.134543

-------------------------------
LOEWDIN REDUCED ORBITAL CHARGES
-------------------------------
  0 C s       :     2.967873  s :     2.967873
      pz      :     1.037164  p :     3.227463
      px      :     1.135151
      py      :     1.055148
      dz2     :     0.004099  d :     0.073742
      dxz     :     0.022317
      dyz     :     0.006613
      dx2y2   :     0.014127
      dxy     :     0.026586
  1 C s       :     2.967873  s :     2.967873
      pz      :     1.037164  p :     3.227462
      px      :     1.135151
      py      :     1.055148
      dz2     :     0.004099  d :     0.073742
      dxz     :     0.022317
      dyz     :     0.006613
      dx2y2   :     0.014127
      dxy     :     0.026586
  2 H s       :     0.865456  s :     0.865456
  3 H s       :     0.865466  s :     0.865466
  4 H s       :     0.865465  s :     0.865465
  5 H s       :     0.865457  s :     0.865457


                      *****************************
                      * MAYER POPULATION ANALYSIS *
                      *****************************

  NA   - Mulliken gross atomic population
  ZA   - Total nuclear charge
  QA   - Mulliken gross atomic charge
  VA   - Mayer's total valence
  BVA  - Mayer's bonded valence
  FA   - Mayer's free valence

  ATOM       NA         ZA         QA         VA         BVA        FA
  0 C      6.3310     6.0000    -0.3310     3.9029     3.9029    -0.0000
  1 C      6.3310     6.0000    -0.3310     3.9029     3.9029    -0.0000
  2 H      0.8345     1.0000     0.1655     0.9376     0.9376    -0.0000
  3 H      0.8345     1.0000     0.1655     0.9376     0.9376     0.0000
  4 H      0.8345     1.0000     0.1655     0.9376     0.9376    -0.0000
  5 H      0.8345     1.0000     0.1655     0.9376     0.9376     0.0000

  Mayer bond orders larger than 0.1
B(  0-C ,  1-C ) :   2.0312 B(  0-C ,  2-H ) :   0.9462 B(  0-C ,  3-H ) :   0.9462 
B(  1-C ,  4-H ) :   0.9462 B(  1-C ,  5-H ) :   0.9462 

-------
TIMINGS
-------

Total SCF time: 0 days 0 hours 0 min 3 sec 

Total time                  ....       3.535 sec
Sum of individual times     ....       3.385 sec  ( 95.8%)

Fock matrix formation       ....       2.948 sec  ( 83.4%)
  XC integration            ....       0.895 sec  ( 30.4% of F)
    Basis function eval.    ....       0.361 sec  ( 40.4% of XC)
    Density eval.           ....       0.042 sec  (  4.7% of XC)
    XC-Functional eval.     ....       0.232 sec  ( 25.9% of XC)
    XC-Potential eval.      ....       0.047 sec  (  5.3% of XC)
Diagonalization             ....       0.006 sec  (  0.2%)
Density matrix formation    ....       0.000 sec  (  0.0%)
Population analysis         ....       0.014 sec  (  0.4%)
Initial guess               ....       0.142 sec  (  4.0%)
Orbital Transformation      ....       0.000 sec  (  0.0%)
Orbital Orthonormalization  ....       0.000 sec  (  0.0%)
DIIS solution               ....       0.000 sec  (  0.0%)
Grid generation             ....       0.275 sec  (  7.8%)


-------------------------------------------------------------------------------
                          DFT DISPERSION CORRECTION                            
                                                                               
                              DFTD3 V3.1  Rev 1                                
                              USING zero damping                               
-------------------------------------------------------------------------------
The omegaB97X-D3 functional is recognized. Fit by Chai et al.
Active option DFTDOPT                   ...         3   

molecular C6(AA) [au] = 294.400846 


            DFT-D V3
 parameters
 s6 scaling factor         :     1.0000 
 rs6 scaling factor        :     1.2810 
 s8 scaling factor         :     1.0000 
 rs8 scaling factor        :     1.0940 
 Damping factor alpha6     :    14.0000 
 Damping factor alpha8     :    16.0000 
 ad hoc parameters k1-k3   :    16.0000     1.3333    -4.0000 

 Edisp/kcal,au: -0.156029144556  -0.000248648243 
 E6   /kcal   :  -0.051761452 
 E8   /kcal   :  -0.104267693 
 % E8         :  66.825779997 

-------------------------   ----------------
Dispersion correction           -0.000248648
-------------------------   ----------------


-------------------------   --------------------
FINAL SINGLE POINT ENERGY       -78.553621510132
-------------------------   --------------------


                            ***************************************
                            *     ORCA property calculations      *
                            ***************************************

                                    ---------------------
                                    Active property flags
                                    ---------------------
   (+) Dipole Moment


------------------------------------------------------------------------------
                       ORCA ELECTRIC PROPERTIES CALCULATION
------------------------------------------------------------------------------

Dipole Moment Calculation                       ... on
Quadrupole Moment Calculation                   ... off
Polarizability Calculation                      ... off
GBWName                                         ... Scan_8.gbw
Electron density file                           ... Scan_8.scfp.tmp

-------------
DIPOLE MOMENT
-------------
                                X             Y             Z
Electronic contribution:     -0.00000       0.00026      -0.00031
Nuclear contribution   :      0.00000      -0.00039       0.00046
                        -----------------------------------------
Total Dipole Moment    :      0.00000      -0.00013       0.00015
                        -----------------------------------------
Magnitude (a.u.)       :      0.00020
Magnitude (Debye)      :      0.00052


Timings for individual modules:

Sum of individual times         ...        3.869 sec (=   0.064 min)
GTO integral calculation        ...        0.301 sec (=   0.005 min)   7.8 %
SCF iterations                  ...        3.569 sec (=   0.059 min)  92.2 %
                             ****ORCA TERMINATED NORMALLY****
TOTAL RUN TIME: 0 days 0 hours 0 minutes 4 seconds 189 msec
