
                                 *****************
                                 * O   R   C   A *
                                 *****************

           --- An Ab Initio, DFT and Semiempirical electronic structure package ---

                  #######################################################
                  #                        -***-                        #
                  #          Department of theory and spectroscopy      #
                  #               Directorship: Frank Neese             #
                  #        Max Planck Institute fuer Kohlenforschung    #
                  #                Kaiser Wilhelm Platz 1               #
                  #                 D-45470 Muelheim/Ruhr               #
                  #                      Germany                        #
                  #                                                     #
                  #                  All rights reserved                #
                  #                        -***-                        #
                  #######################################################


                         Program Version 4.2.0 -  RELEASE  -


 With contributions from (in alphabetic order):
   Daniel Aravena         : Magnetic Suceptibility
   Michael Atanasov       : Ab Initio Ligand Field Theory (pilot matlab implementation)
   Alexander A. Auer      : GIAO ZORA, VPT2
   Ute Becker             : Parallelization
   Giovanni Bistoni       : ED, misc. LED, open-shell LED, HFLED
   Martin Brehm           : Molecular dynamics
   Dmytro Bykov           : SCF Hessian
   Vijay G. Chilkuri      : MRCI spin determinant printing, contributions to CSF-ICE
   Dipayan Datta          : RHF DLPNO-CCSD density
   Achintya Kumar Dutta   : EOM-CC, STEOM-CC
   Dmitry Ganyushin       : Spin-Orbit,Spin-Spin,Magnetic field MRCI
   Miquel Garcia          : C-PCM Hessian, Gaussian charge scheme
   Yang Guo               : DLPNO-NEVPT2, CIM, IAO-localization
   Andreas Hansen         : Spin unrestricted coupled pair/coupled cluster methods
   Benjamin Helmich-Paris : CASSCF linear response (MC-RPA)
   Lee Huntington         : MR-EOM, pCC
   Robert Izsak           : Overlap fitted RIJCOSX, COSX-SCS-MP3, EOM
   Christian Kollmar      : KDIIS, OOCD, Brueckner-CCSD(T), CCSD density
   Simone Kossmann        : Meta GGA functionals, TD-DFT gradient, OOMP2, MP2 Hessian
   Martin Krupicka        : AUTO-CI
   Lucas Lang             : DCDCAS
   Dagmar Lenk            : GEPOL surface, SMD
   Dimitrios Liakos       : Extrapolation schemes; Compound Job, initial MDCI parallelization
   Dimitrios Manganas     : Further ROCIS development; embedding schemes
   Dimitrios Pantazis     : SARC Basis sets
   Taras Petrenko         : DFT Hessian,TD-DFT gradient, ASA, ECA, R-Raman, ABS, FL, XAS/XES, NRVS
   Peter Pinski           : DLPNO-MP2, DLPNO-MP2 Gradient
   Christoph Reimann      : Effective Core Potentials
   Marius Retegan         : Local ZFS, SOC
   Christoph Riplinger    : Optimizer, TS searches, QM/MM, DLPNO-CCSD(T), (RO)-DLPNO pert. Triples
   Tobias Risthaus        : Range-separated hybrids, TD-DFT gradient, RPA, STAB
   Michael Roemelt        : Original ROCIS implementation
   Masaaki Saitow         : Open-shell DLPNO-CCSD energy and density
   Barbara Sandhoefer     : DKH picture change effects
   Avijit Sen             : IP-ROCIS
   Kantharuban Sivalingam : CASSCF convergence, NEVPT2, FIC-MRCI
   Bernardo de Souza      : ESD, SOC TD-DFT
   Georgi Stoychev        : AutoAux, RI-MP2 NMR
   Willem Van den Heuvel  : Paramagnetic NMR
   Boris Wezisla          : Elementary symmetry handling
   Frank Wennmohs         : Technical directorship


 We gratefully acknowledge several colleagues who have allowed us to
 interface, adapt or use parts of their codes:
   Stefan Grimme, W. Hujo, H. Kruse,             : VdW corrections, initial TS optimization,
                  C. Bannwarth                     DFT functionals, gCP, sTDA/sTD-DF
   Ed Valeev, F. Pavosevic, A. Kumar             : LibInt (2-el integral package), F12 methods
   Garnet Chan, S. Sharma, J. Yang, R. Olivares  : DMRG
   Ulf Ekstrom                                   : XCFun DFT Library
   Mihaly Kallay                                 : mrcc  (arbitrary order and MRCC methods)
   Andreas Klamt, Michael Diedenhofen            : otool_cosmo (COSMO solvation model)
   Jiri Pittner, Ondrej Demel                    : Mk-CCSD
   Frank Weinhold                                : gennbo (NPA and NBO analysis)
   Christopher J. Cramer and Donald G. Truhlar   : smd solvation model
   Lars Goerigk                                  : TD-DFT with DH, B97 family of functionals
   V. Asgeirsson, H. Jonsson                     : NEB implementation
   FAccTs GmbH                                   : IRC, NEB, NEB-TS, Multilevel, MM, QM/MM, CI optimization
   S Lehtola, MJT Oliveira, MAL Marques          : LibXC Library


 Your calculation uses the libint2 library for the computation of 2-el integrals
 For citations please refer to: http://libint.valeyev.net

 Your ORCA version has been built with support for libXC version: 4.2.3
 For citations please refer to: https://tddft.org/programs/libxc/

 This ORCA versions uses:
   CBLAS   interface :  Fast vector & matrix operations
   LAPACKE interface :  Fast linear algebra routines
   SCALAPACK package :  Parallel linear algebra routines


XCFun DFT library Copyright 2009-2010 Ulf Ekstrom and contributors.
See http://admol.org/xcfun for more information. This is free soft-
ware; see the source code for copying conditions. There is ABSOLUTELY
NO WARRANTY; not even for MERCHANTABILITY or FITNESS FOR A PARTICULAR
PURPOSE. For details see the documentation. Scientific users of this 
library should cite U. Ekstrom, L. Visscher, R. Bast, A. J. Thorvald-
sen and K. Ruud; J.Chem.Theor.Comp. 2010, DOI: 10.1021/ct100117s
XCFun Version 0.99 
----- Orbital basis set information -----
Your calculation utilizes the basis: 6-31G(d)
   H-He, Li-Ne : W. J. Hehre, R. Ditchfield and J.A. Pople, J. Chem. Phys. 56, 2257 (1972).
                 Note: He and Ne are unpublished basis sets taken from the Gaussian program.
                 Note: Li and B from J. D. Dill and J. A. Pople, J. Chem. Phys. 62, 2921 (1975).
   Na - Ar     : M. M. Francl, W. J. Pietro, W. J. Hehre, J. S. Binkley, M. S. Gordon, 
                 D. J. DeFrees and J. A. Pople, J. Chem. Phys. 77, 3654 (1982).
   K - Zn      : V. A. Rassolov, J. A. Pople, M. A. Ratner, and T. L. Windus, J. Chem. Phys. 109, 1223 (1998).

================================================================================
                                        WARNINGS
                       Please study these warnings very carefully!
================================================================================


WARNING: Geometry Optimization
  ===> : Switching off AutoStart
         For restart on a previous wavefunction, please use MOREAD

INFO   : the flag for use of LIBINT has been found!

================================================================================
                                       INPUT FILE
================================================================================
NAME = ala-ala.inp
|  1> # ORCA input file
|  2> # energy: -37.029572824365 gnorm: 0.000913467098 xtb: 6.2.3 (conda-forge)
|  3> ! RKS wB97x 6-31g(d) TightSCF Grid4 Opt
|  4> * xyz 0 1
|  5>    N       -0.08438         1.08866         0.20833
|  6>    C        1.04938         0.17838         0.09990
|  7>    C        1.75339         0.07378         1.45228
|  8>    O        2.89349        -0.36275         1.57159
|  9>    H        0.24753         2.04924         0.22404
| 10>    H        0.64906        -0.82333        -0.10518
| 11>    C        2.06218         0.54346        -0.98909
| 12>    H        1.60415         0.48180        -1.97391
| 13>    H        2.43083         1.55650        -0.83287
| 14>    H        2.90585        -0.13920        -0.94472
| 15>    H       -0.69027         0.99354        -0.59876
| 16>    N        1.01110         0.46613         2.49071
| 17>    C        1.50828         0.57326         3.85428
| 18>    C        1.68607        -0.83068         4.49118
| 19>    O        1.08194        -1.17292         5.46758
| 20>    H        0.06824         0.77302         2.28904
| 21>    H        2.51038         1.02738         3.81218
| 22>    C        0.56420         1.42940         4.68092
| 23>    H        0.43408         2.40764         4.22442
| 24>    H       -0.40052         0.93586         4.76797
| 25>    H        0.96678         1.55472         5.68157
| 26>    O        2.56957        -1.60017         3.88344
| 27>    H        2.92457        -1.19110         3.04630
| 28> *
| 29> 
| 30>                          ****END OF INPUT****
================================================================================

                       *****************************
                       * Geometry Optimization Run *
                       *****************************

Geometry optimization settings:
Update method            Update   .... BFGS
Choice of coordinates    CoordSys .... Z-matrix Internals
Initial Hessian          InHess   .... Almoef's Model

Convergence Tolerances:
Energy Change            TolE     ....  5.0000e-06 Eh
Max. Gradient            TolMAXG  ....  3.0000e-04 Eh/bohr
RMS Gradient             TolRMSG  ....  1.0000e-04 Eh/bohr
Max. Displacement        TolMAXD  ....  4.0000e-03 bohr
RMS Displacement         TolRMSD  ....  2.0000e-03 bohr
Strict Convergence                ....  False
------------------------------------------------------------------------------
                        ORCA OPTIMIZATION COORDINATE SETUP
------------------------------------------------------------------------------

The optimization will be done in new redundant internal coordinates
Making redundant internal coordinates   ...  (new redundants) done
Evaluating the initial hessian          ...  (Almloef) done
Evaluating the coordinates              ...  done
Calculating the B-matrix                .... done
Calculating the G-matrix                .... done
Diagonalizing the G-matrix              .... done
Small eigenvalue found = 1.105e-02
The first mode is                       ....   44
The number of degrees of freedom        ....   63

    -----------------------------------------------------------------
                    Redundant Internal Coordinates


    -----------------------------------------------------------------
         Definition                    Initial Value    Approx d2E/dq
    -----------------------------------------------------------------
      1. B(C   1,N   0)                  1.4580         0.435891   
      2. B(C   2,C   1)                  1.5282         0.376005   
      3. B(O   3,C   2)                  1.2266         1.019816   
      4. B(H   4,N   0)                  1.0164         0.422610   
      5. B(H   5,C   1)                  1.0981         0.349593   
      6. B(C   6,C   1)                  1.5313         0.371765   
      7. B(H   7,C   6)                  1.0879         0.362927   
      8. B(H   8,C   6)                  1.0893         0.361038   
      9. B(H   9,C   6)                  1.0862         0.365198   
     10. B(H  10,N   0)                  1.0137         0.426899   
     11. B(N  11,C   2)                  1.3354         0.683912   
     12. B(C  12,N  11)                  1.4553         0.440194   
     13. B(C  13,C  12)                  1.5519         0.344736   
     14. B(O  14,C  13)                  1.1981         1.132478   
     15. B(H  15,N  11)                  1.0118         0.429780   
     16. B(H  16,C  12)                  1.1010         0.345838   
     17. B(C  17,C  12)                  1.5191         0.388869   
     18. B(H  18,C  17)                  1.0873         0.363655   
     19. B(H  19,C  17)                  1.0871         0.363921   
     20. B(H  20,C  17)                  1.0859         0.365628   
     21. B(O  21,C  13)                  1.3199         0.724063   
     22. B(H  22,O  21)                  0.9971         0.453743   
     23. A(H   4,N   0,H  10)          107.2276         0.301464   
     24. A(C   1,N   0,H  10)          110.3034         0.337239   
     25. A(C   1,N   0,H   4)          109.7096         0.336672   
     26. A(N   0,C   1,C   2)          109.5812         0.371177   
     27. A(N   0,C   1,C   6)          114.7301         0.370453   
     28. A(C   2,C   1,H   5)          105.7108         0.323090   
     29. A(C   2,C   1,C   6)          109.9347         0.363453   
     30. A(N   0,C   1,H   5)          107.4544         0.329061   
     31. A(H   5,C   1,C   6)          109.0137         0.322490   
     32. A(C   1,C   2,N  11)          114.3283         0.401462   
     33. A(O   3,C   2,N  11)          123.0637         0.477408   
     34. A(C   1,C   2,O   3)          122.5886         0.431036   
     35. A(H   8,C   6,H   9)          108.4076         0.291602   
     36. A(H   7,C   6,H   9)          109.1710         0.291841   
     37. A(C   1,C   6,H   9)          109.5625         0.324809   
     38. A(H   7,C   6,H   8)          108.9675         0.291316   
     39. A(C   1,C   6,H   8)          110.0943         0.324199   
     40. A(C   1,C   6,H   7)          110.5974         0.324477   
     41. A(C  12,N  11,H  15)          118.8652         0.338170   
     42. A(C   2,N  11,H  15)          116.8775         0.364300   
     43. A(C   2,N  11,C  12)          124.0782         0.410146   
     44. A(H  16,C  12,C  17)          110.7324         0.324304   
     45. A(N  11,C  12,C  17)          109.8180         0.373966   
     46. A(C  13,C  12,H  16)          106.5327         0.317975   
     47. A(N  11,C  12,H  16)          107.7867         0.329008   
     48. A(C  13,C  12,C  17)          110.9612         0.360866   
     49. A(N  11,C  12,C  13)          110.9207         0.366301   
     50. A(C  12,C  13,O  14)          122.3518         0.432430   
     51. A(O  14,C  13,O  21)          123.1098         0.491899   
     52. A(C  12,C  13,O  21)          114.5286         0.399364   
     53. A(H  18,C  17,H  19)          109.6250         0.291773   
     54. A(C  12,C  17,H  19)          109.8292         0.327034   
     55. A(C  12,C  17,H  18)          110.6684         0.326994   
     56. A(H  19,C  17,H  20)          107.9152         0.292021   
     57. A(H  18,C  17,H  20)          109.1128         0.291988   
     58. A(C  12,C  17,H  20)          109.6397         0.327286   
     59. A(C  13,O  21,H  22)          112.6894         0.371324   
     60. D(C   6,C   1,N   0,H  10)     69.8332         0.016200   
     61. D(C   2,C   1,N   0,H  10)   -165.9551         0.016200   
     62. D(H   5,C   1,N   0,H   4)   -169.4575         0.016200   
     63. D(C   6,C   1,N   0,H   4)    -48.0701         0.016200   
     64. D(C   2,C   1,N   0,H   4)     76.1416         0.016200   
     65. D(H   5,C   1,N   0,H  10)    -51.5542         0.016200   
     66. D(O   3,C   2,C   1,N   0)   -162.5260         0.010564   
     67. D(N  11,C   2,C   1,C   6)    145.9976         0.010564   
     68. D(N  11,C   2,C   1,N   0)     19.0321         0.010564   
     69. D(N  11,C   2,C   1,H   5)    -96.4844         0.010564   
     70. D(O   3,C   2,C   1,C   6)    -35.5605         0.010564   
     71. D(O   3,C   2,C   1,H   5)     81.9575         0.010564   
     72. D(H   7,C   6,C   1,H   5)     56.4671         0.011042   
     73. D(H   7,C   6,C   1,C   2)    171.9118         0.011042   
     74. D(H   7,C   6,C   1,N   0)    -64.0639         0.011042   
     75. D(H   9,C   6,C   1,H   5)    -63.9209         0.011042   
     76. D(H   9,C   6,C   1,C   2)     51.5238         0.011042   
     77. D(H   9,C   6,C   1,N   0)    175.5481         0.011042   
     78. D(H   8,C   6,C   1,H   5)    176.9461         0.011042   
     79. D(H   8,C   6,C   1,C   2)    -67.6092         0.011042   
     80. D(H   8,C   6,C   1,N   0)     56.4151         0.011042   
     81. D(H  15,N  11,C   2,O   3)   -177.4017         0.038530   
     82. D(H  15,N  11,C   2,C   1)      1.0318         0.038530   
     83. D(C  12,N  11,C   2,C   1)   -174.0361         0.038530   
     84. D(C  12,N  11,C   2,O   3)      7.5304         0.038530   
     85. D(C  17,C  12,N  11,C   2)    162.7669         0.016523   
     86. D(H  16,C  12,N  11,H  15)   -132.9261         0.016523   
     87. D(H  16,C  12,N  11,C   2)     42.0503         0.016523   
     88. D(C  13,C  12,N  11,H  15)    110.8055         0.016523   
     89. D(C  17,C  12,N  11,H  15)    -12.2095         0.016523   
     90. D(C  13,C  12,N  11,C   2)    -74.2182         0.016523   
     91. D(O  21,C  13,C  12,C  17)   -175.2625         0.009005   
     92. D(O  21,C  13,C  12,H  16)    -54.6550         0.009005   
     93. D(O  21,C  13,C  12,N  11)     62.3848         0.009005   
     94. D(O  14,C  13,C  12,C  17)      3.6306         0.009005   
     95. D(O  14,C  13,C  12,H  16)    124.2381         0.009005   
     96. D(O  14,C  13,C  12,N  11)   -118.7220         0.009005   
     97. D(H  20,C  17,C  12,H  16)    -57.8448         0.012025   
     98. D(H  20,C  17,C  12,C  13)     60.2436         0.012025   
     99. D(H  20,C  17,C  12,N  11)   -176.7653         0.012025   
    100. D(H  19,C  17,C  12,H  16)   -176.2615         0.012025   
    101. D(H  19,C  17,C  12,C  13)    -58.1731         0.012025   
    102. D(H  19,C  17,C  12,N  11)     64.8180         0.012025   
    103. D(H  18,C  17,C  12,H  16)     62.5657         0.012025   
    104. D(H  18,C  17,C  12,C  13)   -179.3459         0.012025   
    105. D(H  18,C  17,C  12,N  11)    -56.3549         0.012025   
    106. D(H  22,O  21,C  13,O  14)    175.3380         0.039524   
    107. D(H  22,O  21,C  13,C  12)     -5.7783         0.039524   
    -----------------------------------------------------------------

Number of atoms                         .... 23
Number of degrees of freedom            .... 107

         *************************************************************
         *                GEOMETRY OPTIMIZATION CYCLE   1            *
         *************************************************************
---------------------------------
CARTESIAN COORDINATES (ANGSTROEM)
---------------------------------
  N     -0.084380    1.088660    0.208330
  C      1.049380    0.178380    0.099900
  C      1.753390    0.073780    1.452280
  O      2.893490   -0.362750    1.571590
  H      0.247530    2.049240    0.224040
  H      0.649060   -0.823330   -0.105180
  C      2.062180    0.543460   -0.989090
  H      1.604150    0.481800   -1.973910
  H      2.430830    1.556500   -0.832870
  H      2.905850   -0.139200   -0.944720
  H     -0.690270    0.993540   -0.598760
  N      1.011100    0.466130    2.490710
  C      1.508280    0.573260    3.854280
  C      1.686070   -0.830680    4.491180
  O      1.081940   -1.172920    5.467580
  H      0.068240    0.773020    2.289040
  H      2.510380    1.027380    3.812180
  C      0.564200    1.429400    4.680920
  H      0.434080    2.407640    4.224420
  H     -0.400520    0.935860    4.767970
  H      0.966780    1.554720    5.681570
  O      2.569570   -1.600170    3.883440
  H      2.924570   -1.191100    3.046300

----------------------------
CARTESIAN COORDINATES (A.U.)
----------------------------
  NO LB      ZA    FRAG     MASS         X           Y           Z
   0 N     7.0000    0    14.007   -0.159455    2.057269    0.393687
   1 C     6.0000    0    12.011    1.983041    0.337089    0.188784
   2 C     6.0000    0    12.011    3.313427    0.139424    2.744411
   3 O     8.0000    0    15.999    5.467904   -0.685498    2.969875
   4 H     1.0000    0     1.008    0.467764    3.872502    0.423374
   5 H     1.0000    0     1.008    1.226546   -1.555868   -0.198761
   6 C     6.0000    0    12.011    3.896955    1.026991   -1.869109
   7 H     1.0000    0     1.008    3.031404    0.910470   -3.730149
   8 H     1.0000    0     1.008    4.593603    2.941359   -1.573896
   9 H     1.0000    0     1.008    5.491261   -0.263050   -1.785262
  10 H     1.0000    0     1.008   -1.304421    1.877519   -1.131492
  11 N     7.0000    0    14.007    1.910702    0.880858    4.706760
  12 C     6.0000    0    12.011    2.850236    1.083304    7.283534
  13 C     6.0000    0    12.011    3.186211   -1.569758    8.487100
  14 O     8.0000    0    15.999    2.044570   -2.216498   10.332229
  15 H     1.0000    0     1.008    0.128955    1.460796    4.325659
  16 H     1.0000    0     1.008    4.743931    1.941467    7.203976
  17 C     6.0000    0    12.011    1.066183    2.701175    8.845657
  18 H     1.0000    0     1.008    0.820292    4.549780    7.982997
  19 H     1.0000    0     1.008   -0.756873    1.768519    9.010158
  20 H     1.0000    0     1.008    1.826949    2.937995   10.736611
  21 O     8.0000    0    15.999    4.855784   -3.023883    7.338638
  22 H     1.0000    0     1.008    5.526636   -2.250853    5.756673

--------------------------------
INTERNAL COORDINATES (ANGSTROEM)
--------------------------------
 N      0   0   0     0.000000000000     0.00000000     0.00000000
 C      1   0   0     1.458004966007     0.00000000     0.00000000
 C      2   1   0     1.528235225513   109.58117934     0.00000000
 O      3   2   1     1.226630069336   122.58863571   197.47403608
 H      1   2   3     1.016427561905   109.70958626    76.14157487
 H      2   1   3     1.098060486904   107.45435078   114.40090601
 C      2   1   3     1.531321803704   114.73008664   235.78829156
 H      7   2   1     1.087871255664   110.59739888   295.93608355
 H      7   2   1     1.089292225484   110.09427253    56.41513310
 H      7   2   1     1.086173301734   109.56251677   175.54809241
 H      1   2   3     1.013678832077   110.30339459   194.04492184
 N      3   2   1     1.335391265323   114.32826226    19.03211249
 C     12   3   2     1.455330867604   124.07816486   185.96392726
 C     13  12   3     1.551869330098   110.92065198   285.78181489
 O     14  13  12     1.198106103190   122.35184905   241.27800119
 H     12   3   2     1.011848427681   116.87754778     1.03183573
 H     13  12   3     1.101000360763   107.78670624    42.05026629
 C     13  12   3     1.519077494929   109.81800786   162.76686736
 H     18  13  12     1.087325600729   110.66838204   303.64511577
 H     18  13  12     1.087126539323   109.82916143    64.81797970
 H     18  13  12     1.085852743838   109.63966223   183.23466918
 O     14  13  12     1.319861741888   114.52856117    62.38484720
 H     22  14  13     0.997079056294   112.68942105   354.22167400

---------------------------
INTERNAL COORDINATES (A.U.)
---------------------------
 N      0   0   0     0.000000000000     0.00000000     0.00000000
 C      1   0   0     2.755230087650     0.00000000     0.00000000
 C      2   1   0     2.887946044432   109.58117934     0.00000000
 O      3   2   1     2.317994898678   122.58863571   197.47403608
 H      1   2   3     1.920769726970   109.70958626    76.14157487
 H      2   1   3     2.075033598729   107.45435078   114.40090601
 C      2   1   3     2.893778831903   114.73008664   235.78829156
 H      7   2   1     2.055778742170   110.59739888   295.93608355
 H      7   2   1     2.058463985974   110.09427253    56.41513310
 H      7   2   1     2.052570074254   109.56251677   175.54809241
 H      1   2   3     1.915575380378   110.30339459   194.04492184
 N      3   2   1     2.523523773090   114.32826226    19.03211249
 C     12   3   2     2.750176774013   124.07816486   185.96392726
 C     13  12   3     2.932608029518   110.92065198   285.78181489
 O     14  13  12     2.264092414408   122.35184905   241.27800119
 H     12   3   2     1.912116417355   116.87754778     1.03183573
 H     13  12   3     2.080589155190   107.78670624    42.05026629
 C     13  12   3     2.870640441619   109.81800786   162.76686736
 H     18  13  12     2.054747603779   110.66838204   303.64511577
 H     18  13  12     2.054371432238   109.82916143    64.81797970
 H     18  13  12     2.051964307620   109.63966223   183.23466918
 O     14  13  12     2.494177226809   114.52856117    62.38484720
 H     22  14  13     1.884206350264   112.68942105   354.22167400

---------------------
BASIS SET INFORMATION
---------------------
There are 4 groups of distinct atoms

 Group   1 Type N   : 10s4p1d contracted to 3s2p1d pattern {631/31/1}
 Group   2 Type C   : 10s4p1d contracted to 3s2p1d pattern {631/31/1}
 Group   3 Type O   : 10s4p1d contracted to 3s2p1d pattern {631/31/1}
 Group   4 Type H   : 4s contracted to 2s pattern {31}

Atom   0N    basis set group =>   1
Atom   1C    basis set group =>   2
Atom   2C    basis set group =>   2
Atom   3O    basis set group =>   3
Atom   4H    basis set group =>   4
Atom   5H    basis set group =>   4
Atom   6C    basis set group =>   2
Atom   7H    basis set group =>   4
Atom   8H    basis set group =>   4
Atom   9H    basis set group =>   4
Atom  10H    basis set group =>   4
Atom  11N    basis set group =>   1
Atom  12C    basis set group =>   2
Atom  13C    basis set group =>   2
Atom  14O    basis set group =>   3
Atom  15H    basis set group =>   4
Atom  16H    basis set group =>   4
Atom  17C    basis set group =>   2
Atom  18H    basis set group =>   4
Atom  19H    basis set group =>   4
Atom  20H    basis set group =>   4
Atom  21O    basis set group =>   3
Atom  22H    basis set group =>   4
------------------------------------------------------------------------------
                           ORCA GTO INTEGRAL CALCULATION
------------------------------------------------------------------------------

                         BASIS SET STATISTICS AND STARTUP INFO

 # of primitive gaussian shells          ...  213
 # of primitive gaussian functions       ...  345
 # of contracted shells                  ...   90
 # of contracted basis functions         ...  178
 Highest angular momentum                ...    2
 Maximum contraction depth               ...    6
 Integral package used                   ... LIBINT
 Integral threshhold            Thresh   ...  2.500e-11
 Primitive cut-off              TCut     ...  2.500e-12


------------------------------ INTEGRAL EVALUATION ----------------------------


 * One electron integrals 
 Pre-screening matrix                    ... done
 Shell pair data                         ... done (   0.001 sec)

-------------------------------------------------------------------------------
                                 ORCA SCF
-------------------------------------------------------------------------------

------------
SCF SETTINGS
------------
Hamiltonian:
 Density Functional     Method          .... DFT(GTOs)
 Exchange Functional    Exchange        .... WB97X
 Correlation Functional Correlation     .... WB97X
 Gradients option       PostSCFGGA      .... off
 Hybrid DFT is turned on
   Fraction HF Exchange ScalHFX         ....  0.157706
   Scaling of DF-GGA-X  ScalDFX         ....  0.000000
   Scaling of DF-GGA-C  ScalDFC         ....  1.000000
   Scaling of DF-LDA-C  ScalLDAC        ....  1.000000
   Perturbative correction              ....  0.000000
   Density functional embedding theory  .... OFF
 Long-range corrected/Screened/Range-Separated Hybrid DFT is turned on
   Amount of maximum screened exact exchange              ....  0.842294
   Range separation parameter mu (erf(mu*r12)/r12)        ....  0.300000


General Settings:
 Integral files         IntName         .... ala-ala
 Hartree-Fock type      HFTyp           .... RHF
 Total Charge           Charge          ....    0
 Multiplicity           Mult            ....    1
 Number of Electrons    NEL             ....   86
 Basis Dimension        Dim             ....  178
 Nuclear Repulsion      ENuc            ....    664.4890553838 Eh

Convergence Acceleration:
 DIIS                   CNVDIIS         .... on
   Start iteration      DIISMaxIt       ....    12
   Startup error        DIISStart       ....  0.200000
   # of expansion vecs  DIISMaxEq       ....     5
   Bias factor          DIISBfac        ....   1.050
   Max. coefficient     DIISMaxC        ....  10.000
 Newton-Raphson         CNVNR           .... off
 SOSCF                  CNVSOSCF        .... on
   Start iteration      SOSCFMaxIt      ....   150
   Startup grad/error   SOSCFStart      ....  0.003300
 Level Shifting         CNVShift        .... on
   Level shift para.    LevelShift      ....    0.2500
   Turn off err/grad.   ShiftErr        ....    0.0010
 Zerner damping         CNVZerner       .... off
 Static damping         CNVDamp         .... on
   Fraction old density DampFac         ....    0.7000
   Max. Damping (<1)    DampMax         ....    0.9800
   Min. Damping (>=0)   DampMin         ....    0.0000
   Turn off err/grad.   DampErr         ....    0.1000
 Fernandez-Rico         CNVRico         .... off

SCF Procedure:
 Maximum # iterations   MaxIter         ....   125
 SCF integral mode      SCFMode         .... Direct
   Integral package                     .... LIBINT
 Reset frequency        DirectResetFreq ....    20
 Integral Threshold     Thresh          ....  2.500e-11 Eh
 Primitive CutOff       TCut            ....  2.500e-12 Eh

Convergence Tolerance:
 Convergence Check Mode ConvCheckMode   .... Total+1el-Energy
 Convergence forced     ConvForced      .... 0
 Energy Change          TolE            ....  1.000e-08 Eh
 1-El. energy change                    ....  1.000e-05 Eh
 Orbital Gradient       TolG            ....  1.000e-05
 Orbital Rotation angle TolX            ....  1.000e-05
 DIIS Error             TolErr          ....  5.000e-07


Diagonalization of the overlap matrix:
Smallest eigenvalue                        ... 2.490e-03
Time for diagonalization                   ...    0.006 sec
Threshold for overlap eigenvalues          ... 1.000e-08
Number of eigenvalues below threshold      ... 0
Time for construction of square roots      ...    0.001 sec
Total time needed                          ...    0.007 sec

-------------------
DFT GRID GENERATION
-------------------

General Integration Accuracy     IntAcc      ...  4.670
Radial Grid Type                 RadialGrid  ... Gauss-Chebyshev
Angular Grid (max. acc.)         AngularGrid ... Lebedev-302
Angular grid pruning method      GridPruning ... 3 (G Style)
Weight generation scheme         WeightScheme... Becke
Basis function cutoff            BFCut       ...    1.0000e-11
Integration weight cutoff        WCut        ...    1.0000e-14
Grids for H and He will be reduced by one unit

# of grid points (after initial pruning)     ... 109060 (   0.1 sec)
# of grid points (after weights+screening)   ...  97870 (   0.4 sec)
nearest neighbour list constructed           ...    0.0 sec
Grid point re-assignment to atoms done       ...    0.0 sec
Grid point division into batches done        ...    0.3 sec
Reduced shell lists constructed in    1.0 sec

Total number of grid points                  ...    97870
Total number of batches                      ...     1540
Average number of points per batch           ...       63
Average number of grid points per atom       ...     4255
Average number of shells per batch           ...    52.43 (58.26%)
Average number of basis functions per batch  ...   104.53 (58.73%)
Average number of large shells per batch     ...    37.13 (70.81%)
Average number of large basis fcns per batch ...    74.43 (71.21%)
Maximum spatial batch extension              ...  19.49, 21.07, 18.86 au
Average spatial batch extension              ...   2.37,  2.35,  2.22 au

Time for grid setup =    1.399 sec

------------------------------
INITIAL GUESS: MODEL POTENTIAL
------------------------------
Loading Hartree-Fock densities                     ... done
Calculating cut-offs                               ... done
Setting up the integral package                    ... done
Initializing the effective Hamiltonian             ... done
Starting the Coulomb interaction                   ... done (   0.2 sec)
Reading the grid                                   ... done
Mapping shells                                     ... done
Starting the XC term evaluation                    ... done (   0.9 sec)
  promolecular density results
     # of electrons  =     85.994144294
     EX              =    -71.826595636
     EC              =     -2.887760295
     EX+EC           =    -74.714355931
Transforming the Hamiltonian                       ... done (   0.0 sec)
Diagonalizing the Hamiltonian                      ... done (   0.0 sec)
Back transforming the eigenvectors                 ... done (   0.0 sec)
Now organizing SCF variables                       ... done
                      ------------------
                      INITIAL GUESS DONE (   2.6 sec)
                      ------------------
--------------
SCF ITERATIONS
--------------
ITER       Energy         Delta-E        Max-DP      RMS-DP      [F,P]     Damp
               ***  Starting incremental Fock matrix formation  ***
  0   -570.5572254253   0.000000000000 0.07206631  0.00212853  0.2452123 0.7000
  1   -570.7158983647  -0.158672939417 0.04398070  0.00148047  0.1222715 0.7000
                               ***Turning on DIIS***
  2   -570.7897659744  -0.073867609664 0.07248524  0.00270518  0.0559595 0.0000
  3   -570.9104168147  -0.120650840296 0.03352440  0.00097438  0.0590076 0.0000
  4   -570.9290704921  -0.018653677420 0.00668390  0.00022283  0.0083561 0.0000
  5   -570.9296814496  -0.000610957507 0.00297228  0.00009152  0.0043225 0.0000
                      *** Initiating the SOSCF procedure ***
                           *** Shutting down DIIS ***
                      *** Re-Reading the Fockian *** 
                      *** Removing any level shift *** 
ITER      Energy       Delta-E        Grad      Rot      Max-DP    RMS-DP
  6   -570.92974699  -0.0000655407  0.000825  0.000825  0.001433  0.000058
               *** Restarting incremental Fock matrix formation ***
  7   -570.92976176  -0.0000147711  0.000257  0.000350  0.000848  0.000030
  8   -570.92976280  -0.0000010338  0.000482  0.000492  0.000462  0.000012
  9   -570.92976564  -0.0000028444  0.000056  0.000165  0.000140  0.000006
 10   -570.92976573  -0.0000000873  0.000023  0.000056  0.000066  0.000002
 11   -570.92976577  -0.0000000419  0.000007  0.000010  0.000016  0.000000
 12   -570.92976577  -0.0000000015  0.000003  0.000003  0.000006  0.000000
                  ***Gradient check signals convergence***
              ***Rediagonalizing the Fockian in SOSCF/NRSCF***

               *****************************************************
               *                     SUCCESS                       *
               *           SCF CONVERGED AFTER  13 CYCLES          *
               *****************************************************

Setting up the final grid:

General Integration Accuracy     IntAcc      ...  5.010
Radial Grid Type                 RadialGrid  ... Gauss-Chebyshev
Angular Grid (max. acc.)         AngularGrid ... Lebedev-434
Angular grid pruning method      GridPruning ... 3 (G Style)
Weight generation scheme         WeightScheme... Becke
Basis function cutoff            BFCut       ...    1.0000e-11
Integration weight cutoff        WCut        ...    1.0000e-14
Grids for H and He will be reduced by one unit

# of grid points (after initial pruning)     ... 198198 (   0.1 sec)
# of grid points (after weights+screening)   ... 177469 (   0.7 sec)
nearest neighbour list constructed           ...    0.0 sec
Grid point re-assignment to atoms done       ...    0.0 sec
Grid point division into batches done        ...    1.1 sec
Reduced shell lists constructed in    2.2 sec

Total number of grid points                  ...   177469
Total number of batches                      ...     2786
Average number of points per batch           ...       63
Average number of grid points per atom       ...     7716
Average number of shells per batch           ...    50.85 (56.50%)
Average number of basis functions per batch  ...   101.18 (56.84%)
Average number of large shells per batch     ...    35.65 (70.10%)
Average number of large basis fcns per batch ...    71.35 (70.52%)
Maximum spatial batch extension              ...  27.58, 20.92, 18.70 au
Average spatial batch extension              ...   1.92,  1.90,  1.85 au

Final grid set up in    3.0 sec
Final integration                            ... done (   2.5 sec)
Change in XC energy                          ...    -0.001874715
Integrated number of electrons               ...    86.000040360
Previous integrated no of electrons          ...    85.999967609

----------------
TOTAL SCF ENERGY
----------------

Total Energy       :         -570.93164049 Eh          -15535.83976 eV

Components:
Nuclear Repulsion  :          664.48905538 Eh           18081.66645 eV
Electronic Energy  :        -1235.42069587 Eh          -33617.50622 eV
One Electron Energy:        -2096.12115201 Eh          -57038.35632 eV
Two Electron Energy:          860.70045614 Eh           23420.85010 eV

Virial components:
Potential Energy   :        -1138.23967904 Eh          -30973.07631 eV
Kinetic Energy     :          567.30803855 Eh           15437.23654 eV
Virial Ratio       :            2.00638736


DFT components:
N(Alpha)           :       43.000020180088 electrons
N(Beta)            :       43.000020180088 electrons
N(Total)           :       86.000040360177 electrons
E(XC)              :      -53.687534968188 Eh       
DFET-embed. en.    :        0.000000000000 Eh       

---------------
SCF CONVERGENCE
---------------

  Last Energy change         ...    6.2528e-12  Tolerance :   1.0000e-08
  Last MAX-Density change    ...    2.4145e-06  Tolerance :   1.0000e-07
  Last RMS-Density change    ...    6.9562e-08  Tolerance :   5.0000e-09
  Last Orbital Gradient      ...    8.8172e-07  Tolerance :   1.0000e-05
  Last Orbital Rotation      ...    1.8703e-06  Tolerance :   1.0000e-05

             **** THE GBW FILE WAS UPDATED (ala-ala.gbw) ****
             **** DENSITY FILE WAS UPDATED (ala-ala.scfp) ****
             **** ENERGY FILE WAS UPDATED (ala-ala.en.tmp) ****
             **** THE GBW FILE WAS UPDATED (ala-ala.gbw) ****
             **** DENSITY FILE WAS UPDATED (ala-ala.scfp) ****
----------------
ORBITAL ENERGIES
----------------

  NO   OCC          E(Eh)            E(eV) 
   0   2.0000     -19.227434      -523.2051 
   1   2.0000     -19.206982      -522.6486 
   2   2.0000     -19.183339      -522.0052 
   3   2.0000     -14.447306      -393.1312 
   4   2.0000     -14.418958      -392.3598 
   5   2.0000     -10.387463      -282.6572 
   6   2.0000     -10.382820      -282.5309 
   7   2.0000     -10.324046      -280.9316 
   8   2.0000     -10.322908      -280.9006 
   9   2.0000     -10.266435      -279.3639 
  10   2.0000     -10.263506      -279.2842 
  11   2.0000      -1.215262       -33.0689 
  12   2.0000      -1.189518       -32.3684 
  13   2.0000      -1.125359       -30.6226 
  14   2.0000      -1.080955       -29.4143 
  15   2.0000      -1.046277       -28.4706 
  16   2.0000      -0.915565       -24.9138 
  17   2.0000      -0.887790       -24.1580 
  18   2.0000      -0.804083       -21.8802 
  19   2.0000      -0.773857       -21.0577 
  20   2.0000      -0.718795       -19.5594 
  21   2.0000      -0.709522       -19.3071 
  22   2.0000      -0.665798       -18.1173 
  23   2.0000      -0.651398       -17.7254 
  24   2.0000      -0.617740       -16.8096 
  25   2.0000      -0.610295       -16.6070 
  26   2.0000      -0.568703       -15.4752 
  27   2.0000      -0.550914       -14.9911 
  28   2.0000      -0.546016       -14.8579 
  29   2.0000      -0.543802       -14.7976 
  30   2.0000      -0.527702       -14.3595 
  31   2.0000      -0.522460       -14.2169 
  32   2.0000      -0.518435       -14.1073 
  33   2.0000      -0.508149       -13.8274 
  34   2.0000      -0.484755       -13.1909 
  35   2.0000      -0.481376       -13.0989 
  36   2.0000      -0.469593       -12.7783 
  37   2.0000      -0.456642       -12.4259 
  38   2.0000      -0.400919       -10.9095 
  39   2.0000      -0.397326       -10.8118 
  40   2.0000      -0.388937       -10.5835 
  41   2.0000      -0.364513        -9.9189 
  42   2.0000      -0.344799        -9.3825 
  43   0.0000       0.092597         2.5197 
  44   0.0000       0.126832         3.4513 
  45   0.0000       0.159411         4.3378 
  46   0.0000       0.192386         5.2351 
  47   0.0000       0.204161         5.5555 
  48   0.0000       0.215763         5.8712 
  49   0.0000       0.222246         6.0476 
  50   0.0000       0.239594         6.5197 
  51   0.0000       0.243953         6.6383 
  52   0.0000       0.250765         6.8237 
  53   0.0000       0.263446         7.1687 
  54   0.0000       0.264623         7.2008 
  55   0.0000       0.271846         7.3973 
  56   0.0000       0.290869         7.9149 
  57   0.0000       0.307078         8.3560 
  58   0.0000       0.319366         8.6904 
  59   0.0000       0.332951         9.0601 
  60   0.0000       0.344344         9.3701 
  61   0.0000       0.356337         9.6964 
  62   0.0000       0.378281        10.2935 
  63   0.0000       0.428392        11.6571 
  64   0.0000       0.467040        12.7088 
  65   0.0000       0.480160        13.0658 
  66   0.0000       0.524611        14.2754 
  67   0.0000       0.606643        16.5076 
  68   0.0000       0.619721        16.8635 
  69   0.0000       0.624302        16.9881 
  70   0.0000       0.641497        17.4560 
  71   0.0000       0.645106        17.5542 
  72   0.0000       0.651295        17.7226 
  73   0.0000       0.662214        18.0198 
  74   0.0000       0.692192        18.8355 
  75   0.0000       0.703422        19.1411 
  76   0.0000       0.738144        20.0859 
  77   0.0000       0.755927        20.5698 
  78   0.0000       0.770329        20.9617 
  79   0.0000       0.777357        21.1530 
  80   0.0000       0.797286        21.6953 
  81   0.0000       0.808595        22.0030 
  82   0.0000       0.823660        22.4129 
  83   0.0000       0.837388        22.7865 
  84   0.0000       0.859355        23.3843 
  85   0.0000       0.869732        23.6666 
  86   0.0000       0.877615        23.8811 
  87   0.0000       0.910858        24.7857 
  88   0.0000       0.934441        25.4274 
  89   0.0000       0.953375        25.9427 
  90   0.0000       0.960892        26.1472 
  91   0.0000       0.974918        26.5289 
  92   0.0000       0.991213        26.9723 
  93   0.0000       0.995702        27.0944 
  94   0.0000       1.012753        27.5584 
  95   0.0000       1.013879        27.5890 
  96   0.0000       1.021050        27.7842 
  97   0.0000       1.032097        28.0848 
  98   0.0000       1.042331        28.3633 
  99   0.0000       1.051071        28.6011 
 100   0.0000       1.057072        28.7644 
 101   0.0000       1.064633        28.9701 
 102   0.0000       1.092216        29.7207 
 103   0.0000       1.109176        30.1822 
 104   0.0000       1.112500        30.2727 
 105   0.0000       1.138962        30.9927 
 106   0.0000       1.171140        31.8683 
 107   0.0000       1.196157        32.5491 
 108   0.0000       1.229242        33.4494 
 109   0.0000       1.240763        33.7629 
 110   0.0000       1.251411        34.0526 
 111   0.0000       1.289229        35.0817 
 112   0.0000       1.330540        36.2058 
 113   0.0000       1.381896        37.6033 
 114   0.0000       1.420435        38.6520 
 115   0.0000       1.456203        39.6253 
 116   0.0000       1.476617        40.1808 
 117   0.0000       1.481388        40.3106 
 118   0.0000       1.524489        41.4835 
 119   0.0000       1.549923        42.1755 
 120   0.0000       1.560214        42.4556 
 121   0.0000       1.622702        44.1560 
 122   0.0000       1.639387        44.6100 
 123   0.0000       1.676612        45.6229 
 124   0.0000       1.727991        47.0210 
 125   0.0000       1.765401        48.0390 
 126   0.0000       1.802484        49.0481 
 127   0.0000       1.817102        49.4459 
 128   0.0000       1.819817        49.5197 
 129   0.0000       1.839590        50.0578 
 130   0.0000       1.871355        50.9222 
 131   0.0000       1.887866        51.3714 
 132   0.0000       1.918766        52.2123 
 133   0.0000       1.926610        52.4257 
 134   0.0000       1.934837        52.6496 
 135   0.0000       1.962958        53.4148 
 136   0.0000       1.991713        54.1973 
 137   0.0000       2.013537        54.7911 
 138   0.0000       2.026407        55.1413 
 139   0.0000       2.041698        55.5574 
 140   0.0000       2.055897        55.9438 
 141   0.0000       2.074574        56.4520 
 142   0.0000       2.089949        56.8704 
 143   0.0000       2.107935        57.3598 
 144   0.0000       2.122101        57.7453 
 145   0.0000       2.131994        58.0145 
 146   0.0000       2.165347        58.9221 
 147   0.0000       2.174756        59.1781 
 148   0.0000       2.191363        59.6300 
 149   0.0000       2.239494        60.9397 
 150   0.0000       2.254440        61.3464 
 151   0.0000       2.262110        61.5551 
 152   0.0000       2.300457        62.5986 
 153   0.0000       2.378633        64.7259 
 154   0.0000       2.386912        64.9512 
 155   0.0000       2.419156        65.8286 
 156   0.0000       2.431927        66.1761 
 157   0.0000       2.472886        67.2907 
 158   0.0000       2.506132        68.1953 
 159   0.0000       2.525917        68.7337 
 160   0.0000       2.551469        69.4290 
 161   0.0000       2.576189        70.1017 
 162   0.0000       2.632146        71.6243 
 163   0.0000       2.654275        72.2265 
 164   0.0000       2.727537        74.2200 
 165   0.0000       2.734758        74.4165 
 166   0.0000       2.747837        74.7724 
 167   0.0000       2.774265        75.4916 
 168   0.0000       2.784009        75.7567 
 169   0.0000       2.810573        76.4796 
 170   0.0000       2.897643        78.8489 
 171   0.0000       2.922719        79.5312 
 172   0.0000       3.009783        81.9004 
 173   0.0000       3.061352        83.3036 
 174   0.0000       3.144863        85.5761 
 175   0.0000       3.156326        85.8880 
 176   0.0000       3.256588        88.6163 
 177   0.0000       3.318007        90.2876 

                    ********************************
                    * MULLIKEN POPULATION ANALYSIS *
                    ********************************

-----------------------
MULLIKEN ATOMIC CHARGES
-----------------------
   0 N :   -0.764271
   1 C :   -0.101878
   2 C :    0.568267
   3 O :   -0.524517
   4 H :    0.320199
   5 H :    0.199691
   6 C :   -0.486436
   7 H :    0.161454
   8 H :    0.158992
   9 H :    0.201901
  10 H :    0.333706
  11 N :   -0.594907
  12 C :   -0.113117
  13 C :    0.578330
  14 O :   -0.413392
  15 H :    0.380238
  16 H :    0.191942
  17 C :   -0.501032
  18 H :    0.160826
  19 H :    0.187189
  20 H :    0.196814
  21 O :   -0.604582
  22 H :    0.464582
Sum of atomic charges:    0.0000000

--------------------------------
MULLIKEN REDUCED ORBITAL CHARGES
--------------------------------
  0 N s       :     3.626752  s :     3.626752
      pz      :     1.599523  p :     4.104297
      px      :     1.323538
      py      :     1.181235
      dz2     :     0.008359  d :     0.033222
      dxz     :     0.008274
      dyz     :     0.001533
      dx2y2   :     0.007802
      dxy     :     0.007255
  1 C s       :     3.188343  s :     3.188343
      pz      :     0.970781  p :     2.854819
      px      :     0.889973
      py      :     0.994065
      dz2     :     0.012243  d :     0.058717
      dxz     :     0.015220
      dyz     :     0.005279
      dx2y2   :     0.011641
      dxy     :     0.014334
  2 C s       :     2.984833  s :     2.984833
      pz      :     0.825170  p :     2.331919
      px      :     0.751916
      py      :     0.754833
      dz2     :     0.016992  d :     0.114981
      dxz     :     0.041697
      dyz     :     0.013698
      dx2y2   :     0.020518
      dxy     :     0.022076
  3 O s       :     3.857364  s :     3.857364
      pz      :     1.781532  p :     4.640293
      px      :     1.371669
      py      :     1.487092
      dz2     :     0.003202  d :     0.026860
      dxz     :     0.005348
      dyz     :     0.000988
      dx2y2   :     0.008671
      dxy     :     0.008652
  4 H s       :     0.679801  s :     0.679801
  5 H s       :     0.800309  s :     0.800309
  6 C s       :     3.284703  s :     3.284703
      pz      :     1.017104  p :     3.167691
      px      :     1.049308
      py      :     1.101279
      dz2     :     0.010401  d :     0.034043
      dxz     :     0.007739
      dyz     :     0.001593
      dx2y2   :     0.005034
      dxy     :     0.009276
  7 H s       :     0.838546  s :     0.838546
  8 H s       :     0.841008  s :     0.841008
  9 H s       :     0.798099  s :     0.798099
 10 H s       :     0.666294  s :     0.666294
 11 N s       :     3.559380  s :     3.559380
      pz      :     1.116339  p :     4.003422
      px      :     1.274754
      py      :     1.612329
      dz2     :     0.009573  d :     0.032105
      dxz     :     0.008450
      dyz     :     0.006079
      dx2y2   :     0.004705
      dxy     :     0.003298
 12 C s       :     3.206957  s :     3.206957
      pz      :     0.798266  p :     2.848660
      px      :     1.047036
      py      :     1.003358
      dz2     :     0.016576  d :     0.057500
      dxz     :     0.008861
      dyz     :     0.012736
      dx2y2   :     0.010416
      dxy     :     0.008910
 13 C s       :     2.962426  s :     2.962426
      pz      :     0.769916  p :     2.325362
      px      :     0.732252
      py      :     0.823195
      dz2     :     0.028210  d :     0.133881
      dxz     :     0.024360
      dyz     :     0.034520
      dx2y2   :     0.025480
      dxy     :     0.021311
 14 O s       :     3.826108  s :     3.826108
      pz      :     1.381316  p :     4.557845
      px      :     1.477993
      py      :     1.698536
      dz2     :     0.010524  d :     0.029439
      dxz     :     0.007341
      dyz     :     0.005400
      dx2y2   :     0.002861
      dxy     :     0.003314
 15 H s       :     0.619762  s :     0.619762
 16 H s       :     0.808058  s :     0.808058
 17 C s       :     3.286115  s :     3.286115
      pz      :     1.081246  p :     3.180732
      px      :     1.061100
      py      :     1.038386
      dz2     :     0.007660  d :     0.034184
      dxz     :     0.005599
      dyz     :     0.006226
      dx2y2   :     0.007947
      dxy     :     0.006752
 18 H s       :     0.839174  s :     0.839174
 19 H s       :     0.812811  s :     0.812811
 20 H s       :     0.803186  s :     0.803186
 21 O s       :     3.840328  s :     3.840328
      pz      :     1.509450  p :     4.736914
      px      :     1.552543
      py      :     1.674921
      dz2     :     0.004424  d :     0.027339
      dxz     :     0.002575
      dyz     :     0.008659
      dx2y2   :     0.004680
      dxy     :     0.007001
 22 H s       :     0.535418  s :     0.535418


                     *******************************
                     * LOEWDIN POPULATION ANALYSIS *
                     *******************************

----------------------
LOEWDIN ATOMIC CHARGES
----------------------
   0 N :   -0.470717
   1 C :   -0.108927
   2 C :    0.109366
   3 O :   -0.298276
   4 H :    0.232994
   5 H :    0.152061
   6 C :   -0.384087
   7 H :    0.131546
   8 H :    0.131528
   9 H :    0.154065
  10 H :    0.240421
  11 N :   -0.188887
  12 C :   -0.108490
  13 C :    0.116779
  14 O :   -0.218093
  15 H :    0.272202
  16 H :    0.144204
  17 C :   -0.374649
  18 H :    0.131625
  19 H :    0.146223
  20 H :    0.153758
  21 O :   -0.298068
  22 H :    0.333422

-------------------------------
LOEWDIN REDUCED ORBITAL CHARGES
-------------------------------
  0 N s       :     3.255835  s :     3.255835
      pz      :     1.583188  p :     4.152646
      px      :     1.349665
      py      :     1.219794
      dz2     :     0.012771  d :     0.062236
      dxz     :     0.014401
      dyz     :     0.003029
      dx2y2   :     0.016918
      dxy     :     0.015117
  1 C s       :     2.887695  s :     2.887695
      pz      :     1.044848  p :     3.091603
      px      :     0.997563
      py      :     1.049192
      dz2     :     0.026781  d :     0.129629
      dxz     :     0.037128
      dyz     :     0.010888
      dx2y2   :     0.023219
      dxy     :     0.031614
  2 C s       :     2.844593  s :     2.844593
      pz      :     0.997515  p :     2.774443
      px      :     0.972682
      py      :     0.804245
      dz2     :     0.040436  d :     0.271598
      dxz     :     0.104792
      dyz     :     0.030557
      dx2y2   :     0.046072
      dxy     :     0.049740
  3 O s       :     3.537411  s :     3.537411
      pz      :     1.761253  p :     4.706083
      px      :     1.455970
      py      :     1.488861
      dz2     :     0.007807  d :     0.054782
      dxz     :     0.012026
      dyz     :     0.002223
      dx2y2   :     0.017003
      dxy     :     0.015723
  4 H s       :     0.767006  s :     0.767006
  5 H s       :     0.847939  s :     0.847939
  6 C s       :     2.970924  s :     2.970924
      pz      :     1.089124  p :     3.346641
      px      :     1.113752
      py      :     1.143766
      dz2     :     0.019976  d :     0.066522
      dxz     :     0.016719
      dyz     :     0.003218
      dx2y2   :     0.009617
      dxy     :     0.016992
  7 H s       :     0.868454  s :     0.868454
  8 H s       :     0.868472  s :     0.868472
  9 H s       :     0.845935  s :     0.845935
 10 H s       :     0.759579  s :     0.759579
 11 N s       :     3.110847  s :     3.110847
      pz      :     1.171511  p :     3.997173
      px      :     1.270830
      py      :     1.554832
      dz2     :     0.026934  d :     0.080866
      dxz     :     0.023934
      dyz     :     0.014272
      dx2y2   :     0.008824
      dxy     :     0.006902
 12 C s       :     2.895528  s :     2.895528
      pz      :     0.926954  p :     3.086141
      px      :     1.090671
      py      :     1.068516
      dz2     :     0.036050  d :     0.126822
      dxz     :     0.020826
      dyz     :     0.029485
      dx2y2   :     0.021551
      dxy     :     0.018910
 13 C s       :     2.849955  s :     2.849955
      pz      :     0.925518  p :     2.721059
      px      :     0.847784
      py      :     0.947757
      dz2     :     0.061540  d :     0.312207
      dxz     :     0.062000
      dyz     :     0.081920
      dx2y2   :     0.058752
      dxy     :     0.047995
 14 O s       :     3.539424  s :     3.539424
      pz      :     1.442649  p :     4.620912
      px      :     1.486348
      py      :     1.691915
      dz2     :     0.017389  d :     0.057757
      dxz     :     0.017224
      dyz     :     0.012373
      dx2y2   :     0.004904
      dxy     :     0.005868
 15 H s       :     0.727798  s :     0.727798
 16 H s       :     0.855796  s :     0.855796
 17 C s       :     2.961788  s :     2.961788
      pz      :     1.123924  p :     3.345779
      px      :     1.119141
      py      :     1.102714
      dz2     :     0.014467  d :     0.067082
      dxz     :     0.011251
      dyz     :     0.012420
      dx2y2   :     0.015160
      dxy     :     0.013784
 18 H s       :     0.868375  s :     0.868375
 19 H s       :     0.853777  s :     0.853777
 20 H s       :     0.846242  s :     0.846242
 21 O s       :     3.500943  s :     3.500943
      pz      :     1.492723  p :     4.743826
      px      :     1.566757
      py      :     1.684345
      dz2     :     0.009772  d :     0.053299
      dxz     :     0.007878
      dyz     :     0.013708
      dx2y2   :     0.007299
      dxy     :     0.014642
 22 H s       :     0.666578  s :     0.666578


                      *****************************
                      * MAYER POPULATION ANALYSIS *
                      *****************************

  NA   - Mulliken gross atomic population
  ZA   - Total nuclear charge
  QA   - Mulliken gross atomic charge
  VA   - Mayer's total valence
  BVA  - Mayer's bonded valence
  FA   - Mayer's free valence

  ATOM       NA         ZA         QA         VA         BVA        FA
  0 N      7.7643     7.0000    -0.7643     2.7704     2.7704     0.0000
  1 C      6.1019     6.0000    -0.1019     3.8482     3.8482    -0.0000
  2 C      5.4317     6.0000     0.5683     3.8819     3.8819    -0.0000
  3 O      8.5245     8.0000    -0.5245     2.0246     2.0246     0.0000
  4 H      0.6798     1.0000     0.3202     0.8609     0.8609     0.0000
  5 H      0.8003     1.0000     0.1997     0.9190     0.9190    -0.0000
  6 C      6.4864     6.0000    -0.4864     3.8258     3.8258    -0.0000
  7 H      0.8385     1.0000     0.1615     0.9367     0.9367     0.0000
  8 H      0.8410     1.0000     0.1590     0.9395     0.9395    -0.0000
  9 H      0.7981     1.0000     0.2019     0.9345     0.9345     0.0000
 10 H      0.6663     1.0000     0.3337     0.8533     0.8533     0.0000
 11 N      7.5949     7.0000    -0.5949     2.9572     2.9572     0.0000
 12 C      6.1131     6.0000    -0.1131     3.7664     3.7664    -0.0000
 13 C      5.4217     6.0000     0.5783     4.0104     4.0104     0.0000
 14 O      8.4134     8.0000    -0.4134     2.1225     2.1225     0.0000
 15 H      0.6198     1.0000     0.3802     0.8551     0.8551     0.0000
 16 H      0.8081     1.0000     0.1919     0.9262     0.9262    -0.0000
 17 C      6.5010     6.0000    -0.5010     3.8471     3.8471    -0.0000
 18 H      0.8392     1.0000     0.1608     0.9336     0.9336    -0.0000
 19 H      0.8128     1.0000     0.1872     0.9345     0.9345     0.0000
 20 H      0.8032     1.0000     0.1968     0.9334     0.9334     0.0000
 21 O      8.6046     8.0000    -0.6046     1.8941     1.8941    -0.0000
 22 H      0.5354     1.0000     0.4646     0.8004     0.8004    -0.0000

  Mayer bond orders larger than 0.100000
B(  0-N ,  1-C ) :   0.9973 B(  0-N ,  4-H ) :   0.8564 B(  0-N , 10-H ) :   0.8541 
B(  1-C ,  2-C ) :   0.9464 B(  1-C ,  5-H ) :   0.9217 B(  1-C ,  6-C ) :   0.9993 
B(  2-C ,  3-O ) :   1.6980 B(  2-C , 11-N ) :   1.2181 B(  3-O , 22-H ) :   0.1492 
B(  6-C ,  7-H ) :   0.9501 B(  6-C ,  8-H ) :   0.9516 B(  6-C ,  9-H ) :   0.9304 
B( 11-N , 12-C ) :   0.8930 B( 11-N , 15-H ) :   0.7734 B( 12-C , 13-C ) :   0.9053 
B( 12-C , 16-H ) :   0.9211 B( 12-C , 17-C ) :   1.0075 B( 13-C , 14-O ) :   1.9699 
B( 13-C , 21-O ) :   1.1481 B( 17-C , 18-H ) :   0.9447 B( 17-C , 19-H ) :   0.9405 
B( 17-C , 20-H ) :   0.9431 B( 21-O , 22-H ) :   0.6239 

-------
TIMINGS
-------

Total SCF time: 0 days 0 hours 2 min 27 sec 

Total time                  ....     147.061 sec
Sum of individual times     ....     146.796 sec  ( 99.8%)

Fock matrix formation       ....     141.186 sec  ( 96.0%)
  XC integration            ....      20.346 sec  ( 14.4% of F)
    Basis function eval.    ....       6.640 sec  ( 32.6% of XC)
    Density eval.           ....       3.494 sec  ( 17.2% of XC)
    XC-Functional eval.     ....       6.225 sec  ( 30.6% of XC)
    XC-Potential eval.      ....       3.389 sec  ( 16.7% of XC)
Diagonalization             ....       0.031 sec  (  0.0%)
Density matrix formation    ....       0.008 sec  (  0.0%)
Population analysis         ....       0.004 sec  (  0.0%)
Initial guess               ....       1.180 sec  (  0.8%)
Orbital Transformation      ....       0.000 sec  (  0.0%)
Orbital Orthonormalization  ....       0.000 sec  (  0.0%)
DIIS solution               ....       0.010 sec  (  0.0%)
SOSCF solution              ....       0.018 sec  (  0.0%)
Grid generation             ....       4.359 sec  (  3.0%)

-------------------------   --------------------
FINAL SINGLE POINT ENERGY      -570.931640485466
-------------------------   --------------------

------------------------------------------------------------------------------
                         ORCA SCF GRADIENT CALCULATION
------------------------------------------------------------------------------

Gradient of the Kohn-Sham DFT energy:
Kohn-Sham wavefunction type      ... RKS
Hartree-Fock exchange scaling    ...    0.158
Number of operators              ...    1
Number of atoms                  ...   23
Basis set dimensions             ...  178
Integral neglect threshold       ... 2.5e-11
Integral primitive cutoff        ... 2.5e-12

Nuclear repulsion gradient       ... done
One Electron Gradient            ... done
Pre-screening matrix             ... done
Starting the two electron gradient:
Two electron gradient done
Exchange-correlation gradient    ... done

------------------
CARTESIAN GRADIENT
------------------

   1   N   :    0.003884381    0.000704657   -0.001086185
   2   C   :   -0.004833975   -0.002209421    0.005187653
   3   C   :    0.013287442   -0.002250729    0.002560069
   4   O   :   -0.015336175    0.003852022    0.003472212
   5   H   :   -0.000001777   -0.001031272    0.001745156
   6   H   :    0.000228789   -0.000071634   -0.000290463
   7   C   :    0.003241883    0.004814612   -0.005859166
   8   H   :    0.002201788   -0.000362261    0.004154373
   9   H   :   -0.002171496   -0.004406316    0.000051879
  10   H   :   -0.004525742    0.001957333    0.001011499
  11   H   :    0.000809245   -0.000300990    0.000836675
  12   N   :    0.003471264   -0.003449619   -0.008414201
  13   C   :   -0.003453001    0.004129067   -0.004141602
  14   C   :   -0.000961109   -0.015741088    0.010657251
  15   O   :    0.006159981    0.005013233   -0.011743658
  16   H   :    0.001279346   -0.000236899    0.002506489
  17   H   :    0.001433261   -0.000205503    0.000978690
  18   C   :   -0.004284873    0.003812120    0.002997626
  19   H   :    0.000311750   -0.004829284    0.002077015
  20   H   :    0.004485073    0.001637159   -0.001458130
  21   H   :   -0.000484043   -0.000543757   -0.004236000
  22   O   :   -0.009299871    0.010279808    0.006326625
  23   H   :    0.004557859   -0.000561237   -0.007333809

Difference to translation invariance:
           :    0.0000000000    0.0000000000   -0.0000000000

Norm of the cartesian gradient     ...    0.0424601594
RMS gradient                       ...    0.0051116025
MAX gradient                       ...    0.0157410877

-------
TIMINGS
-------

Total SCF gradient time            ...       48.328 sec

One electron gradient       ....       0.193 sec  (  0.4%)
Prescreening matrices       ....       0.119 sec  (  0.2%)
Two electron gradient       ....      37.774 sec  ( 78.2%)
XC gradient                 ....      10.127 sec  ( 21.0%)
------------------------------------------------------------------------------
                         ORCA GEOMETRY RELAXATION STEP
------------------------------------------------------------------------------

Reading the OPT-File                    .... done
Getting information on internals        .... done
Copying old internal coords+grads       .... done
Making the new internal coordinates     .... (new redundants).... done
Validating the new internal coordinates .... (new redundants).... done
Calculating the B-matrix                .... done
Calculating the G,G- and P matrices     .... done
Transforming gradient to internals      .... done
Projecting the internal gradient        .... done
Number of atoms                         ....  23
Number of internal coordinates          .... 107
Current Energy                          ....  -570.931640485 Eh
Current gradient norm                   ....     0.042460159 Eh/bohr
Maximum allowed component of the step   ....  0.300
Current trust radius                    ....  0.300
Evaluating the initial hessian          ....  (Almloef) done
Projecting the Hessian                  .... done
Forming the augmented Hessian           .... done
Diagonalizing the augmented Hessian     .... done
Last element of RFO vector              ....  0.976520969
Lowest eigenvalues of augmented Hessian:
 -0.003448760  0.009008569  0.010577840  0.011046787  0.012028258
Length of the computed step             ....  0.220601885
The final length of the internal step   ....  0.220601885
Converting the step to cartesian space:
 Initial RMS(Int)=    0.0213263892
Transforming coordinates:
 Iter   0:  RMS(Cart)=    0.0872459973 RMS(Int)=    0.6025667432
 Iter   1:  RMS(Cart)=    0.0022059050 RMS(Int)=    0.0011023900
 Iter   2:  RMS(Cart)=    0.0001165666 RMS(Int)=    0.0000362529
 Iter   3:  RMS(Cart)=    0.0000064698 RMS(Int)=    0.0000036429
 Iter   4:  RMS(Cart)=    0.0000004015 RMS(Int)=    0.0000001492
 Iter   5:  RMS(Cart)=    0.0000000227 RMS(Int)=    0.0000000142
done
Storing new coordinates                 .... done

                                .--------------------.
          ----------------------|Geometry convergence|-------------------------
          Item                value                   Tolerance       Converged
          ---------------------------------------------------------------------
          RMS gradient        0.0034549610            0.0001000000      NO
          MAX gradient        0.0152877543            0.0003000000      NO
          RMS step            0.0213263892            0.0020000000      NO
          MAX step            0.0876112483            0.0040000000      NO
          ........................................................
          Max(Bonds)      0.0087      Max(Angles)    1.20
          Max(Dihed)        5.02      Max(Improp)    0.00
          ---------------------------------------------------------------------

The optimization has not yet converged - more geometry cycles are needed


    ---------------------------------------------------------------------------
                         Redundant Internal Coordinates
                            (Angstroem and degrees)

        Definition                    Value    dE/dq     Step     New-Value
    ----------------------------------------------------------------------------
     1. B(C   1,N   0)                1.4580 -0.003927  0.0047    1.4627   
     2. B(C   2,C   1)                1.5282 -0.004607  0.0064    1.5347   
     3. B(O   3,C   2)                1.2266 -0.015288  0.0079    1.2345   
     4. B(H   4,N   0)                1.0164 -0.000950  0.0012    1.0176   
     5. B(H   5,C   1)                1.0981  0.000038 -0.0001    1.0980   
     6. B(C   6,C   1)                1.5313  0.000099 -0.0001    1.5312   
     7. B(H   7,C   6)                1.0879 -0.004666  0.0067    1.0946   
     8. B(H   8,C   6)                1.0893 -0.004828  0.0070    1.0963   
     9. B(H   9,C   6)                1.0862 -0.004705  0.0068    1.0929   
    10. B(H  10,N   0)                1.0137 -0.001121  0.0014    1.0151   
    11. B(N  11,C   2)                1.3354 -0.011161  0.0086    1.3440   
    12. B(C  12,N  11)                1.4553 -0.005803  0.0069    1.4623   
    13. B(C  13,C  12)                1.5519  0.000103 -0.0002    1.5517   
    14. B(O  14,C  13)                1.1981 -0.014110  0.0066    1.2047   
    15. B(H  15,N  11)                1.0118 -0.001764  0.0022    1.0140   
    16. B(H  16,C  12)                1.1010  0.001184 -0.0018    1.0992   
    17. B(C  17,C  12)                1.5191 -0.000313  0.0004    1.5195   
    18. B(H  18,C  17)                1.0873 -0.005253  0.0076    1.0949   
    19. B(H  19,C  17)                1.0871 -0.004842  0.0070    1.0941   
    20. B(H  20,C  17)                1.0859 -0.004145  0.0059    1.0918   
    21. B(O  21,C  13)                1.3199 -0.008376  0.0061    1.3260   
    22. B(H  22,O  21)                0.9971  0.007551 -0.0087    0.9883   
    23. A(H   4,N   0,H  10)          107.23  0.000792   -0.35    106.88   
    24. A(C   1,N   0,H  10)          110.30 -0.000357   -0.03    110.27   
    25. A(C   1,N   0,H   4)          109.71  0.000002   -0.09    109.62   
    26. A(N   0,C   1,C   2)          109.58 -0.002775    0.95    110.53   
    27. A(N   0,C   1,C   6)          114.73 -0.000290    0.34    115.07   
    28. A(C   2,C   1,H   5)          105.71  0.000853   -0.55    105.16   
    29. A(C   2,C   1,C   6)          109.93  0.001450   -0.01    109.93   
    30. A(N   0,C   1,H   5)          107.45  0.001208   -0.51    106.95   
    31. A(H   5,C   1,C   6)          109.01 -0.000337   -0.33    108.69   
    32. A(C   1,C   2,N  11)          114.33 -0.006620    0.94    115.26   
    33. A(O   3,C   2,N  11)          123.06 -0.002225    0.27    123.33   
    34. A(C   1,C   2,O   3)          122.59  0.008830   -1.17    121.42   
    35. A(H   8,C   6,H   9)          108.41  0.001472   -0.21    108.20   
    36. A(H   7,C   6,H   9)          109.17  0.000642   -0.03    109.14   
    37. A(C   1,C   6,H   9)          109.56 -0.002569    0.52    110.09   
    38. A(H   7,C   6,H   8)          108.97  0.000598   -0.25    108.72   
    39. A(C   1,C   6,H   8)          110.09 -0.000853    0.12    110.21   
    40. A(C   1,C   6,H   7)          110.60  0.000756   -0.15    110.44   
    41. A(C  12,N  11,H  15)          118.87 -0.000672    0.10    118.97   
    42. A(C   2,N  11,H  15)          116.88  0.003820   -0.61    116.27   
    43. A(C   2,N  11,C  12)          124.08 -0.003109    0.42    124.50   
    44. A(H  16,C  12,C  17)          110.73 -0.000579   -0.26    110.47   
    45. A(N  11,C  12,C  17)          109.82  0.001195   -0.38    109.44   
    46. A(C  13,C  12,H  16)          106.53 -0.000984    0.48    107.01   
    47. A(N  11,C  12,H  16)          107.79  0.001162   -0.22    107.56   
    48. A(C  13,C  12,C  17)          110.96  0.003352   -0.69    110.27   
    49. A(N  11,C  12,C  13)          110.92 -0.004308    1.12    112.04   
    50. A(C  12,C  13,O  14)          122.35  0.001139   -0.19    122.16   
    51. A(O  14,C  13,O  21)          123.11  0.004106   -0.51    122.60   
    52. A(C  12,C  13,O  21)          114.53 -0.005241    0.70    115.23   
    53. A(H  18,C  17,H  19)          109.62  0.000274    0.01    109.63   
    54. A(C  12,C  17,H  19)          109.83 -0.001395    0.26    110.09   
    55. A(C  12,C  17,H  18)          110.67  0.000494   -0.06    110.60   
    56. A(H  19,C  17,H  20)          107.92  0.001378   -0.30    107.62   
    57. A(H  18,C  17,H  20)          109.11  0.000395   -0.09    109.02   
    58. A(C  12,C  17,H  20)          109.64 -0.001115    0.18    109.82   
    59. A(C  13,O  21,H  22)          112.69  0.007848   -1.20    111.49   
    60. D(C   6,C   1,N   0,H  10)     69.83  0.000156    0.62     70.46   
    61. D(C   2,C   1,N   0,H  10)   -165.96 -0.000351    1.63   -164.33   
    62. D(H   5,C   1,N   0,H   4)   -169.46 -0.000865    1.69   -167.77   
    63. D(C   6,C   1,N   0,H   4)    -48.07 -0.000600    1.12    -46.95   
    64. D(C   2,C   1,N   0,H   4)     76.14 -0.001107    2.13     78.27   
    65. D(H   5,C   1,N   0,H  10)    -51.55 -0.000109    1.19    -50.36   
    66. D(O   3,C   2,C   1,N   0)   -162.53  0.000091    0.95   -161.57   
    67. D(N  11,C   2,C   1,C   6)    146.00 -0.000571    0.71    146.71   
    68. D(N  11,C   2,C   1,N   0)     19.03  0.000763   -0.41     18.62   
    69. D(N  11,C   2,C   1,H   5)    -96.48  0.000240    0.01    -96.47   
    70. D(O   3,C   2,C   1,C   6)    -35.56 -0.001243    2.07    -33.49   
    71. D(O   3,C   2,C   1,H   5)     81.96 -0.000432    1.38     83.34   
    72. D(H   7,C   6,C   1,H   5)     56.47 -0.000617    0.60     57.06   
    73. D(H   7,C   6,C   1,C   2)    171.91  0.001019   -0.25    171.66   
    74. D(H   7,C   6,C   1,N   0)    -64.06 -0.001732    1.26    -62.80   
    75. D(H   9,C   6,C   1,H   5)    -63.92 -0.000237    0.40    -63.52   
    76. D(H   9,C   6,C   1,C   2)     51.52  0.001399   -0.45     51.07   
    77. D(H   9,C   6,C   1,N   0)    175.55 -0.001352    1.07    176.61   
    78. D(H   8,C   6,C   1,H   5)    176.95  0.000062    0.26    177.21   
    79. D(H   8,C   6,C   1,C   2)    -67.61  0.001698   -0.59    -68.20   
    80. D(H   8,C   6,C   1,N   0)     56.42 -0.001053    0.93     57.34   
    81. D(H  15,N  11,C   2,O   3)   -177.40  0.001845   -3.14   -180.54   
    82. D(H  15,N  11,C   2,C   1)      1.03  0.001363   -1.79     -0.76   
    83. D(C  12,N  11,C   2,C   1)   -174.04  0.000841   -0.52   -174.56   
    84. D(C  12,N  11,C   2,O   3)      7.53  0.001322   -1.87      5.66   
    85. D(C  17,C  12,N  11,C   2)    162.77  0.001237   -4.64    158.13   
    86. D(H  16,C  12,N  11,H  15)   -132.93 -0.000204   -2.64   -135.56   
    87. D(H  16,C  12,N  11,C   2)     42.05  0.000531   -3.96     38.09   
    88. D(C  13,C  12,N  11,H  15)    110.81  0.002653   -3.69    107.11   
    89. D(C  17,C  12,N  11,H  15)    -12.21  0.000503   -3.31    -15.52   
    90. D(C  13,C  12,N  11,C   2)    -74.22  0.003388   -5.02    -79.24   
    91. D(O  21,C  13,C  12,C  17)   -175.26 -0.000125    0.81   -174.45   
    92. D(O  21,C  13,C  12,H  16)    -54.66  0.000477    0.39    -54.27   
    93. D(O  21,C  13,C  12,N  11)     62.38 -0.000984    0.99     63.38   
    94. D(O  14,C  13,C  12,C  17)      3.63  0.000126    0.13      3.76   
    95. D(O  14,C  13,C  12,H  16)    124.24  0.000728   -0.29    123.95   
    96. D(O  14,C  13,C  12,N  11)   -118.72 -0.000732    0.31   -118.41   
    97. D(H  20,C  17,C  12,H  16)    -57.84  0.000539   -0.53    -58.37   
    98. D(H  20,C  17,C  12,C  13)     60.24  0.001070   -0.54     59.71   
    99. D(H  20,C  17,C  12,N  11)   -176.77 -0.001292    0.15   -176.62   
   100. D(H  19,C  17,C  12,H  16)   -176.26  0.000368   -0.43   -176.69   
   101. D(H  19,C  17,C  12,C  13)    -58.17  0.000899   -0.44    -58.61   
   102. D(H  19,C  17,C  12,N  11)     64.82 -0.001464    0.25     65.07   
   103. D(H  18,C  17,C  12,H  16)     62.57  0.000624   -0.56     62.00   
   104. D(H  18,C  17,C  12,C  13)   -179.35  0.001154   -0.57   -179.92   
   105. D(H  18,C  17,C  12,N  11)    -56.35 -0.001208    0.11    -56.24   
   106. D(H  22,O  21,C  13,O  14)    175.34 -0.000736    1.18    176.52   
   107. D(H  22,O  21,C  13,C  12)     -5.78 -0.000521    0.50     -5.28   
    ----------------------------------------------------------------------------

         *************************************************************
         *                GEOMETRY OPTIMIZATION CYCLE   2            *
         *************************************************************
---------------------------------
CARTESIAN COORDINATES (ANGSTROEM)
---------------------------------
  N     -0.125807    1.044197    0.174200
  C      1.059404    0.192497    0.076864
  C      1.768731    0.100104    1.434619
  O      2.942555   -0.271823    1.523433
  H      0.154657    2.022348    0.165009
  H      0.705597   -0.825704   -0.132183
  C      2.061065    0.596292   -1.008560
  H      1.601905    0.521678   -1.999406
  H      2.393613    1.629110   -0.851794
  H      2.938466   -0.054244   -0.970358
  H     -0.727731    0.902650   -0.630780
  N      1.021394    0.445907    2.496787
  C      1.523651    0.541849    3.866719
  C      1.643805   -0.850238    4.541604
  O      1.016975   -1.140561    5.528542
  H      0.072301    0.743603    2.299805
  H      2.537128    0.964794    3.819415
  C      0.609028    1.443389    4.678858
  H      0.519194    2.427110    4.206605
  H     -0.381601    0.988268    4.771480
  H      1.011149    1.567619    5.686272
  O      2.510650   -1.679282    3.976431
  H      2.889773   -1.296943    3.147639

----------------------------
CARTESIAN COORDINATES (A.U.)
----------------------------
  NO LB      ZA    FRAG     MASS         X           Y           Z
   0 N     7.0000    0    14.007   -0.237741    1.973247    0.329191
   1 C     6.0000    0    12.011    2.001984    0.363767    0.145252
   2 C     6.0000    0    12.011    3.342417    0.189169    2.711038
   3 O     8.0000    0    15.999    5.560622   -0.513671    2.878870
   4 H     1.0000    0     1.008    0.292260    3.821684    0.311822
   5 H     1.0000    0     1.008    1.333385   -1.560354   -0.249789
   6 C     6.0000    0    12.011    3.894848    1.126829   -1.905902
   7 H     1.0000    0     1.008    3.027162    0.985828   -3.778331
   8 H     1.0000    0     1.008    4.523272    3.078572   -1.609658
   9 H     1.0000    0     1.008    5.552896   -0.102506   -1.833712
  10 H     1.0000    0     1.008   -1.375213    1.705762   -1.192002
  11 N     7.0000    0    14.007    1.930154    0.842643    4.718243
  12 C     6.0000    0    12.011    2.879284    1.023946    7.307040
  13 C     6.0000    0    12.011    3.106341   -1.606717    8.582387
  14 O     8.0000    0    15.999    1.921804   -2.155348   10.447431
  15 H     1.0000    0     1.008    0.136629    1.405205    4.346001
  16 H     1.0000    0     1.008    4.794477    1.823196    7.217649
  17 C     6.0000    0    12.011    1.150895    2.727609    8.841761
  18 H     1.0000    0     1.008    0.981135    4.586574    7.949331
  19 H     1.0000    0     1.008   -0.721121    1.867555    9.016790
  20 H     1.0000    0     1.008    1.910796    2.962370   10.745497
  21 O     8.0000    0    15.999    4.744440   -3.173384    7.514366
  22 H     1.0000    0     1.008    5.460879   -2.450867    5.948175

--------------------------------
INTERNAL COORDINATES (ANGSTROEM)
--------------------------------
 N      0   0   0     0.000000000000     0.00000000     0.00000000
 C      1   0   0     1.462735182439     0.00000000     0.00000000
 C      2   1   0     1.534659663226   110.52967376     0.00000000
 O      3   2   1     1.234536072517   121.41677565   198.42019683
 H      1   2   3     1.017606950021   109.61923881    78.27373514
 H      2   1   3     1.098004178028   106.94918862   113.95959516
 C      2   1   3     1.531182256833   115.06701179   234.77673515
 H      7   2   1     1.094610180719   110.44429347   297.19880717
 H      7   2   1     1.096301170532   110.21307373    57.34436976
 H      7   2   1     1.092927183839   110.08559309   176.61338851
 H      1   2   3     1.015057581511   110.27456358   195.67657658
 N      3   2   1     1.343983910247   115.25874976    18.62251098
 C     12   3   2     1.462252437778   124.49265931   185.44466798
 C     13  12   3     1.551712355711   112.03689846   280.76017776
 O     14  13  12     1.204679171442   122.15635880   241.59555249
 H     12   3   2     1.014002898651   116.26199242   359.24598074
 H     13  12   3     1.099206602720   107.55499544    38.08511474
 C     13  12   3     1.519500145025   109.44559199   158.12784970
 H     18  13  12     1.094897993585   110.60495604   303.75896532
 H     18  13  12     1.094101827068   110.08656937    65.06827459
 H     18  13  12     1.091795627148   109.81495589   183.38521287
 O     14  13  12     1.325954049809   115.22429982    63.38269512
 H     22  14  13     0.988339371215   111.48958191   354.71996460

---------------------------
INTERNAL COORDINATES (A.U.)
---------------------------
 N      0   0   0     0.000000000000     0.00000000     0.00000000
 C      1   0   0     2.764168901261     0.00000000     0.00000000
 C      2   1   0     2.900086472272   110.52967376     0.00000000
 O      3   2   1     2.332935079503   121.41677565   198.42019683
 H      1   2   3     1.922998447515   109.61923881    78.27373514
 H      2   1   3     2.074927190373   106.94918862   113.95959516
 C      2   1   3     2.893515126534   115.06701179   234.77673515
 H      7   2   1     2.068513464960   110.44429347   297.19880717
[...]
  95   0.0000       1.011926        27.5359 
  96   0.0000       1.017811        27.6960 
  97   0.0000       1.031040        28.0560 
  98   0.0000       1.035362        28.1736 
  99   0.0000       1.050547        28.5868 
 100   0.0000       1.055250        28.7148 
 101   0.0000       1.064576        28.9686 
 102   0.0000       1.089858        29.6565 
 103   0.0000       1.102817        30.0092 
 104   0.0000       1.114645        30.3310 
 105   0.0000       1.137439        30.9513 
 106   0.0000       1.159520        31.5522 
 107   0.0000       1.193338        32.4724 
 108   0.0000       1.228940        33.4412 
 109   0.0000       1.236157        33.6376 
 110   0.0000       1.250265        34.0214 
 111   0.0000       1.285215        34.9725 
 112   0.0000       1.328722        36.1564 
 113   0.0000       1.368945        37.2509 
 114   0.0000       1.420368        38.6502 
 115   0.0000       1.451643        39.5012 
 116   0.0000       1.475847        40.1598 
 117   0.0000       1.480206        40.2784 
 118   0.0000       1.517654        41.2975 
 119   0.0000       1.540870        41.9292 
 120   0.0000       1.560053        42.4512 
 121   0.0000       1.607685        43.7473 
 122   0.0000       1.635030        44.4914 
 123   0.0000       1.670366        45.4530 
 124   0.0000       1.722135        46.8617 
 125   0.0000       1.761876        47.9431 
 126   0.0000       1.798366        48.9360 
 127   0.0000       1.811764        49.3006 
 128   0.0000       1.828973        49.7689 
 129   0.0000       1.836625        49.9771 
 130   0.0000       1.865604        50.7657 
 131   0.0000       1.885021        51.2940 
 132   0.0000       1.916815        52.1592 
 133   0.0000       1.925282        52.3896 
 134   0.0000       1.937644        52.7260 
 135   0.0000       1.962424        53.4003 
 136   0.0000       1.987588        54.0850 
 137   0.0000       2.003376        54.5146 
 138   0.0000       2.021050        54.9956 
 139   0.0000       2.034126        55.3514 
 140   0.0000       2.054362        55.9020 
 141   0.0000       2.070130        56.3311 
 142   0.0000       2.093593        56.9696 
 143   0.0000       2.099797        57.1384 
 144   0.0000       2.121353        57.7250 
 145   0.0000       2.127784        57.8999 
 146   0.0000       2.166614        58.9566 
 147   0.0000       2.178575        59.2820 
 148   0.0000       2.186179        59.4890 
 149   0.0000       2.231331        60.7176 
 150   0.0000       2.253462        61.3198 
 151   0.0000       2.263977        61.6059 
 152   0.0000       2.291375        62.3515 
 153   0.0000       2.371478        64.5312 
 154   0.0000       2.381566        64.8057 
 155   0.0000       2.408241        65.5316 
 156   0.0000       2.428118        66.0725 
 157   0.0000       2.469029        67.1857 
 158   0.0000       2.507140        68.2227 
 159   0.0000       2.518924        68.5434 
 160   0.0000       2.539610        69.1063 
 161   0.0000       2.573274        70.0223 
 162   0.0000       2.626256        71.4641 
 163   0.0000       2.652293        72.1726 
 164   0.0000       2.722688        74.0881 
 165   0.0000       2.729082        74.2621 
 166   0.0000       2.739337        74.5411 
 167   0.0000       2.763113        75.1881 
 168   0.0000       2.775313        75.5201 
 169   0.0000       2.808533        76.4241 
 170   0.0000       2.887196        78.5646 
 171   0.0000       2.910160        79.1895 
 172   0.0000       3.003038        81.7168 
 173   0.0000       3.047910        82.9378 
 174   0.0000       3.140337        85.4529 
 175   0.0000       3.145778        85.6010 
 176   0.0000       3.235951        88.0547 
 177   0.0000       3.299368        89.7804 

                    ********************************
                    * MULLIKEN POPULATION ANALYSIS *
                    ********************************

-----------------------
MULLIKEN ATOMIC CHARGES
-----------------------
   0 N :   -0.765397
   1 C :   -0.099087
   2 C :    0.570670
   3 O :   -0.527569
   4 H :    0.321945
   5 H :    0.198060
   6 C :   -0.488591
   7 H :    0.160544
   8 H :    0.159403
   9 H :    0.203825
  10 H :    0.333736
  11 N :   -0.597579
  12 C :   -0.111659
  13 C :    0.581782
  14 O :   -0.415763
  15 H :    0.379547
  16 H :    0.197530
  17 C :   -0.498433
  18 H :    0.161915
  19 H :    0.183872
  20 H :    0.197119
  21 O :   -0.605590
  22 H :    0.459720
Sum of atomic charges:   -0.0000000

--------------------------------
MULLIKEN REDUCED ORBITAL CHARGES
--------------------------------
  0 N s       :     3.629128  s :     3.629128
      pz      :     1.646418  p :     4.103294
      px      :     1.275173
      py      :     1.181704
      dz2     :     0.006219  d :     0.032974
      dxz     :     0.008858
      dyz     :     0.003491
      dx2y2   :     0.008805
      dxy     :     0.005601
  1 C s       :     3.189572  s :     3.189572
      pz      :     0.971389  p :     2.851095
      px      :     0.871086
      py      :     1.008620
      dz2     :     0.012451  d :     0.058420
      dxz     :     0.015493
      dyz     :     0.005004
      dx2y2   :     0.012541
      dxy     :     0.012931
  2 C s       :     2.992721  s :     2.992721
      pz      :     0.826238  p :     2.324022
      px      :     0.745427
      py      :     0.752357
      dz2     :     0.016738  d :     0.112587
      dxz     :     0.040886
      dyz     :     0.013452
      dx2y2   :     0.019901
      dxy     :     0.021610
  3 O s       :     3.863699  s :     3.863699
      pz      :     1.785272  p :     4.637249
      px      :     1.366996
      py      :     1.484981
      dz2     :     0.003106  d :     0.026621
      dxz     :     0.005337
      dyz     :     0.000929
      dx2y2   :     0.008588
      dxy     :     0.008660
  4 H s       :     0.678055  s :     0.678055
  5 H s       :     0.801940  s :     0.801940
  6 C s       :     3.288899  s :     3.288899
      pz      :     1.016581  p :     3.165680
      px      :     1.052493
      py      :     1.096606
      dz2     :     0.010365  d :     0.034013
      dxz     :     0.007545
      dyz     :     0.001754
      dx2y2   :     0.005811
      dxy     :     0.008538
  7 H s       :     0.839456  s :     0.839456
  8 H s       :     0.840597  s :     0.840597
  9 H s       :     0.796175  s :     0.796175
 10 H s       :     0.666264  s :     0.666264
 11 N s       :     3.561392  s :     3.561392
      pz      :     1.113183  p :     4.004562
      px      :     1.275258
      py      :     1.616121
      dz2     :     0.009325  d :     0.031624
      dxz     :     0.008579
      dyz     :     0.005864
      dx2y2   :     0.004687
      dxy     :     0.003168
 12 C s       :     3.205866  s :     3.205866
      pz      :     0.799095  p :     2.848239
      px      :     1.052655
      py      :     0.996489
      dz2     :     0.016345  d :     0.057553
      dxz     :     0.008877
      dyz     :     0.013041
      dx2y2   :     0.011351
      dxy     :     0.007939
 13 C s       :     2.966904  s :     2.966904
      pz      :     0.767054  p :     2.320825
      px      :     0.733606
      py      :     0.820165
      dz2     :     0.028023  d :     0.130488
      dxz     :     0.022916
      dyz     :     0.036206
      dx2y2   :     0.022813
      dxy     :     0.020530
 14 O s       :     3.831968  s :     3.831968
      pz      :     1.376398  p :     4.554641
      px      :     1.462451
      py      :     1.715792
      dz2     :     0.010520  d :     0.029154
      dxz     :     0.007546
      dyz     :     0.005373
      dx2y2   :     0.002739
      dxy     :     0.002976
 15 H s       :     0.620453  s :     0.620453
 16 H s       :     0.802470  s :     0.802470
 17 C s       :     3.289630  s :     3.289630
      pz      :     1.077580  p :     3.174755
      px      :     1.065431
      py      :     1.031744
      dz2     :     0.007963  d :     0.034048
      dxz     :     0.005278
      dyz     :     0.006115
      dx2y2   :     0.009241
      dxy     :     0.005451
 18 H s       :     0.838085  s :     0.838085
 19 H s       :     0.816128  s :     0.816128
 20 H s       :     0.802881  s :     0.802881
 21 O s       :     3.848098  s :     3.848098
      pz      :     1.509263  p :     4.729275
      px      :     1.572077
      py      :     1.647936
      dz2     :     0.003882  d :     0.028216
      dxz     :     0.002694
      dyz     :     0.009561
      dx2y2   :     0.004619
      dxy     :     0.007460
 22 H s       :     0.540280  s :     0.540280


                     *******************************
                     * LOEWDIN POPULATION ANALYSIS *
                     *******************************

----------------------
LOEWDIN ATOMIC CHARGES
----------------------
   0 N :   -0.472722
   1 C :   -0.108145
   2 C :    0.114459
   3 O :   -0.309534
   4 H :    0.233684
   5 H :    0.152300
   6 C :   -0.381395
   7 H :    0.130903
   8 H :    0.131064
   9 H :    0.155036
  10 H :    0.241062
  11 N :   -0.193229
  12 C :   -0.106739
  13 C :    0.127136
  14 O :   -0.220867
  15 H :    0.272305
  16 H :    0.148063
  17 C :   -0.372141
  18 H :    0.132168
  19 H :    0.144438
  20 H :    0.153659
  21 O :   -0.300728
  22 H :    0.329222

-------------------------------
LOEWDIN REDUCED ORBITAL CHARGES
-------------------------------
  0 N s       :     3.258255  s :     3.258255
      pz      :     1.631011  p :     4.153064
      px      :     1.306327
      py      :     1.215726
      dz2     :     0.009636  d :     0.061403
      dxz     :     0.014893
      dyz     :     0.005210
      dx2y2   :     0.018861
      dxy     :     0.012803
  1 C s       :     2.888726  s :     2.888726
      pz      :     1.045325  p :     3.090532
      px      :     0.986980
      py      :     1.058228
      dz2     :     0.027228  d :     0.128887
      dxz     :     0.037623
      dyz     :     0.010362
      dx2y2   :     0.024852
      dxy     :     0.028822
  2 C s       :     2.851113  s :     2.851113
      pz      :     0.998213  p :     2.770068
      px      :     0.970508
      py      :     0.801346
      dz2     :     0.039828  d :     0.264360
      dxz     :     0.101993
      dyz     :     0.029586
      dx2y2   :     0.044529
      dxy     :     0.048425
  3 O s       :     3.547869  s :     3.547869
      pz      :     1.768100  p :     4.708107
      px      :     1.451655
      py      :     1.488352
      dz2     :     0.007540  d :     0.053558
      dxz     :     0.011702
      dyz     :     0.002006
      dx2y2   :     0.016893
      dxy     :     0.015417
  4 H s       :     0.766316  s :     0.766316
  5 H s       :     0.847700  s :     0.847700
  6 C s       :     2.972648  s :     2.972648
      pz      :     1.088109  p :     3.342319
      px      :     1.113875
      py      :     1.140335
      dz2     :     0.019824  d :     0.066429
      dxz     :     0.016249
      dyz     :     0.003585
      dx2y2   :     0.011005
      dxy     :     0.015765
  7 H s       :     0.869097  s :     0.869097
  8 H s       :     0.868936  s :     0.868936
  9 H s       :     0.844964  s :     0.844964
 10 H s       :     0.758938  s :     0.758938
 11 N s       :     3.114526  s :     3.114526
      pz      :     1.167830  p :     3.999563
      px      :     1.272110
      py      :     1.559623
      dz2     :     0.026072  d :     0.079141
      dxz     :     0.024074
      dyz     :     0.013753
      dx2y2   :     0.008657
      dxy     :     0.006584
 12 C s       :     2.894056  s :     2.894056
      pz      :     0.927123  p :     3.085671
      px      :     1.092769
      py      :     1.065778
      dz2     :     0.035547  d :     0.127013
      dxz     :     0.020624
      dyz     :     0.030324
      dx2y2   :     0.023530
      dxy     :     0.016987
 13 C s       :     2.853981  s :     2.853981
      pz      :     0.928543  p :     2.716014
      px      :     0.836982
      py      :     0.950489
      dz2     :     0.061218  d :     0.302868
      dxz     :     0.057523
      dyz     :     0.085975
      dx2y2   :     0.051781
      dxy     :     0.046371
 14 O s       :     3.545147  s :     3.545147
      pz      :     1.440352  p :     4.618929
      px      :     1.470702
      py      :     1.707876
      dz2     :     0.017797  d :     0.056791
      dxz     :     0.017283
      dyz     :     0.011940
      dx2y2   :     0.004535
      dxy     :     0.005237
 15 H s       :     0.727695  s :     0.727695
 16 H s       :     0.851937  s :     0.851937
 17 C s       :     2.964484  s :     2.964484
      pz      :     1.121957  p :     3.340943
      px      :     1.121726
      py      :     1.097259
      dz2     :     0.014987  d :     0.066714
      dxz     :     0.010549
      dyz     :     0.012356
      dx2y2   :     0.017511
      dxy     :     0.011311
 18 H s       :     0.867832  s :     0.867832
 19 H s       :     0.855562  s :     0.855562
 20 H s       :     0.846341  s :     0.846341
 21 O s       :     3.509970  s :     3.509970
      pz      :     1.494725  p :     4.737653
      px      :     1.579825
      py      :     1.663104
      dz2     :     0.008655  d :     0.053105
      dxz     :     0.007634
      dyz     :     0.015092
      dx2y2   :     0.007202
      dxy     :     0.014522
 22 H s       :     0.670778  s :     0.670778


                      *****************************
                      * MAYER POPULATION ANALYSIS *
                      *****************************

  NA   - Mulliken gross atomic population
  ZA   - Total nuclear charge
  QA   - Mulliken gross atomic charge
  VA   - Mayer's total valence
  BVA  - Mayer's bonded valence
  FA   - Mayer's free valence

  ATOM       NA         ZA         QA         VA         BVA        FA
  0 N      7.7654     7.0000    -0.7654     2.7684     2.7684    -0.0000
  1 C      6.0991     6.0000    -0.0991     3.8463     3.8463     0.0000
  2 C      5.4293     6.0000     0.5707     3.8678     3.8678    -0.0000
  3 O      8.5276     8.0000    -0.5276     2.0163     2.0163    -0.0000
  4 H      0.6781     1.0000     0.3219     0.8599     0.8599     0.0000
  5 H      0.8019     1.0000     0.1981     0.9197     0.9197     0.0000
  6 C      6.4886     6.0000    -0.4886     3.8266     3.8266    -0.0000
  7 H      0.8395     1.0000     0.1605     0.9370     0.9370     0.0000
  8 H      0.8406     1.0000     0.1594     0.9385     0.9385     0.0000
  9 H      0.7962     1.0000     0.2038     0.9346     0.9346     0.0000
 10 H      0.6663     1.0000     0.3337     0.8523     0.8523    -0.0000
 11 N      7.5976     7.0000    -0.5976     2.9533     2.9533     0.0000
 12 C      6.1117     6.0000    -0.1117     3.7671     3.7671     0.0000
 13 C      5.4182     6.0000     0.5818     3.9997     3.9997    -0.0000
 14 O      8.4158     8.0000    -0.4158     2.1178     2.1178    -0.0000
 15 H      0.6205     1.0000     0.3795     0.8556     0.8556     0.0000
 16 H      0.8025     1.0000     0.1975     0.9257     0.9257     0.0000
 17 C      6.4984     6.0000    -0.4984     3.8449     3.8449    -0.0000
 18 H      0.8381     1.0000     0.1619     0.9341     0.9341    -0.0000
 19 H      0.8161     1.0000     0.1839     0.9351     0.9351    -0.0000
 20 H      0.8029     1.0000     0.1971     0.9336     0.9336    -0.0000
 21 O      8.6056     8.0000    -0.6056     1.8965     1.8965     0.0000
 22 H      0.5403     1.0000     0.4597     0.8050     0.8050     0.0000

  Mayer bond orders larger than 0.100000
B(  0-N ,  1-C ) :   0.9962 B(  0-N ,  4-H ) :   0.8577 B(  0-N , 10-H ) :   0.8547 
B(  1-C ,  2-C ) :   0.9416 B(  1-C ,  5-H ) :   0.9240 B(  1-C ,  6-C ) :   0.9990 
B(  2-C ,  3-O ) :   1.6966 B(  2-C , 11-N ) :   1.2140 B(  3-O , 22-H ) :   0.1397 
B(  6-C ,  7-H ) :   0.9498 B(  6-C ,  8-H ) :   0.9511 B(  6-C ,  9-H ) :   0.9302 
B( 11-N , 12-C ) :   0.8923 B( 11-N , 15-H ) :   0.7746 B( 12-C , 13-C ) :   0.9105 
B( 12-C , 16-H ) :   0.9177 B( 12-C , 17-C ) :   1.0054 B( 13-C , 14-O ) :   1.9667 
B( 13-C , 21-O ) :   1.1370 B( 17-C , 18-H ) :   0.9448 B( 17-C , 19-H ) :   0.9422 
B( 17-C , 20-H ) :   0.9421 B( 21-O , 22-H ) :   0.6386 

-------
TIMINGS
-------

Total SCF time: 0 days 0 hours 1 min 2 sec 

Total time                  ....      62.179 sec
Sum of individual times     ....      61.957 sec  ( 99.6%)

Fock matrix formation       ....      57.616 sec  ( 92.7%)
  XC integration            ....       9.849 sec  ( 17.1% of F)
    Basis function eval.    ....       3.303 sec  ( 33.5% of XC)
    Density eval.           ....       1.686 sec  ( 17.1% of XC)
    XC-Functional eval.     ....       3.076 sec  ( 31.2% of XC)
    XC-Potential eval.      ....       1.490 sec  ( 15.1% of XC)
Diagonalization             ....       0.005 sec  (  0.0%)
Density matrix formation    ....       0.004 sec  (  0.0%)
Population analysis         ....       0.004 sec  (  0.0%)
Initial guess               ....       0.004 sec  (  0.0%)
Orbital Transformation      ....       0.000 sec  (  0.0%)
Orbital Orthonormalization  ....       0.003 sec  (  0.0%)
DIIS solution               ....       0.001 sec  (  0.0%)
SOSCF solution              ....       0.013 sec  (  0.0%)
Grid generation             ....       4.309 sec  (  6.9%)

-------------------------   --------------------
FINAL SINGLE POINT ENERGY      -570.933543788982
-------------------------   --------------------

                                *** OPTIMIZATION RUN DONE ***

                            ***************************************
                            *     ORCA property calculations      *
                            ***************************************

                                    ---------------------
                                    Active property flags
                                    ---------------------
   (+) Dipole Moment


------------------------------------------------------------------------------
                       ORCA ELECTRIC PROPERTIES CALCULATION
------------------------------------------------------------------------------

Dipole Moment Calculation                       ... on
Quadrupole Moment Calculation                   ... off
Polarizability Calculation                      ... off
GBWName                                         ... ala-ala.gbw
Electron density file                           ... ala-ala.scfp
The origin for moment calculation is the CENTER OF MASS  = ( 2.748618,  0.054919  4.673068)

-------------
DIPOLE MOMENT
-------------
                                X             Y             Z
Electronic contribution:      2.62147      -6.91261       7.40381
Nuclear contribution   :     -3.43232       8.66392      -9.46701
                        -----------------------------------------
Total Dipole Moment    :     -0.81084       1.75131      -2.06320
                        -----------------------------------------
Magnitude (a.u.)       :      2.82512
Magnitude (Debye)      :      7.18089



--------------------
Rotational spectrum 
--------------------
 
Rotational constants in cm-1:     0.067523     0.021397     0.018080 
Rotational constants in MHz :  2024.281758   641.476755   542.035431 

 Dipole components along the rotational axes: 
x,y,z [a.u.] :    -2.402884     1.438252    -0.372691 
x,y,z [Debye]:    -6.107647     3.655747    -0.947306 

 

Timings for individual modules:

Sum of individual times         ...     1686.167 sec (=  28.103 min)
GTO integral calculation        ...        3.318 sec (=   0.055 min)   0.2 %
SCF iterations                  ...     1155.822 sec (=  19.264 min)  68.5 %
SCF Gradient evaluation         ...      525.998 sec (=   8.767 min)  31.2 %
Geometry relaxation             ...        1.029 sec (=   0.017 min)   0.1 %
                             ****ORCA TERMINATED NORMALLY****
TOTAL RUN TIME: 0 days 0 hours 28 minutes 8 seconds 252 msec
