
                                 *****************
                                 * O   R   C   A *
                                 *****************

           --- An Ab Initio, DFT and Semiempirical electronic structure package ---

                  #######################################################
                  #                        -***-                        #
                  #          Department of theory and spectroscopy      #
                  #               Directorship: Frank Neese             #
                  #        Max Planck Institute fuer Kohlenforschung    #
                  #                Kaiser Wilhelm Platz 1               #
                  #                 D-45470 Muelheim/Ruhr               #
                  #                      Germany                        #
                  #                                                     #
                  #                  All rights reserved                #
                  #                        -***-                        #
                  #######################################################


                         Program Version 4.2.0 -  RELEASE  -


 With contributions from (in alphabetic order):
   Daniel Aravena         : Magnetic Suceptibility
   Michael Atanasov       : Ab Initio Ligand Field Theory (pilot matlab implementation)
   Alexander A. Auer      : GIAO ZORA, VPT2
   Ute Becker             : Parallelization
   Giovanni Bistoni       : ED, misc. LED, open-shell LED, HFLED
   Martin Brehm           : Molecular dynamics
   Dmytro Bykov           : SCF Hessian
   Vijay G. Chilkuri      : MRCI spin determinant printing, contributions to CSF-ICE
   Dipayan Datta          : RHF DLPNO-CCSD density
   Achintya Kumar Dutta   : EOM-CC, STEOM-CC
   Dmitry Ganyushin       : Spin-Orbit,Spin-Spin,Magnetic field MRCI
   Miquel Garcia          : C-PCM Hessian, Gaussian charge scheme
   Yang Guo               : DLPNO-NEVPT2, CIM, IAO-localization
   Andreas Hansen         : Spin unrestricted coupled pair/coupled cluster methods
   Benjamin Helmich-Paris : CASSCF linear response (MC-RPA)
   Lee Huntington         : MR-EOM, pCC
   Robert Izsak           : Overlap fitted RIJCOSX, COSX-SCS-MP3, EOM
   Christian Kollmar      : KDIIS, OOCD, Brueckner-CCSD(T), CCSD density
   Simone Kossmann        : Meta GGA functionals, TD-DFT gradient, OOMP2, MP2 Hessian
   Martin Krupicka        : AUTO-CI
   Lucas Lang             : DCDCAS
   Dagmar Lenk            : GEPOL surface, SMD
   Dimitrios Liakos       : Extrapolation schemes; Compound Job, initial MDCI parallelization
   Dimitrios Manganas     : Further ROCIS development; embedding schemes
   Dimitrios Pantazis     : SARC Basis sets
   Taras Petrenko         : DFT Hessian,TD-DFT gradient, ASA, ECA, R-Raman, ABS, FL, XAS/XES, NRVS
   Peter Pinski           : DLPNO-MP2, DLPNO-MP2 Gradient
   Christoph Reimann      : Effective Core Potentials
   Marius Retegan         : Local ZFS, SOC
   Christoph Riplinger    : Optimizer, TS searches, QM/MM, DLPNO-CCSD(T), (RO)-DLPNO pert. Triples
   Tobias Risthaus        : Range-separated hybrids, TD-DFT gradient, RPA, STAB
   Michael Roemelt        : Original ROCIS implementation
   Masaaki Saitow         : Open-shell DLPNO-CCSD energy and density
   Barbara Sandhoefer     : DKH picture change effects
   Avijit Sen             : IP-ROCIS
   Kantharuban Sivalingam : CASSCF convergence, NEVPT2, FIC-MRCI
   Bernardo de Souza      : ESD, SOC TD-DFT
   Georgi Stoychev        : AutoAux, RI-MP2 NMR
   Willem Van den Heuvel  : Paramagnetic NMR
   Boris Wezisla          : Elementary symmetry handling
   Frank Wennmohs         : Technical directorship


 We gratefully acknowledge several colleagues who have allowed us to
 interface, adapt or use parts of their codes:
   Stefan Grimme, W. Hujo, H. Kruse,             : VdW corrections, initial TS optimization,
                  C. Bannwarth                     DFT functionals, gCP, sTDA/sTD-DF
   Ed Valeev, F. Pavosevic, A. Kumar             : LibInt (2-el integral package), F12 methods
   Garnet Chan, S. Sharma, J. Yang, R. Olivares  : DMRG
   Ulf Ekstrom                                   : XCFun DFT Library
   Mihaly Kallay                                 : mrcc  (arbitrary order and MRCC methods)
   Andreas Klamt, Michael Diedenhofen            : otool_cosmo (COSMO solvation model)
   Jiri Pittner, Ondrej Demel                    : Mk-CCSD
   Frank Weinhold                                : gennbo (NPA and NBO analysis)
   Christopher J. Cramer and Donald G. Truhlar   : smd solvation model
   Lars Goerigk                                  : TD-DFT with DH, B97 family of functionals
   V. Asgeirsson, H. Jonsson                     : NEB implementation
   FAccTs GmbH                                   : IRC, NEB, NEB-TS, Multilevel, MM, QM/MM, CI optimization
   S Lehtola, MJT Oliveira, MAL Marques          : LibXC Library


 Your calculation uses the libint2 library for the computation of 2-el integrals
 For citations please refer to: http://libint.valeyev.net

 Your ORCA version has been built with support for libXC version: 4.2.3
 For citations please refer to: https://tddft.org/programs/libxc/

 This ORCA versions uses:
   CBLAS   interface :  Fast vector & matrix operations
   LAPACKE interface :  Fast linear algebra routines
   SCALAPACK package :  Parallel linear algebra routines


XCFun DFT library Copyright 2009-2010 Ulf Ekstrom and contributors.
See http://admol.org/xcfun for more information. This is free soft-
ware; see the source code for copying conditions. There is ABSOLUTELY
NO WARRANTY; not even for MERCHANTABILITY or FITNESS FOR A PARTICULAR
PURPOSE. For details see the documentation. Scientific users of this 
library should cite U. Ekstrom, L. Visscher, R. Bast, A. J. Thorvald-
sen and K. Ruud; J.Chem.Theor.Comp. 2010, DOI: 10.1021/ct100117s
XCFun Version 0.99 
----- Orbital basis set information -----
Your calculation utilizes the basis: 6-31G(d)
   H-He, Li-Ne : W. J. Hehre, R. Ditchfield and J.A. Pople, J. Chem. Phys. 56, 2257 (1972).
                 Note: He and Ne are unpublished basis sets taken from the Gaussian program.
                 Note: Li and B from J. D. Dill and J. A. Pople, J. Chem. Phys. 62, 2921 (1975).
   Na - Ar     : M. M. Francl, W. J. Pietro, W. J. Hehre, J. S. Binkley, M. S. Gordon, 
                 D. J. DeFrees and J. A. Pople, J. Chem. Phys. 77, 3654 (1982).
   K - Zn      : V. A. Rassolov, J. A. Pople, M. A. Ratner, and T. L. Windus, J. Chem. Phys. 109, 1223 (1998).

================================================================================
                                        WARNINGS
                       Please study these warnings very carefully!
================================================================================


WARNING: Geometry Optimization
  ===> : Switching off AutoStart
         For restart on a previous wavefunction, please use MOREAD

INFO   : the flag for use of LIBINT has been found!

================================================================================
                                       INPUT FILE
================================================================================
NAME = aspartame.inp
|  1> # ORCA input file
|  2> # energy: -65.358423542768 gnorm: 0.000770968145 xtb: 6.2.3 (conda-forge)
|  3> ! RKS wB97x 6-31g(d) TightSCF Grid4 Opt
|  4> * xyz 0 1
|  5>  C          0.4034953151       -2.3564573154       -0.8096687116
|  6>  C          1.7200939446       -2.7232386227       -1.0136661180
|  7>  C          2.6443138491       -2.5957803720        0.0127423635
|  8>  C          2.2434949762       -2.0965043274        1.2412214422
|  9>  C          0.9262466314       -1.7195324229        1.4374076250
| 10>  C         -0.0066676571       -1.8517493372        0.4187697424
| 11>  C         -1.4373746222       -1.4411759987        0.6306885829
| 12>  H         -2.1123253240       -2.2355334312        0.3058070322
| 13>  H         -1.6145612156       -1.2387448517        1.6891171854
| 14>  C         -1.7661484904       -0.1681877921       -0.1821678863
| 15>  N         -0.8821511319        0.9140218813        0.1531727931
| 16>  C          0.0474777987        1.3747225777       -0.6993661045
| 17>  O          0.2482695665        0.9057664596       -1.8010399119
| 18>  C          0.8447567260        2.5696488762       -0.1525891605
| 19>  N          0.6619741158        2.6860300983        1.2779464597
| 20>  H          1.0209687830        3.5741350607        1.6111660755
| 21>  H          1.1928782577        1.9516501838        1.7421600186
| 22>  H          0.4305716750        3.4673220550       -0.6289166387
| 23>  C          2.3194740179        2.4158473166       -0.6120252610
| 24>  C          2.8498291012        1.1158900004       -0.0655697874
| 25>  O          2.8574300258        0.8251435965        1.1071988667
| 26>  O          3.2877484345        0.2989308040       -1.0121723824
| 27>  H          3.4991092737       -0.5800257445       -0.6462358786
| 28>  H          2.9096114984        3.2479976344       -0.2242648687
| 29>  H          2.3677729108        2.3902580959       -1.6987076174
| 30>  H         -1.0229378587        1.4181025462        1.0192692859
| 31>  C         -3.2055714177        0.2331822427        0.1040670756
| 32>  O         -3.5287472421        1.1449933304        0.8174675907
| 33>  O         -4.0642590763       -0.5822444513       -0.5089660815
| 34>  C         -5.4458085564       -0.3271003274       -0.2805220536
| 35>  H         -5.7019626098        0.6823969043       -0.6067720415
| 36>  H         -5.6774178529       -0.4230580360        0.7819371379
| 37>  H         -5.9908487514       -1.0670867349       -0.8601846063
| 38>  H         -1.6395607909       -0.3729604060       -1.2508564762
| 39>  H          0.6238090339       -1.3197965365        2.3941824816
| 40>  H          2.9563331717       -1.9890488066        2.0446169934
| 41>  H          3.6703178671       -2.9031586927       -0.1411238983
| 42>  H          2.0285298450       -3.1094987466       -1.9736486163
| 43>  H         -0.3123355206       -2.4615262627       -1.6110125554
| 44> *
| 45> 
| 46>                          ****END OF INPUT****
================================================================================

                       *****************************
                       * Geometry Optimization Run *
                       *****************************

Geometry optimization settings:
Update method            Update   .... BFGS
Choice of coordinates    CoordSys .... Z-matrix Internals
Initial Hessian          InHess   .... Almoef's Model

Convergence Tolerances:
Energy Change            TolE     ....  5.0000e-06 Eh
Max. Gradient            TolMAXG  ....  3.0000e-04 Eh/bohr
RMS Gradient             TolRMSG  ....  1.0000e-04 Eh/bohr
Max. Displacement        TolMAXD  ....  4.0000e-03 bohr
RMS Displacement         TolRMSD  ....  2.0000e-03 bohr
Strict Convergence                ....  False
------------------------------------------------------------------------------
                        ORCA OPTIMIZATION COORDINATE SETUP
------------------------------------------------------------------------------

The optimization will be done in new redundant internal coordinates
Making redundant internal coordinates   ...  (new redundants) done
Evaluating the initial hessian          ...  (Almloef) done
Evaluating the coordinates              ...  done
Calculating the B-matrix                .... done
Calculating the G-matrix                .... done
Diagonalizing the G-matrix              .... done
Small eigenvalue found = 4.362e-03
Small eigenvalue found = 7.435e-03
Small eigenvalue found = 8.449e-03
Small eigenvalue found = 1.240e-02
Small eigenvalue found = 1.573e-02
The first mode is                       ....   83
The number of degrees of freedom        ....  111

    -----------------------------------------------------------------
                    Redundant Internal Coordinates


    -----------------------------------------------------------------
         Definition                    Initial Value    Approx d2E/dq
    -----------------------------------------------------------------
      1. B(C   1,C   0)                  1.3819         0.643729   
      2. B(C   2,C   1)                  1.3871         0.631575   
      3. B(C   3,C   2)                  1.3853         0.635647   
      4. B(C   4,C   3)                  1.3841         0.638480   
      5. B(C   5,C   4)                  1.3876         0.630330   
      6. B(C   5,C   0)                  1.3900         0.624859   
      7. B(C   6,C   5)                  1.5035         0.411827   
      8. B(H   7,C   6)                  1.0918         0.357677   
      9. B(H   8,C   6)                  1.0921         0.357355   
     10. B(C   9,C   6)                  1.5457         0.352580   
     11. B(N  10,C   9)                  1.4370         0.470790   
     12. B(C  11,N  10)                  1.3429         0.665398   
     13. B(O  12,C  11)                  1.2141         1.068044   
     14. B(C  13,C  11)                  1.5370         0.364048   
     15. B(N  14,C  13)                  1.4469         0.454118   
     16. B(H  15,N  14)                  1.0142         0.426051   
     17. B(H  16,N  14)                  1.0182         0.419916   
     18. B(H  17,C  13)                  1.0974         0.350462   
     19. B(C  18,C  13)                  1.5523         0.344235   
     20. B(C  19,C  18)                  1.5066         0.407141   
     21. B(O  20,C  19)                  1.2083         1.090872   
     22. B(O  21,C  19)                  1.3249         0.710891   
     23. B(H  22,O  21)                  0.9753         0.491595   
     24. B(H  22,C   2)                  2.2865         0.004441   
     25. B(H  23,C  18)                  1.0914         0.358289   
     26. B(H  24,C  18)                  1.0881         0.362681   
     27. B(H  25,N  10)                  1.0119         0.429620   
     28. B(C  26,C   9)                  1.5215         0.385422   
     29. B(O  27,C  26)                  1.2020         1.116431   
     30. B(O  28,C  26)                  1.3334         0.688820   
     31. B(C  29,O  28)                  1.4234         0.495046   
     32. B(H  30,C  29)                  1.0914         0.358262   
     33. B(H  31,C  29)                  1.0916         0.357942   
     34. B(H  32,C  29)                  1.0866         0.364652   
     35. B(H  33,C   9)                  1.0955         0.352938   
     36. B(H  34,C   4)                  1.0801         0.373400   
     37. B(H  35,C   3)                  1.0794         0.374383   
     38. B(H  36,C   2)                  1.0821         0.370767   
     39. B(H  37,C   1)                  1.0798         0.373895   
     40. B(H  38,C   0)                  1.0796         0.374080   
     41. A(C   1,C   0,H  38)          119.7562         0.357466   
     42. A(C   1,C   0,C   5)          120.5302         0.437627   
     43. A(C   5,C   0,H  38)          119.7136         0.355665   
     44. A(C   0,C   1,C   2)          120.0801         0.438472   
     45. A(C   2,C   1,H  37)          120.0288         0.356281   
     46. A(C   0,C   1,H  37)          119.8911         0.357436   
     47. A(C   3,C   2,H  36)          120.1872         0.356161   
     48. A(C   1,C   2,C   3)          119.7715         0.437474   
     49. A(C   1,C   2,H  36)          120.0312         0.355773   
     50. A(C   2,C   3,C   4)          119.9480         0.438333   
     51. A(C   2,C   3,H  35)          120.3201         0.356749   
     52. A(C   4,C   3,H  35)          119.7282         0.357018   
     53. A(C   3,C   4,C   5)          120.6534         0.437669   
     54. A(C   5,C   4,H  34)          119.8200         0.356081   
     55. A(C   3,C   4,H  34)          119.5266         0.356859   
     56. A(C   0,C   5,C   4)          119.0120         0.435971   
     57. A(C   0,C   5,C   6)          120.3007         0.404104   
     58. A(C   4,C   5,C   6)          120.6833         0.404727   
     59. A(C   5,C   6,H   8)          109.9759         0.329152   
     60. A(C   5,C   6,C   9)          110.6818         0.365824   
     61. A(H   7,C   6,H   8)          108.8412         0.290183   
     62. A(C   5,C   6,H   7)          110.3431         0.329201   
     63. A(H   7,C   6,C   9)          108.1318         0.320904   
     64. A(H   8,C   6,C   9)          108.8141         0.320856   
     65. A(C   6,C   9,N  10)          111.5087         0.371989   
     66. A(N  10,C   9,H  33)          107.2978         0.333810   
     67. A(C   6,C   9,H  33)          109.5416         0.320205   
     68. A(N  10,C   9,C  26)          109.8406         0.377751   
     69. A(C   6,C   9,C  26)          108.6352         0.361703   
     70. A(C  26,C   9,H  33)          110.0086         0.324912   
     71. A(C  11,N  10,H  25)          117.9552         0.362573   
     72. A(C   9,N  10,H  25)          119.2927         0.341967   
     73. A(C   9,N  10,C  11)          122.4163         0.413048   
     74. A(O  12,C  11,C  13)          122.5011         0.432113   
     75. A(N  10,C  11,C  13)          113.5757         0.397264   
     76. A(N  10,C  11,O  12)          123.9228         0.479061   
     77. A(H  17,C  13,C  18)          108.1287         0.318588   
     78. A(N  14,C  13,C  18)          114.8743         0.368171   
     79. A(C  11,C  13,C  18)          108.0882         0.356749   
     80. A(N  14,C  13,H  17)          108.4020         0.331434   
     81. A(C  11,C  13,H  17)          106.6040         0.321515   
     82. A(C  11,C  13,N  14)          110.4095         0.371729   
     83. A(H  15,N  14,H  16)          107.2911         0.301061   
     84. A(C  13,N  14,H  16)          109.0806         0.338617   
     85. A(C  13,N  14,H  15)          110.5216         0.339438   
     86. A(C  13,C  18,C  19)          108.2147         0.363615   
     87. A(H  23,C  18,H  24)          110.4125         0.290935   
     88. A(C  19,C  18,H  24)          109.0465         0.329335   
     89. A(C  13,C  18,H  24)          109.8834         0.320376   
     90. A(C  19,C  18,H  23)          109.7969         0.328673   
     91. A(C  13,C  18,H  23)          109.4514         0.319739   
     92. A(C  18,C  19,O  21)          112.9092         0.409938   
     93. A(C  18,C  19,O  20)          124.1864         0.442601   
     94. A(O  20,C  19,O  21)          122.8899         0.486843   
     95. A(C  19,O  21,H  22)          111.0565         0.375299   
     96. A(O  27,C  26,O  28)          124.3058         0.486089   
     97. A(C   9,C  26,O  28)          111.1872         0.403726   
     98. A(C   9,C  26,O  27)          124.4810         0.440076   
     99. A(C  26,O  28,C  29)          116.2086         0.419331   
    100. A(H  31,C  29,H  32)          110.6664         0.291139   
    101. A(H  30,C  29,H  32)          110.6537         0.291180   
    102. A(O  28,C  29,H  32)          106.2111         0.338446   
    103. A(H  30,C  29,H  31)          108.8112         0.290332   
    104. A(O  28,C  29,H  31)          110.2663         0.337400   
    105. A(O  28,C  29,H  30)          110.2206         0.337450   
    106. D(C   2,C   1,C   0,H  38)   -179.7585         0.028814   
    107. D(H  37,C   1,C   0,C   5)   -179.6930         0.028814   
    108. D(H  37,C   1,C   0,H  38)      0.2344         0.028814   
    109. D(C   2,C   1,C   0,C   5)      0.3141         0.028814   
    110. D(C   3,C   2,C   1,C   0)     -0.1659         0.030069   
    111. D(H  36,C   2,C   1,C   0)    178.6807         0.030069   
    112. D(C   3,C   2,C   1,H  37)    179.8412         0.030069   
    113. D(H  36,C   2,C   1,H  37)     -1.3123         0.030069   
    114. D(H  35,C   3,C   2,H  36)      1.4551         0.030485   
    115. D(C   4,C   3,C   2,H  36)   -179.2389         0.030485   
    116. D(C   4,C   3,C   2,C   1)     -0.3942         0.030485   
    117. D(H  35,C   3,C   2,C   1)   -179.7001         0.030485   
    118. D(C   5,C   4,C   3,H  35)   -179.8752         0.028314   
    119. D(H  34,C   4,C   3,C   2)   -179.2546         0.028314   
    120. D(C   5,C   4,C   3,C   2)      0.8147         0.028314   
    121. D(H  34,C   4,C   3,H  35)      0.0555         0.028314   
    122. D(C   6,C   5,C   4,H  34)      0.1322         0.027550   
    123. D(C   0,C   5,C   4,H  34)    179.4065         0.027550   
    124. D(C   6,C   5,C   0,H  38)     -0.5524         0.027044   
    125. D(C   4,C   5,C   0,H  38)   -179.8295         0.027044   
    126. D(C   0,C   5,C   4,C   3)     -0.6630         0.027550   
    127. D(C   6,C   5,C   4,C   3)   -179.9373         0.027550   
    128. D(C   4,C   5,C   0,C   1)      0.0979         0.027044   
    129. D(C   6,C   5,C   0,C   1)    179.3750         0.027044   
    130. D(C   9,C   6,C   5,C   4)    109.6338         0.012557   
    131. D(C   9,C   6,C   5,C   0)    -69.6311         0.012557   
    132. D(H   8,C   6,C   5,C   4)    -10.6312         0.012557   
    133. D(H   8,C   6,C   5,C   0)    170.1039         0.012557   
    134. D(H   7,C   6,C   5,C   4)   -130.7139         0.012557   
    135. D(H   7,C   6,C   5,C   0)     50.0212         0.012557   
    136. D(N  10,C   9,C   6,C   5)    -56.8218         0.010004   
    137. D(H  33,C   9,C   6,H   7)    -59.1738         0.010004   
    138. D(H  33,C   9,C   6,C   5)     61.7985         0.010004   
    139. D(C  26,C   9,C   6,H   8)    -57.0561         0.010004   
    140. D(C  26,C   9,C   6,C   5)   -178.0125         0.010004   
    141. D(N  10,C   9,C   6,H   8)     64.1346         0.010004   
    142. D(N  10,C   9,C   6,H   7)   -177.7941         0.010004   
    143. D(H  33,C   9,C   6,H   8)   -177.2451         0.010004   
    144. D(C  26,C   9,C   6,H   7)     61.0152         0.010004   
    145. D(H  25,N  10,C   9,H  33)    163.5634         0.018939   
    146. D(H  25,N  10,C   9,C  26)     44.0022         0.018939   
    147. D(H  25,N  10,C   9,C   6)    -76.4839         0.018939   
    148. D(C  11,N  10,C   9,H  33)     -9.6431         0.018939   
    149. D(C  11,N  10,C   9,C  26)   -129.2043         0.018939   
    150. D(C  11,N  10,C   9,C   6)    110.3096         0.018939   
    151. D(C  13,C  11,N  10,H  25)      4.5373         0.036284   
    152. D(C  13,C  11,N  10,C   9)    177.8302         0.036284   
    153. D(O  12,C  11,N  10,H  25)   -175.2560         0.036284   
    154. D(O  12,C  11,N  10,C   9)     -1.9631         0.036284   
    155. D(C  18,C  13,C  11,N  10)    142.0941         0.009948   
    156. D(H  17,C  13,C  11,O  12)     77.9288         0.009948   
    157. D(H  17,C  13,C  11,N  10)   -101.8679         0.009948   
    158. D(N  14,C  13,C  11,O  12)   -164.5270         0.009948   
    159. D(C  18,C  13,C  11,O  12)    -38.1092         0.009948   
    160. D(N  14,C  13,C  11,N  10)     15.6763         0.009948   
    161. D(H  16,N  14,C  13,C  18)    -48.3856         0.017597   
    162. D(H  16,N  14,C  13,H  17)   -169.4300         0.017597   
    163. D(H  16,N  14,C  13,C  11)     74.1392         0.017597   
    164. D(H  15,N  14,C  13,C  18)     69.3435         0.017597   
    165. D(H  15,N  14,C  13,H  17)    -51.7009         0.017597   
    166. D(H  15,N  14,C  13,C  11)   -168.1317         0.017597   
    167. D(C  19,C  18,C  13,N  14)     64.1148         0.009574   
    168. D(C  19,C  18,C  13,C  11)    -59.6514         0.009574   
    169. D(H  24,C  18,C  13,H  17)    -55.7221         0.009574   
    170. D(H  24,C  18,C  13,N  14)   -176.9159         0.009574   
    171. D(H  24,C  18,C  13,C  11)     59.3179         0.009574   
    172. D(H  23,C  18,C  13,H  17)     65.6816         0.009574   
    173. D(H  23,C  18,C  13,N  14)    -55.5122         0.009574   
    174. D(H  23,C  18,C  13,C  11)   -179.2784         0.009574   
    175. D(C  19,C  18,C  13,H  17)   -174.6914         0.009574   
    176. D(O  21,C  19,C  18,H  24)      2.5995         0.012284   
    177. D(O  21,C  19,C  18,H  23)   -118.4933         0.012284   
    178. D(O  21,C  19,C  18,C  13)    122.0973         0.012284   
    179. D(O  20,C  19,C  18,H  24)   -176.0504         0.012284   
    180. D(O  20,C  19,C  18,H  23)     62.8569         0.012284   
    181. D(O  20,C  19,C  18,C  13)    -56.5526         0.012284   
    182. D(H  22,O  21,C  19,O  20)      7.1717         0.037959   
    183. D(H  22,O  21,C  19,C  18)   -171.4982         0.037959   
    184. D(O  28,C  26,C   9,H  33)     45.6857         0.011066   
    185. D(O  28,C  26,C   9,N  10)    163.5771         0.011066   
    186. D(O  28,C  26,C   9,C   6)    -74.2130         0.011066   
    187. D(O  27,C  26,C   9,H  33)   -136.1061         0.011066   
    188. D(O  27,C  26,C   9,N  10)    -18.2148         0.011066   
    189. D(O  27,C  26,C   9,C   6)    103.9952         0.011066   
    190. D(C  29,O  28,C  26,O  27)     -0.0264         0.035424   
    191. D(C  29,O  28,C  26,C   9)    178.1855         0.035424   
    192. D(H  32,C  29,O  28,C  26)    179.2125         0.019363   
    193. D(H  31,C  29,O  28,C  26)    -60.8439         0.019363   
    194. D(H  30,C  29,O  28,C  26)     59.3091         0.019363   
    -----------------------------------------------------------------

Number of atoms                         .... 39
Number of degrees of freedom            .... 194

         *************************************************************
         *                GEOMETRY OPTIMIZATION CYCLE   1            *
         *************************************************************
---------------------------------
CARTESIAN COORDINATES (ANGSTROEM)
---------------------------------
  C      0.403495   -2.356457   -0.809669
  C      1.720094   -2.723239   -1.013666
  C      2.644314   -2.595780    0.012742
  C      2.243495   -2.096504    1.241221
  C      0.926247   -1.719532    1.437408
  C     -0.006668   -1.851749    0.418770
  C     -1.437375   -1.441176    0.630689
  H     -2.112325   -2.235533    0.305807
  H     -1.614561   -1.238745    1.689117
  C     -1.766148   -0.168188   -0.182168
  N     -0.882151    0.914022    0.153173
  C      0.047478    1.374723   -0.699366
  O      0.248270    0.905766   -1.801040
  C      0.844757    2.569649   -0.152589
  N      0.661974    2.686030    1.277946
  H      1.020969    3.574135    1.611166
  H      1.192878    1.951650    1.742160
  H      0.430572    3.467322   -0.628917
  C      2.319474    2.415847   -0.612025
  C      2.849829    1.115890   -0.065570
  O      2.857430    0.825144    1.107199
  O      3.287748    0.298931   -1.012172
  H      3.499109   -0.580026   -0.646236
  H      2.909611    3.247998   -0.224265
  H      2.367773    2.390258   -1.698708
  H     -1.022938    1.418103    1.019269
  C     -3.205571    0.233182    0.104067
  O     -3.528747    1.144993    0.817468
  O     -4.064259   -0.582244   -0.508966
  C     -5.445809   -0.327100   -0.280522
  H     -5.701963    0.682397   -0.606772
  H     -5.677418   -0.423058    0.781937
  H     -5.990849   -1.067087   -0.860185
  H     -1.639561   -0.372960   -1.250856
  H      0.623809   -1.319797    2.394182
  H      2.956333   -1.989049    2.044617
  H      3.670318   -2.903159   -0.141124
  H      2.028530   -3.109499   -1.973649
  H     -0.312336   -2.461526   -1.611013

----------------------------
CARTESIAN COORDINATES (A.U.)
----------------------------
  NO LB      ZA    FRAG     MASS         X           Y           Z
   0 C     6.0000    0    12.011    0.762496   -4.453059   -1.530052
   1 C     6.0000    0    12.011    3.250506   -5.146175   -1.915551
   2 C     6.0000    0    12.011    4.997029   -4.905314    0.024080
   3 C     6.0000    0    12.011    4.239591   -3.961819    2.345569
   4 C     6.0000    0    12.011    1.750352   -3.249445    2.716307
   5 C     6.0000    0    12.011   -0.012600   -3.499299    0.791360
   6 C     6.0000    0    12.011   -2.716244   -2.723428    1.191829
   7 H     1.0000    0     1.008   -3.991716   -4.224546    0.577892
   8 H     1.0000    0     1.008   -3.051079   -2.340889    3.191969
   9 C     6.0000    0    12.011   -3.337537   -0.317829   -0.344247
  10 N     7.0000    0    14.007   -1.667024    1.727251    0.289455
  11 C     6.0000    0    12.011    0.089720    2.597849   -1.321610
  12 O     8.0000    0    15.999    0.469161    1.711651   -3.403472
  13 C     6.0000    0    12.011    1.596359    4.855933   -0.288352
  14 N     7.0000    0    14.007    1.250950    5.075861    2.414969
  15 H     1.0000    0     1.008    1.929351    6.754136    3.044663
  16 H     1.0000    0     1.008    2.254213    3.688084    3.292205
  17 H     1.0000    0     1.008    0.813663    6.552289   -1.188480
  18 C     6.0000    0    12.011    4.383171    4.565290   -1.156560
  19 C     6.0000    0    12.011    5.385397    2.108726   -0.123909
  20 O     8.0000    0    15.999    5.399760    1.559295    2.092303
  21 O     8.0000    0    15.999    6.212944    0.564897   -1.912729
  22 H     1.0000    0     1.008    6.612358   -1.096090   -1.221209
  23 H     1.0000    0     1.008    5.498369    6.137826   -0.423799
  24 H     1.0000    0     1.008    4.474442    4.516933   -3.210092
  25 H     1.0000    0     1.008   -1.933072    2.679825    1.926140
  26 C     6.0000    0    12.011   -6.057652    0.440651    0.196658
  27 O     8.0000    0    15.999   -6.668366    2.163724    1.544790
  28 O     8.0000    0    15.999   -7.680337   -1.100283   -0.961807
  29 C     6.0000    0    12.011  -10.291087   -0.618130   -0.530110
  30 H     1.0000    0     1.008  -10.775148    1.289543   -1.146633
  31 H     1.0000    0     1.008  -10.728765   -0.799464    1.477647
  32 H     1.0000    0     1.008  -11.321063   -2.016502   -1.625513
  33 H     1.0000    0     1.008   -3.098321   -0.704793   -2.363776
  34 H     1.0000    0     1.008    1.178828   -2.494054    4.524349
  35 H     1.0000    0     1.008    5.586660   -3.758758    3.863766
  36 H     1.0000    0     1.008    6.935896   -5.486175   -0.266686
  37 H     1.0000    0     1.008    3.833366   -5.876101   -3.729655
  38 H     1.0000    0     1.008   -0.590229   -4.651611   -3.044373

--------------------------------
INTERNAL COORDINATES (ANGSTROEM)
--------------------------------
 C      0   0   0     0.000000000000     0.00000000     0.00000000
 C      1   0   0     1.381873880064     0.00000000     0.00000000
 C      2   1   0     1.387062510646   120.08010944     0.00000000
 C      3   2   1     1.385313388511   119.77147916   359.83411789
 C      4   3   2     1.384102610713   119.94804018   359.60584141
 C      5   4   3     1.387599912793   120.65338844     0.81467930
 C      6   5   4     1.503463495144   120.68326679   180.06271897
 H      7   6   5     1.091837992751   110.34309798   229.28607371
 H      7   6   5     1.092082673036   109.97589404   349.36878341
 C      7   6   5     1.545744762266   110.68179609   109.63383466
 N     10   7   6     1.437039483903   111.50868520   303.17817663
 C     11  10   7     1.342861739790   122.41631928   110.30962941
 O     12  11  10     1.214052038683   123.92282949   358.03689193
 C     12  11  10     1.537032066436   113.57574637   177.83024685
 N     14  12  11     1.446853908351   110.40952283    15.67632947
 H     15  14  12     1.014220344734   110.52163331   191.86830941
 H     15  14  12     1.018168598501   109.08056485    74.13919444
 H     14  12  11     1.097385191670   106.60397664   258.13206746
 C     14  12  11     1.552265293436   108.08820858   142.09408332
 C     19  14  12     1.506578614926   108.21466063   300.34855131
 O     20  19  14     1.208295312196   124.18641317   303.44744794
 O     20  19  14     1.324859292122   112.90920642   122.09727397
 H     22  20  19     0.975267934114   111.05651207   188.50181715
 H     19  14  12     1.091372768188   109.45144844   180.72155667
 H     19  14  12     1.088056126761   109.88338102    59.31786805
 H     11  10   7     1.011949284307   119.29267576   283.51614263
 C     10   7   6     1.521501469564   108.63523532   181.98751103
 O     27  10   7     1.201991001661   124.48096353   103.99515034
 O     27  10   7     1.333444727022   111.18720671   285.78696359
 C     29  27  10     1.423363679391   116.20863124   178.18552835
 H     30  29  27     1.091392969781   110.22058458    59.30911395
 H     30  29  27     1.091636515360   110.26626867   299.15612769
 H     30  29  27     1.086580587188   106.21114571   179.21251251
 H     10   7   6     1.095468653705   109.54158812    61.79846478
 H      5   4   3     1.080127495011   119.52659176   180.74535489
 H      4   3   2     1.079411596011   120.32013517   180.29987059
 H      3   2   1     1.082053835772   120.03119813   178.68067121
 H      2   1   3     1.079766634516   119.89109741   179.99295480
 H      1   2   3     1.079631985920   119.75617268   180.24146476

---------------------------
INTERNAL COORDINATES (A.U.)
---------------------------
 C      0   0   0     0.000000000000     0.00000000     0.00000000
 C      1   0   0     2.611363184941     0.00000000     0.00000000
 C      2   1   0     2.621168275751   120.08010944     0.00000000
 C      3   2   1     2.617862913940   119.77147916   359.83411789
 C      4   3   2     2.615574875493   119.94804018   359.60584141
 C      5   4   3     2.622183818631   120.65338844     0.81467930
 C      6   5   4     2.841134258171   120.68326679   180.06271897
 H      7   6   5     2.063274788909   110.34309798   229.28607371
 H      7   6   5     2.063737167640   109.97589404   349.36878341
 C      7   6   5     2.921034273627   110.68179609   109.63383466
 N     10   7   6     2.715611068208   111.50868520   303.17817663
 C     11  10   7     2.537640923925   122.41631928   110.30962941
 O     12  11  10     2.294225865440   123.92282949   358.03689193
 C     12  11  10     2.904569664620   113.57574637   177.83024685
 N     14  12  11     2.734157642577   110.40952283    15.67632947
 H     15  14  12     1.916598690998   110.52163331   191.86830941
 H     15  14  12     1.924059809326   109.08056485    74.13919444
 H     14  12  11     2.073757475677   106.60397664   258.13206746
 C     14  12  11     2.933356291786   108.08820858   142.09408332
 C     19  14  12     2.847020981432   108.21466063   300.34855131
 O     20  19  14     2.283347228952   124.18641317   303.44744794
 O     20  19  14     2.503621228091   112.90920642   122.09727397
 H     22  20  19     1.842989302671   111.05651207   188.50181715
 H     19  14  12     2.062395641895   109.45144844   180.72155667
 H     19  14  12     2.056128097914   109.88338102    59.31786805
 H     11  10   7     1.912307008758   119.29267576   283.51614263
 C     10   7   6     2.875221089835   108.63523532   181.98751103
 O     27  10   7     2.271433808577   124.48096353   103.99515034
 O     27  10   7     2.519845348794   111.18720671   285.78696359
 C     29  27  10     2.689767543019   116.20863124   178.18552835
 H     30  29  27     2.062433817374   110.22058458    59.30911395
 H     30  29  27     2.062894051819   110.26626867   299.15612769
 H     30  29  27     2.053339732220   106.21114571   179.21251251
 H     10   7   6     2.070135743798   109.54158812    61.79846478
 H      5   4   3     2.041145155290   119.52659176   180.74535489
 H      4   3   2     2.039792302239   120.32013517   180.29987059
 H      3   2   1     2.044785411768   120.03119813   178.68067121
 H      2   1   3     2.040463227780   119.89109741   179.99295480
 H      1   2   3     2.040208778811   119.75617268   180.24146476

---------------------
BASIS SET INFORMATION
---------------------
There are 4 groups of distinct atoms

 Group   1 Type C   : 10s4p1d contracted to 3s2p1d pattern {631/31/1}
 Group   2 Type H   : 4s contracted to 2s pattern {31}
 Group   3 Type N   : 10s4p1d contracted to 3s2p1d pattern {631/31/1}
 Group   4 Type O   : 10s4p1d contracted to 3s2p1d pattern {631/31/1}

Atom   0C    basis set group =>   1
Atom   1C    basis set group =>   1
Atom   2C    basis set group =>   1
Atom   3C    basis set group =>   1
Atom   4C    basis set group =>   1
Atom   5C    basis set group =>   1
Atom   6C    basis set group =>   1
Atom   7H    basis set group =>   2
Atom   8H    basis set group =>   2
Atom   9C    basis set group =>   1
Atom  10N    basis set group =>   3
Atom  11C    basis set group =>   1
Atom  12O    basis set group =>   4
Atom  13C    basis set group =>   1
Atom  14N    basis set group =>   3
Atom  15H    basis set group =>   2
Atom  16H    basis set group =>   2
Atom  17H    basis set group =>   2
Atom  18C    basis set group =>   1
Atom  19C    basis set group =>   1
Atom  20O    basis set group =>   4
Atom  21O    basis set group =>   4
Atom  22H    basis set group =>   2
Atom  23H    basis set group =>   2
Atom  24H    basis set group =>   2
Atom  25H    basis set group =>   2
Atom  26C    basis set group =>   1
Atom  27O    basis set group =>   4
Atom  28O    basis set group =>   4
Atom  29C    basis set group =>   1
Atom  30H    basis set group =>   2
Atom  31H    basis set group =>   2
Atom  32H    basis set group =>   2
Atom  33H    basis set group =>   2
Atom  34H    basis set group =>   2
Atom  35H    basis set group =>   2
Atom  36H    basis set group =>   2
Atom  37H    basis set group =>   2
Atom  38H    basis set group =>   2
------------------------------------------------------------------------------
                           ORCA GTO INTEGRAL CALCULATION
------------------------------------------------------------------------------

                         BASIS SET STATISTICS AND STARTUP INFO

 # of primitive gaussian shells          ...  387
 # of primitive gaussian functions       ...  639
 # of contracted shells                  ...  162
 # of contracted basis functions         ...  330
 Highest angular momentum                ...    2
 Maximum contraction depth               ...    6
 Integral package used                   ... LIBINT
 Integral threshhold            Thresh   ...  2.500e-11
 Primitive cut-off              TCut     ...  2.500e-12


------------------------------ INTEGRAL EVALUATION ----------------------------


 * One electron integrals 
 Pre-screening matrix                    ... done
 Shell pair data                         ... done (   0.004 sec)

-------------------------------------------------------------------------------
                                 ORCA SCF
-------------------------------------------------------------------------------

------------
SCF SETTINGS
------------
Hamiltonian:
 Density Functional     Method          .... DFT(GTOs)
 Exchange Functional    Exchange        .... WB97X
 Correlation Functional Correlation     .... WB97X
 Gradients option       PostSCFGGA      .... off
 Hybrid DFT is turned on
   Fraction HF Exchange ScalHFX         ....  0.157706
   Scaling of DF-GGA-X  ScalDFX         ....  0.000000
   Scaling of DF-GGA-C  ScalDFC         ....  1.000000
   Scaling of DF-LDA-C  ScalLDAC        ....  1.000000
   Perturbative correction              ....  0.000000
   Density functional embedding theory  .... OFF
 Long-range corrected/Screened/Range-Separated Hybrid DFT is turned on
   Amount of maximum screened exact exchange              ....  0.842294
   Range separation parameter mu (erf(mu*r12)/r12)        ....  0.300000


General Settings:
 Integral files         IntName         .... aspartame
 Hartree-Fock type      HFTyp           .... RHF
 Total Charge           Charge          ....    0
 Multiplicity           Mult            ....    1
 Number of Electrons    NEL             ....  156
 Basis Dimension        Dim             ....  330
 Nuclear Repulsion      ENuc            ....   1811.0144607967 Eh

Convergence Acceleration:
 DIIS                   CNVDIIS         .... on
   Start iteration      DIISMaxIt       ....    12
   Startup error        DIISStart       ....  0.200000
   # of expansion vecs  DIISMaxEq       ....     5
   Bias factor          DIISBfac        ....   1.050
   Max. coefficient     DIISMaxC        ....  10.000
 Newton-Raphson         CNVNR           .... off
 SOSCF                  CNVSOSCF        .... on
   Start iteration      SOSCFMaxIt      ....   150
   Startup grad/error   SOSCFStart      ....  0.003300
 Level Shifting         CNVShift        .... on
   Level shift para.    LevelShift      ....    0.2500
   Turn off err/grad.   ShiftErr        ....    0.0010
 Zerner damping         CNVZerner       .... off
 Static damping         CNVDamp         .... on
   Fraction old density DampFac         ....    0.7000
   Max. Damping (<1)    DampMax         ....    0.9800
   Min. Damping (>=0)   DampMin         ....    0.0000
   Turn off err/grad.   DampErr         ....    0.1000
 Fernandez-Rico         CNVRico         .... off

SCF Procedure:
 Maximum # iterations   MaxIter         ....   125
 SCF integral mode      SCFMode         .... Direct
   Integral package                     .... LIBINT
 Reset frequency        DirectResetFreq ....    20
 Integral Threshold     Thresh          ....  2.500e-11 Eh
 Primitive CutOff       TCut            ....  2.500e-12 Eh

Convergence Tolerance:
 Convergence Check Mode ConvCheckMode   .... Total+1el-Energy
 Convergence forced     ConvForced      .... 0
 Energy Change          TolE            ....  1.000e-08 Eh
 1-El. energy change                    ....  1.000e-05 Eh
 Orbital Gradient       TolG            ....  1.000e-05
 Orbital Rotation angle TolX            ....  1.000e-05
 DIIS Error             TolErr          ....  5.000e-07


Diagonalization of the overlap matrix:
Smallest eigenvalue                        ... 4.371e-04
Time for diagonalization                   ...    0.015 sec
Threshold for overlap eigenvalues          ... 1.000e-08
Number of eigenvalues below threshold      ... 0
Time for construction of square roots      ...    0.007 sec
Total time needed                          ...    0.023 sec

-------------------
DFT GRID GENERATION
-------------------

General Integration Accuracy     IntAcc      ...  4.670
Radial Grid Type                 RadialGrid  ... Gauss-Chebyshev
Angular Grid (max. acc.)         AngularGrid ... Lebedev-302
Angular grid pruning method      GridPruning ... 3 (G Style)
Weight generation scheme         WeightScheme... Becke
Basis function cutoff            BFCut       ...    1.0000e-11
Integration weight cutoff        WCut        ...    1.0000e-14
Grids for H and He will be reduced by one unit

# of grid points (after initial pruning)     ... 191544 (   0.2 sec)
# of grid points (after weights+screening)   ... 165841 (   1.5 sec)
nearest neighbour list constructed           ...    0.0 sec
Grid point re-assignment to atoms done       ...    0.0 sec
Grid point division into batches done        ...    0.5 sec
Reduced shell lists constructed in    2.2 sec

Total number of grid points                  ...   165841
Total number of batches                      ...     2611
Average number of points per batch           ...       63
Average number of grid points per atom       ...     4252
Average number of shells per batch           ...    75.33 (46.50%)
Average number of basis functions per batch  ...   152.21 (46.12%)
Average number of large shells per batch     ...    47.81 (63.46%)
Average number of large basis fcns per batch ...    98.02 (64.40%)
Maximum spatial batch extension              ...  21.49, 20.25, 20.25 au
Average spatial batch extension              ...   2.16,  2.15,  2.21 au

Time for grid setup =    3.828 sec

------------------------------
INITIAL GUESS: MODEL POTENTIAL
------------------------------
Loading Hartree-Fock densities                     ... done
Calculating cut-offs                               ... done
Setting up the integral package                    ... done
Initializing the effective Hamiltonian             ... done
Starting the Coulomb interaction                   ... done (   0.9 sec)
Reading the grid                                   ... done
Mapping shells                                     ... done
Starting the XC term evaluation                    ... done (   2.3 sec)
  promolecular density results
     # of electrons  =    155.990359779
     EX              =   -130.869550754
     EC              =     -5.264470608
     EX+EC           =   -136.134021362
Transforming the Hamiltonian                       ... done (   0.0 sec)
Diagonalizing the Hamiltonian                      ... done (   0.0 sec)
Back transforming the eigenvectors                 ... done (   0.0 sec)
Now organizing SCF variables                       ... done
                      ------------------
                      INITIAL GUESS DONE (   7.1 sec)
                      ------------------
--------------
SCF ITERATIONS
--------------
ITER       Energy         Delta-E        Max-DP      RMS-DP      [F,P]     Damp
               ***  Starting incremental Fock matrix formation  ***
  0  -1029.1690790365   0.000000000000 0.07312310  0.00146455  0.2525095 0.7000
  1  -1029.4061220114  -0.237042974899 0.04614646  0.00103268  0.1231457 0.7000
                               ***Turning on DIIS***
  2  -1029.5188770381  -0.112755026676 0.07481779  0.00192798  0.0573222 0.0000
  3  -1029.7069199208  -0.188042882674 0.03444544  0.00068303  0.0598484 0.0000
  4  -1029.7337249616  -0.026805040868 0.00637858  0.00016851  0.0075275 0.0000
  5  -1029.7346640537  -0.000939092116 0.00354079  0.00006256  0.0050666 0.0000
                      *** Initiating the SOSCF procedure ***
                           *** Shutting down DIIS ***
                      *** Re-Reading the Fockian *** 
                      *** Removing any level shift *** 
ITER      Energy       Delta-E        Grad      Rot      Max-DP    RMS-DP
  6  -1029.73477959  -0.0001155318  0.000946  0.000946  0.001768  0.000044
               *** Restarting incremental Fock matrix formation ***
  7  -1029.73480579  -0.0000262087  0.000285  0.000262  0.001125  0.000021
  8  -1029.73480729  -0.0000014931  0.000572  0.000565  0.000606  0.000008
  9  -1029.73481246  -0.0000051716  0.000059  0.000152  0.000161  0.000004
 10  -1029.73481261  -0.0000001470  0.000033  0.000074  0.000090  0.000002
 11  -1029.73481268  -0.0000000750  0.000013  0.000018  0.000027  0.000000
 12  -1029.73481269  -0.0000000042  0.000003  0.000005  0.000010  0.000000
                  ***Gradient check signals convergence***
              ***Rediagonalizing the Fockian in SOSCF/NRSCF***

               *****************************************************
               *                     SUCCESS                       *
               *           SCF CONVERGED AFTER  13 CYCLES          *
               *****************************************************

Setting up the final grid:

General Integration Accuracy     IntAcc      ...  5.010
Radial Grid Type                 RadialGrid  ... Gauss-Chebyshev
Angular Grid (max. acc.)         AngularGrid ... Lebedev-434
Angular grid pruning method      GridPruning ... 3 (G Style)
Weight generation scheme         WeightScheme... Becke
Basis function cutoff            BFCut       ...    1.0000e-11
Integration weight cutoff        WCut        ...    1.0000e-14
Grids for H and He will be reduced by one unit

# of grid points (after initial pruning)     ... 345618 (   0.2 sec)
# of grid points (after weights+screening)   ... 298468 (   2.6 sec)
nearest neighbour list constructed           ...    0.0 sec
Grid point re-assignment to atoms done       ...    0.0 sec
Grid point division into batches done        ...    1.9 sec
Reduced shell lists constructed in    4.6 sec

Total number of grid points                  ...   298468
Total number of batches                      ...     4686
Average number of points per batch           ...       63
Average number of grid points per atom       ...     7653
Average number of shells per batch           ...    72.72 (44.89%)
Average number of basis functions per batch  ...   146.53 (44.40%)
Average number of large shells per batch     ...    45.71 (62.86%)
Average number of large basis fcns per batch ...    93.59 (63.87%)
Maximum spatial batch extension              ...  21.28, 23.23, 20.64 au
Average spatial batch extension              ...   1.74,  1.73,  1.78 au

Final grid set up in    7.5 sec
Final integration                            ... done (   5.8 sec)
Change in XC energy                          ...    -0.003090305
Integrated number of electrons               ...   156.000093116
Previous integrated no of electrons          ...   155.999501459

----------------
TOTAL SCF ENERGY
----------------

Total Energy       :        -1029.73790299 Eh          -28020.59288 eV

Components:
Nuclear Repulsion  :         1811.01446080 Eh           49280.20884 eV
Electronic Energy  :        -2840.75236379 Eh          -77300.80172 eV
One Electron Energy:        -5004.44679489 Eh         -136177.92044 eV
Two Electron Energy:         2163.69443110 Eh           58877.11873 eV

Virial components:
Potential Energy   :        -2053.06334177 Eh          -55866.69374 eV
Kinetic Energy     :         1023.32543878 Eh           27846.10086 eV
Virial Ratio       :            2.00626630


DFT components:
N(Alpha)           :       78.000046557998 electrons
N(Beta)            :       78.000046557998 electrons
N(Total)           :      156.000093115997 electrons
E(XC)              :      -97.784741122704 Eh       
DFET-embed. en.    :        0.000000000000 Eh       

---------------
SCF CONVERGENCE
---------------

  Last Energy change         ...    1.4024e-09  Tolerance :   1.0000e-08
  Last MAX-Density change    ...    5.7188e-06  Tolerance :   1.0000e-07
  Last RMS-Density change    ...    7.2988e-08  Tolerance :   5.0000e-09
  Last Orbital Gradient      ...    2.0226e-06  Tolerance :   1.0000e-05
  Last Orbital Rotation      ...    3.4758e-06  Tolerance :   1.0000e-05

             **** THE GBW FILE WAS UPDATED (aspartame.gbw) ****
             **** DENSITY FILE WAS UPDATED (aspartame.scfp) ****
             **** ENERGY FILE WAS UPDATED (aspartame.en.tmp) ****
             **** THE GBW FILE WAS UPDATED (aspartame.gbw) ****
             **** DENSITY FILE WAS UPDATED (aspartame.scfp) ****
----------------
ORBITAL ENERGIES
----------------

  NO   OCC          E(Eh)            E(eV) 
   0   2.0000     -19.267138      -524.2855 
   1   2.0000     -19.249231      -523.7982 
   2   2.0000     -19.208950      -522.7021 
   3   2.0000     -19.198154      -522.4083 
   4   2.0000     -19.169264      -521.6222 
   5   2.0000     -14.416731      -392.2992 
   6   2.0000     -14.386906      -391.4876 
   7   2.0000     -10.399717      -282.9907 
   8   2.0000     -10.396821      -282.9119 
   9   2.0000     -10.356761      -281.8218 
  10   2.0000     -10.320403      -280.8325 
  11   2.0000     -10.313981      -280.6577 
  12   2.0000     -10.306988      -280.4674 
  13   2.0000     -10.274628      -279.5868 
  14   2.0000     -10.274398      -279.5806 
  15   2.0000     -10.270083      -279.4632 
  16   2.0000     -10.266307      -279.3604 
  17   2.0000     -10.265445      -279.3370 
  18   2.0000     -10.264801      -279.3194 
  19   2.0000     -10.261684      -279.2346 
  20   2.0000     -10.261198      -279.2214 
  21   2.0000      -1.245916       -33.9031 
  22   2.0000      -1.231679       -33.5157 
  23   2.0000      -1.160620       -31.5821 
  24   2.0000      -1.150502       -31.3067 
  25   2.0000      -1.135582       -30.9008 
  26   2.0000      -1.055620       -28.7249 
  27   2.0000      -1.024373       -27.8746 
  28   2.0000      -0.994264       -27.0553 
  29   2.0000      -0.929029       -25.2802 
  30   2.0000      -0.896321       -24.3901 
  31   2.0000      -0.886253       -24.1162 
  32   2.0000      -0.875408       -23.8211 
  33   2.0000      -0.846460       -23.0333 
  34   2.0000      -0.804647       -21.8956 
  35   2.0000      -0.772705       -21.0264 
  36   2.0000      -0.729563       -19.8524 
  37   2.0000      -0.726062       -19.7571 
  38   2.0000      -0.702968       -19.1287 
  39   2.0000      -0.693607       -18.8740 
  40   2.0000      -0.689781       -18.7699 
  41   2.0000      -0.654123       -17.7996 
  42   2.0000      -0.634812       -17.2741 
  43   2.0000      -0.627965       -17.0878 
  44   2.0000      -0.607323       -16.5261 
  45   2.0000      -0.605769       -16.4838 
  46   2.0000      -0.600542       -16.3416 
  47   2.0000      -0.584917       -15.9164 
  48   2.0000      -0.578265       -15.7354 
  49   2.0000      -0.571731       -15.5576 
  50   2.0000      -0.569032       -15.4842 
  51   2.0000      -0.564881       -15.3712 
  52   2.0000      -0.555187       -15.1074 
  53   2.0000      -0.550595       -14.9825 
  54   2.0000      -0.537078       -14.6146 
  55   2.0000      -0.527271       -14.3478 
  56   2.0000      -0.519238       -14.1292 
  57   2.0000      -0.516704       -14.0602 
  58   2.0000      -0.511143       -13.9089 
  59   2.0000      -0.503598       -13.7036 
  60   2.0000      -0.498651       -13.5690 
  61   2.0000      -0.491189       -13.3659 
  62   2.0000      -0.480269       -13.0688 
  63   2.0000      -0.471421       -12.8280 
  64   2.0000      -0.464118       -12.6293 
  65   2.0000      -0.461485       -12.5576 
  66   2.0000      -0.457890       -12.4598 
  67   2.0000      -0.439753       -11.9663 
  68   2.0000      -0.436791       -11.8857 
  69   2.0000      -0.415397       -11.3035 
  70   2.0000      -0.411178       -11.1887 
  71   2.0000      -0.384243       -10.4558 
  72   2.0000      -0.379502       -10.3268 
  73   2.0000      -0.357234        -9.7208 
  74   2.0000      -0.348071        -9.4715 
  75   2.0000      -0.338456        -9.2099 
  76   2.0000      -0.334158        -9.0929 
  77   2.0000      -0.329482        -8.9656 
  78   0.0000       0.073999         2.0136 
  79   0.0000       0.085553         2.3280 
  80   0.0000       0.109078         2.9682 
  81   0.0000       0.111041         3.0216 
  82   0.0000       0.132781         3.6131 
  83   0.0000       0.179545         4.8857 
  84   0.0000       0.194312         5.2875 
  85   0.0000       0.197721         5.3803 
  86   0.0000       0.210022         5.7150 
  87   0.0000       0.213831         5.8186 
  88   0.0000       0.222964         6.0671 
  89   0.0000       0.226930         6.1751 
  90   0.0000       0.240119         6.5340 
  91   0.0000       0.247680         6.7397 
  92   0.0000       0.250916         6.8278 
  93   0.0000       0.253564         6.8998 
  94   0.0000       0.259133         7.0514 
  95   0.0000       0.262069         7.1313 
  96   0.0000       0.265842         7.2339 
  97   0.0000       0.271951         7.4002 
  98   0.0000       0.274586         7.4719 
  99   0.0000       0.283893         7.7251 
 100   0.0000       0.290878         7.9152 
 101   0.0000       0.300393         8.1741 
 102   0.0000       0.307286         8.3617 
 103   0.0000       0.310059         8.4371 
 104   0.0000       0.327525         8.9124 
 105   0.0000       0.330369         8.9898 
 106   0.0000       0.342331         9.3153 
 107   0.0000       0.350877         9.5478 
 108   0.0000       0.360364         9.8060 
 109   0.0000       0.384201        10.4546 
 110   0.0000       0.395795        10.7701 
 111   0.0000       0.405575        11.0363 
 112   0.0000       0.413323        11.2471 
 113   0.0000       0.423320        11.5191 
 114   0.0000       0.440416        11.9843 
 115   0.0000       0.442244        12.0341 
 116   0.0000       0.455531        12.3956 
 117   0.0000       0.465467        12.6660 
 118   0.0000       0.473737        12.8910 
 119   0.0000       0.492123        13.3914 
 120   0.0000       0.551269        15.0008 
 121   0.0000       0.561758        15.2862 
 122   0.0000       0.577392        15.7116 
 123   0.0000       0.614464        16.7204 
 124   0.0000       0.621975        16.9248 
 125   0.0000       0.634050        17.2534 
 126   0.0000       0.642124        17.4731 
 127   0.0000       0.648940        17.6585 
 128   0.0000       0.656888        17.8748 
 129   0.0000       0.660496        17.9730 
 130   0.0000       0.669394        18.2151 
 131   0.0000       0.678791        18.4708 
 132   0.0000       0.680842        18.5267 
 133   0.0000       0.683986        18.6122 
 134   0.0000       0.688291        18.7294 
 135   0.0000       0.694704        18.9039 
 136   0.0000       0.707334        19.2475 
 137   0.0000       0.708524        19.2799 
 138   0.0000       0.713764        19.4225 
 139   0.0000       0.721500        19.6330 
 140   0.0000       0.728641        19.8273 
 141   0.0000       0.735659        20.0183 
 142   0.0000       0.747395        20.3376 
 143   0.0000       0.750782        20.4298 
 144   0.0000       0.761188        20.7130 
 145   0.0000       0.771826        21.0024 
 146   0.0000       0.784478        21.3467 
 147   0.0000       0.803607        21.8673 
 148   0.0000       0.810771        22.0622 
 149   0.0000       0.819669        22.3043 
 150   0.0000       0.826885        22.5007 
 151   0.0000       0.831544        22.6275 
 152   0.0000       0.844022        22.9670 
 153   0.0000       0.858356        23.3570 
 154   0.0000       0.870286        23.6817 
 155   0.0000       0.877328        23.8733 
 156   0.0000       0.887044        24.1377 
 157   0.0000       0.899422        24.4745 
 158   0.0000       0.911737        24.8096 
 159   0.0000       0.914279        24.8788 
 160   0.0000       0.938368        25.5343 
 161   0.0000       0.942201        25.6386 
 162   0.0000       0.944284        25.6953 
 163   0.0000       0.952708        25.9245 
 164   0.0000       0.958799        26.0903 
 165   0.0000       0.962052        26.1788 
 166   0.0000       0.966208        26.2919 
 167   0.0000       0.972081        26.4517 
 168   0.0000       0.973416        26.4880 
 169   0.0000       0.978510        26.6266 
 170   0.0000       0.982192        26.7268 
 171   0.0000       0.986865        26.8540 
 172   0.0000       1.003789        27.3145 
 173   0.0000       1.008573        27.4447 
 174   0.0000       1.015572        27.6351 
 175   0.0000       1.023386        27.8477 
 176   0.0000       1.032640        28.0996 
 177   0.0000       1.046741        28.4833 
 178   0.0000       1.049003        28.5448 
 179   0.0000       1.053007        28.6538 
 180   0.0000       1.059641        28.8343 
 181   0.0000       1.073560        29.2130 
 182   0.0000       1.075915        29.2771 
 183   0.0000       1.084421        29.5086 
 184   0.0000       1.090723        29.6801 
 185   0.0000       1.096488        29.8369 
 186   0.0000       1.105102        30.0714 
 187   0.0000       1.117296        30.4032 
 188   0.0000       1.137935        30.9648 
 189   0.0000       1.142316        31.0840 
 190   0.0000       1.159353        31.5476 
 191   0.0000       1.168189        31.7880 
 192   0.0000       1.179784        32.1036 
 193   0.0000       1.195601        32.5340 
 194   0.0000       1.226200        33.3666 
 195   0.0000       1.231123        33.5006 
 196   0.0000       1.246260        33.9124 
 197   0.0000       1.249947        34.0128 
 198   0.0000       1.253866        34.1194 
 199   0.0000       1.268915        34.5289 
 200   0.0000       1.282849        34.9081 
 201   0.0000       1.285812        34.9887 
 202   0.0000       1.306001        35.5381 
 203   0.0000       1.321557        35.9614 
 204   0.0000       1.334050        36.3013 
 205   0.0000       1.336634        36.3716 
 206   0.0000       1.357159        36.9302 
 207   0.0000       1.366312        37.1792 
 208   0.0000       1.388814        37.7915 
 209   0.0000       1.407538        38.3010 
 210   0.0000       1.429169        38.8897 
 211   0.0000       1.455887        39.6167 
 212   0.0000       1.481419        40.3115 
 213   0.0000       1.494430        40.6655 
 214   0.0000       1.512379        41.1539 
 215   0.0000       1.529845        41.6292 
 216   0.0000       1.534483        41.7554 
 217   0.0000       1.549072        42.1524 
 218   0.0000       1.565903        42.6104 
 219   0.0000       1.584971        43.1293 
 220   0.0000       1.591270        43.3007 
 221   0.0000       1.595477        43.4151 
 222   0.0000       1.600720        43.5578 
 223   0.0000       1.606246        43.7082 
 224   0.0000       1.619157        44.0595 
 225   0.0000       1.626840        44.2686 
 226   0.0000       1.639238        44.6059 
 227   0.0000       1.644083        44.7378 
 228   0.0000       1.681542        45.7571 
 229   0.0000       1.698568        46.2204 
 230   0.0000       1.719272        46.7838 
 231   0.0000       1.751008        47.6474 
 232   0.0000       1.768663        48.1278 
 233   0.0000       1.794083        48.8195 
 234   0.0000       1.812919        49.3320 
 235   0.0000       1.832420        49.8627 
 236   0.0000       1.848631        50.3038 
 237   0.0000       1.854216        50.4558 
 238   0.0000       1.860290        50.6211 
 239   0.0000       1.887681        51.3664 
 240   0.0000       1.894278        51.5459 
 241   0.0000       1.905532        51.8522 
 242   0.0000       1.916625        52.1540 
 243   0.0000       1.929804        52.5126 
 244   0.0000       1.945794        52.9478 
 245   0.0000       1.949703        53.0541 
 246   0.0000       1.960050        53.3357 
 247   0.0000       1.970356        53.6161 
 248   0.0000       1.979643        53.8688 
 249   0.0000       1.982344        53.9423 
 250   0.0000       1.990162        54.1551 
 251   0.0000       2.005632        54.5760 
 252   0.0000       2.015892        54.8552 
 253   0.0000       2.042131        55.5692 
 254   0.0000       2.046513        55.6885 
 255   0.0000       2.056560        55.9618 
 256   0.0000       2.070111        56.3306 
 257   0.0000       2.078289        56.5531 
 258   0.0000       2.083203        56.6868 
 259   0.0000       2.093162        56.9578 
 260   0.0000       2.102107        57.2012 
 261   0.0000       2.112233        57.4768 
 262   0.0000       2.121434        57.7271 
 263   0.0000       2.135167        58.1009 
 264   0.0000       2.153685        58.6047 
 265   0.0000       2.159951        58.7753 
 266   0.0000       2.170834        59.0714 
 267   0.0000       2.175250        59.1916 
 268   0.0000       2.190912        59.6177 
 269   0.0000       2.203916        59.9716 
 270   0.0000       2.210515        60.1512 
 271   0.0000       2.228774        60.6480 
 272   0.0000       2.251147        61.2568 
 273   0.0000       2.259243        61.4771 
 274   0.0000       2.265270        61.6411 
 275   0.0000       2.271961        61.8232 
 276   0.0000       2.291779        62.3625 
 277   0.0000       2.298519        62.5459 
 278   0.0000       2.304462        62.7076 
 279   0.0000       2.328097        63.3507 
 280   0.0000       2.329950        63.4011 
 281   0.0000       2.353278        64.0360 
 282   0.0000       2.391879        65.0863 
 283   0.0000       2.409059        65.5538 
 284   0.0000       2.413329        65.6700 
 285   0.0000       2.418650        65.8148 
 286   0.0000       2.433229        66.2115 
 287   0.0000       2.463354        67.0313 
 288   0.0000       2.473512        67.3077 
 289   0.0000       2.477578        67.4183 
 290   0.0000       2.489934        67.7546 
 291   0.0000       2.499673        68.0196 
 292   0.0000       2.519496        68.5590 
 293   0.0000       2.524665        68.6996 
 294   0.0000       2.556318        69.5609 
 295   0.0000       2.597725        70.6877 
 296   0.0000       2.607887        70.9642 
 297   0.0000       2.625747        71.4502 
 298   0.0000       2.644361        71.9567 
 299   0.0000       2.660499        72.3959 
 300   0.0000       2.688207        73.1498 
 301   0.0000       2.700236        73.4772 
 302   0.0000       2.716548        73.9210 
 303   0.0000       2.742713        74.6330 
 304   0.0000       2.781236        75.6813 
 305   0.0000       2.785876        75.8075 
 306   0.0000       2.792383        75.9846 
 307   0.0000       2.801172        76.2238 
 308   0.0000       2.819625        76.7259 
 309   0.0000       2.837546        77.2135 
 310   0.0000       2.865241        77.9672 
 311   0.0000       2.876378        78.2702 
 312   0.0000       2.883645        78.4680 
 313   0.0000       2.888882        78.6105 
 314   0.0000       2.905805        79.0710 
 315   0.0000       2.909184        79.1629 
 316   0.0000       2.931500        79.7702 
 317   0.0000       2.967654        80.7540 
 318   0.0000       3.008801        81.8736 
 319   0.0000       3.054041        83.1047 
 320   0.0000       3.077741        83.7496 
 321   0.0000       3.095558        84.2344 
 322   0.0000       3.144122        85.5559 
 323   0.0000       3.166320        86.1600 
 324   0.0000       3.187690        86.7414 
 325   0.0000       3.201300        87.1118 
 326   0.0000       3.224340        87.7387 
 327   0.0000       3.299411        89.7815 
 328   0.0000       3.348546        91.1186 
 329   0.0000       3.566662        97.0538 

                    ********************************
                    * MULLIKEN POPULATION ANALYSIS *
                    ********************************

-----------------------
MULLIKEN ATOMIC CHARGES
-----------------------
   0 C :   -0.173696
   1 C :   -0.138595
   2 C :   -0.251256
   3 C :   -0.119301
   4 C :   -0.198819
   5 C :    0.145333
   6 C :   -0.380299
   7 H :    0.185520
   8 H :    0.168322
   9 C :   -0.085014
  10 N :   -0.594321
  11 C :    0.544507
  12 O :   -0.475620
  13 C :   -0.117552
  14 N :   -0.770252
  15 H :    0.321154
  16 H :    0.346077
  17 H :    0.193602
  18 C :   -0.381171
  19 C :    0.550713
  20 O :   -0.447014
  21 O :   -0.564361
  22 H :    0.434108
  23 H :    0.181420
  24 H :    0.211651
  25 H :    0.376871
  26 C :    0.586349
  27 O :   -0.430923
  28 O :   -0.452003
  29 C :   -0.251847
  30 H :    0.186747
  31 H :    0.182476
  32 H :    0.185429
  33 H :    0.218190
  34 H :    0.154327
  35 H :    0.169854
  36 H :    0.162740
  37 H :    0.166563
  38 H :    0.160094
Sum of atomic charges:    0.0000000

--------------------------------
MULLIKEN REDUCED ORBITAL CHARGES
--------------------------------
  0 C s       :     3.163741  s :     3.163741
      pz      :     0.989243  p :     2.973165
      px      :     0.993156
      py      :     0.990767
      dz2     :     0.007718  d :     0.036789
      dxz     :     0.013767
      dyz     :     0.004357
      dx2y2   :     0.005802
      dxy     :     0.005145
  1 C s       :     3.163166  s :     3.163166
      pz      :     1.007042  p :     2.937868
      px      :     0.948891
      py      :     0.981935
      dz2     :     0.009303  d :     0.037561
      dxz     :     0.010697
      dyz     :     0.004982
      dx2y2   :     0.005592
      dxy     :     0.006989
  2 C s       :     3.197549  s :     3.197549
      pz      :     0.959745  p :     3.016466
      px      :     1.023018
      py      :     1.033703
      dz2     :     0.010566  d :     0.037241
      dxz     :     0.009437
      dyz     :     0.006505
      dx2y2   :     0.006557
      dxy     :     0.004176
  3 C s       :     3.163228  s :     3.163228
      pz      :     0.971396  p :     2.918429
      px      :     0.989697
      py      :     0.957336
      dz2     :     0.007885  d :     0.037644
      dxz     :     0.013754
      dyz     :     0.004504
      dx2y2   :     0.006064
      dxy     :     0.005438
  4 C s       :     3.171675  s :     3.171675
      pz      :     1.016043  p :     2.990205
      px      :     0.970561
      py      :     1.003600
      dz2     :     0.009241  d :     0.036939
      dxz     :     0.010601
      dyz     :     0.004979
      dx2y2   :     0.005650
      dxy     :     0.006467
  5 C s       :     3.102079  s :     3.102079
      pz      :     0.883886  p :     2.710284
      px      :     0.888178
      py      :     0.938219
      dz2     :     0.010319  d :     0.042303
      dxz     :     0.012049
      dyz     :     0.006685
      dx2y2   :     0.006561
      dxy     :     0.006690
  6 C s       :     3.254736  s :     3.254736
      pz      :     1.065594  p :     3.085390
      px      :     1.026507
      py      :     0.993288
      dz2     :     0.011708  d :     0.040174
      dxz     :     0.004683
      dyz     :     0.006032
      dx2y2   :     0.006763
      dxy     :     0.010988
  7 H s       :     0.814480  s :     0.814480
  8 H s       :     0.831678  s :     0.831678
  9 C s       :     3.197341  s :     3.197341
      pz      :     1.099769  p :     2.829319
      px      :     0.865737
      py      :     0.863813
      dz2     :     0.014544  d :     0.058355
      dxz     :     0.005089
      dyz     :     0.008534
      dx2y2   :     0.016498
      dxy     :     0.013690
 10 N s       :     3.543355  s :     3.543355
      pz      :     1.321347  p :     4.019462
      px      :     1.350460
      py      :     1.347655
      dz2     :     0.006737  d :     0.031505
      dxz     :     0.004928
      dyz     :     0.008685
      dx2y2   :     0.005330
      dxy     :     0.005824
 11 C s       :     2.979997  s :     2.979997
      pz      :     0.766715  p :     2.358194
      px      :     0.783723
      py      :     0.807757
      dz2     :     0.028307  d :     0.117302
      dxz     :     0.032883
      dyz     :     0.030389
      dx2y2   :     0.014770
      dxy     :     0.010953
 12 O s       :     3.837898  s :     3.837898
      pz      :     1.385756  p :     4.609264
      px      :     1.633839
      py      :     1.589669
      dz2     :     0.010487  d :     0.028458
      dxz     :     0.007031
      dyz     :     0.007674
      dx2y2   :     0.001358
      dxy     :     0.001908
 13 C s       :     3.198662  s :     3.198662
      pz      :     0.834838  p :     2.859751
      px      :     0.944265
      py      :     1.080649
      dz2     :     0.015303  d :     0.059139
      dxz     :     0.015700
      dyz     :     0.010672
      dx2y2   :     0.008028
      dxy     :     0.009435
 14 N s       :     3.621660  s :     3.621660
      pz      :     1.143311  p :     4.115499
      px      :     1.740777
      py      :     1.231410
      dz2     :     0.007297  d :     0.033093
      dxz     :     0.006693
      dyz     :     0.006567
      dx2y2   :     0.002066
      dxy     :     0.010470
 15 H s       :     0.678846  s :     0.678846
 16 H s       :     0.653923  s :     0.653923
 17 H s       :     0.806398  s :     0.806398
 18 C s       :     3.256953  s :     3.256953
      pz      :     1.104112  p :     3.087619
      px      :     0.990414
      py      :     0.993092
      dz2     :     0.011168  d :     0.036599
      dxz     :     0.004683
      dyz     :     0.004956
      dx2y2   :     0.006267
      dxy     :     0.009525
 19 C s       :     2.985476  s :     2.985476
      pz      :     0.749548  p :     2.330567
      px      :     0.747409
      py      :     0.833610
      dz2     :     0.033054  d :     0.133245
      dxz     :     0.032218
      dyz     :     0.049363
      dx2y2   :     0.009428
      dxy     :     0.009181
 20 O s       :     3.832735  s :     3.832735
      pz      :     1.371352  p :     4.586031
      px      :     1.496181
      py      :     1.718498
      dz2     :     0.009713  d :     0.028248
      dxz     :     0.009689
      dyz     :     0.007400
      dx2y2   :     0.000587
      dxy     :     0.000859
 21 O s       :     3.838020  s :     3.838020
      pz      :     1.631245  p :     4.698528
      px      :     1.721493
      py      :     1.345790
      dz2     :     0.005787  d :     0.027812
      dxz     :     0.005721
      dyz     :     0.010367
      dx2y2   :     0.004304
      dxy     :     0.001633
 22 H s       :     0.565892  s :     0.565892
 23 H s       :     0.818580  s :     0.818580
 24 H s       :     0.788349  s :     0.788349
 25 H s       :     0.623129  s :     0.623129
 26 C s       :     2.972236  s :     2.972236
      pz      :     0.750645  p :     2.310237
      px      :     0.822188
      py      :     0.737404
      dz2     :     0.023409  d :     0.131177
      dxz     :     0.024659
      dyz     :     0.020326
      dx2y2   :     0.027256
      dxy     :     0.035528
 27 O s       :     3.834866  s :     3.834866
      pz      :     1.408706  p :     4.566241
      px      :     1.755077
      py      :     1.402459
      dz2     :     0.007961  d :     0.029816
      dxz     :     0.003251
      dyz     :     0.007409
      dx2y2   :     0.006168
      dxy     :     0.005028
 28 O s       :     3.829300  s :     3.829300
      pz      :     1.702245  p :     4.593057
      px      :     1.238494
      py      :     1.652318
      dz2     :     0.004649  d :     0.029646
      dxz     :     0.006243
      dyz     :     0.004621
      dx2y2   :     0.006432
      dxy     :     0.007701
 29 C s       :     3.250485  s :     3.250485
      pz      :     1.117539  p :     2.942934
      px      :     0.706965
      py      :     1.118429
      dz2     :     0.012619  d :     0.058428
      dxz     :     0.011507
      dyz     :     0.005583
      dx2y2   :     0.016221
      dxy     :     0.012498
 30 H s       :     0.813253  s :     0.813253
 31 H s       :     0.817524  s :     0.817524
 32 H s       :     0.814571  s :     0.814571
 33 H s       :     0.781810  s :     0.781810
 34 H s       :     0.845673  s :     0.845673
 35 H s       :     0.830146  s :     0.830146
 36 H s       :     0.837260  s :     0.837260
 37 H s       :     0.833437  s :     0.833437
 38 H s       :     0.839906  s :     0.839906


                     *******************************
                     * LOEWDIN POPULATION ANALYSIS *
                     *******************************

----------------------
LOEWDIN ATOMIC CHARGES
----------------------
   0 C :   -0.127284
   1 C :   -0.125822
   2 C :   -0.176629
   3 C :   -0.118343
   4 C :   -0.135526
   5 C :   -0.015916
   6 C :   -0.228768
   7 H :    0.145136
   8 H :    0.134954
   9 C :   -0.090188
  10 N :   -0.191433
  11 C :    0.092792
  12 O :   -0.278308
  13 C :   -0.099916
  14 N :   -0.474995
  15 H :    0.234692
  16 H :    0.240637
  17 H :    0.148124
  18 C :   -0.274292
  19 C :    0.136917
  20 O :   -0.252722
  21 O :   -0.269057
  22 H :    0.329776
  23 H :    0.147171
  24 H :    0.162018
  25 H :    0.271662
  26 C :    0.136792
  27 O :   -0.223487
  28 O :   -0.148723
  29 C :   -0.217373
  30 H :    0.138169
  31 H :    0.135971
  32 H :    0.139606
  33 H :    0.164069
  34 H :    0.135346
  35 H :    0.142116
  36 H :    0.135118
  37 H :    0.139935
  38 H :    0.137782

-------------------------------
LOEWDIN REDUCED ORBITAL CHARGES
-------------------------------
  0 C s       :     2.903779  s :     2.903779
      pz      :     1.062196  p :     3.136698
      px      :     1.074132
      py      :     1.000370
      dz2     :     0.019081  d :     0.086807
      dxz     :     0.032897
      dyz     :     0.009540
      dx2y2   :     0.013499
      dxy     :     0.011791
  1 C s       :     2.907156  s :     2.907156
      pz      :     1.070584  p :     3.130044
      px      :     1.074277
      py      :     0.985183
      dz2     :     0.021113  d :     0.088623
      dxz     :     0.028112
      dyz     :     0.009134
      dx2y2   :     0.014806
      dxy     :     0.015458
  2 C s       :     2.909423  s :     2.909423
      pz      :     1.075201  p :     3.179649
      px      :     1.075591
      py      :     1.028857
      dz2     :     0.027274  d :     0.087557
      dxz     :     0.025330
      dyz     :     0.014818
      dx2y2   :     0.012150
      dxy     :     0.007985
  3 C s       :     2.908785  s :     2.908785
      pz      :     1.068689  p :     3.120941
      px      :     1.077234
      py      :     0.975018
      dz2     :     0.019811  d :     0.088617
      dxz     :     0.032693
      dyz     :     0.009922
      dx2y2   :     0.013823
      dxy     :     0.012368
  4 C s       :     2.905886  s :     2.905886
      pz      :     1.067192  p :     3.142597
      px      :     1.068314
      py      :     1.007091
      dz2     :     0.020798  d :     0.087043
      dxz     :     0.027856
      dyz     :     0.009028
      dx2y2   :     0.014963
      dxy     :     0.014397
  5 C s       :     2.865193  s :     2.865193
      pz      :     1.065657  p :     3.045968
      px      :     1.025720
      py      :     0.954591
      dz2     :     0.028120  d :     0.104756
      dxz     :     0.031974
      dyz     :     0.015306
      dx2y2   :     0.015052
      dxy     :     0.014304
  6 C s       :     2.923969  s :     2.923969
      pz      :     1.097783  p :     3.220824
      px      :     1.065156
      py      :     1.057885
      dz2     :     0.023165  d :     0.083975
      dxz     :     0.009473
      dyz     :     0.013046
      dx2y2   :     0.015774
      dxy     :     0.022517
  7 H s       :     0.854864  s :     0.854864
  8 H s       :     0.865046  s :     0.865046
  9 C s       :     2.883395  s :     2.883395
      pz      :     1.116078  p :     3.076685
      px      :     0.978460
      py      :     0.982147
      dz2     :     0.029667  d :     0.130108
      dxz     :     0.010715
      dyz     :     0.019716
      dx2y2   :     0.038399
      dxy     :     0.031611
 10 N s       :     3.103993  s :     3.103993
      pz      :     1.309117  p :     4.007204
      px      :     1.354389
      py      :     1.343699
      dz2     :     0.016785  d :     0.080236
      dxz     :     0.015255
      dyz     :     0.018908
      dx2y2   :     0.012868
      dxy     :     0.016419
 11 C s       :     2.843523  s :     2.843523
      pz      :     0.976051  p :     2.785771
      px      :     0.890229
      py      :     0.919490
      dz2     :     0.065868  d :     0.277915
      dxz     :     0.081973
      dyz     :     0.072718
      dx2y2   :     0.032533
      dxy     :     0.024823
 12 O s       :     3.542238  s :     3.542238
      pz      :     1.459565  p :     4.679396
      px      :     1.623805
      py      :     1.596027
      dz2     :     0.021345  d :     0.056674
      dxz     :     0.012479
      dyz     :     0.017212
      dx2y2   :     0.002707
      dxy     :     0.002930
 13 C s       :     2.890477  s :     2.890477
      pz      :     0.963738  p :     3.078960
      px      :     1.026399
      py      :     1.088822
      dz2     :     0.035517  d :     0.130480
      dxz     :     0.034195
      dyz     :     0.022346
      dx2y2   :     0.018847
      dxy     :     0.019575
 14 N s       :     3.247822  s :     3.247822
      pz      :     1.205567  p :     4.164622
      px      :     1.719303
      py      :     1.239752
      dz2     :     0.017040  d :     0.062551
      dxz     :     0.011762
      dyz     :     0.016206
      dx2y2   :     0.003580
      dxy     :     0.013963
 15 H s       :     0.765308  s :     0.765308
 16 H s       :     0.759363  s :     0.759363
 17 H s       :     0.851876  s :     0.851876
 18 C s       :     2.940151  s :     2.940151
      pz      :     1.126716  p :     3.256487
      px      :     1.062249
      py      :     1.067523
      dz2     :     0.021607  d :     0.077653
      dxz     :     0.009695
      dyz     :     0.010640
      dx2y2   :     0.015671
      dxy     :     0.020040
 19 C s       :     2.843818  s :     2.843818
      pz      :     0.992183  p :     2.711821
      px      :     0.775125
[...]
 16 H s       :     0.651627  s :     0.651627
 17 H s       :     0.808379  s :     0.808379
 18 C s       :     3.259907  s :     3.259907
      pz      :     1.098002  p :     3.089155
      px      :     0.986168
      py      :     1.004985
      dz2     :     0.010527  d :     0.036803
      dxz     :     0.004758
      dyz     :     0.005879
      dx2y2   :     0.006201
      dxy     :     0.009438
 19 C s       :     2.989237  s :     2.989237
      pz      :     0.763811  p :     2.326747
      px      :     0.742844
      py      :     0.820092
      dz2     :     0.030059  d :     0.130333
      dxz     :     0.030455
      dyz     :     0.049780
      dx2y2   :     0.010021
      dxy     :     0.010018
 20 O s       :     3.837005  s :     3.837005
      pz      :     1.353431  p :     4.585751
      px      :     1.500211
      py      :     1.732110
      dz2     :     0.010241  d :     0.028003
      dxz     :     0.009755
      dyz     :     0.007192
      dx2y2   :     0.000278
      dxy     :     0.000537
 21 O s       :     3.847169  s :     3.847169
      pz      :     1.637329  p :     4.688849
      px      :     1.721265
      py      :     1.330254
      dz2     :     0.004580  d :     0.029092
      dxz     :     0.005616
      dyz     :     0.013563
      dx2y2   :     0.003875
      dxy     :     0.001458
 22 H s       :     0.567131  s :     0.567131
 23 H s       :     0.817634  s :     0.817634
 24 H s       :     0.785578  s :     0.785578
 25 H s       :     0.619894  s :     0.619894
 26 C s       :     2.976314  s :     2.976314
      pz      :     0.751911  p :     2.307058
      px      :     0.823221
      py      :     0.731925
      dz2     :     0.022181  d :     0.129102
      dxz     :     0.023626
      dyz     :     0.020092
      dx2y2   :     0.027969
      dxy     :     0.035234
 27 O s       :     3.840174  s :     3.840174
      pz      :     1.403746  p :     4.564883
      px      :     1.752214
      py      :     1.408924
      dz2     :     0.007851  d :     0.029545
      dxz     :     0.003194
      dyz     :     0.007383
      dx2y2   :     0.006045
      dxy     :     0.005071
 28 O s       :     3.835882  s :     3.835882
      pz      :     1.708218  p :     4.590389
      px      :     1.242834
      py      :     1.639338
      dz2     :     0.004459  d :     0.029618
      dxz     :     0.006279
      dyz     :     0.004643
      dx2y2   :     0.006488
      dxy     :     0.007750
 29 C s       :     3.253645  s :     3.253645
      pz      :     1.110153  p :     2.939699
      px      :     0.709503
      py      :     1.120043
      dz2     :     0.013249  d :     0.057700
      dxz     :     0.010943
      dyz     :     0.005361
      dx2y2   :     0.015257
      dxy     :     0.012891
 30 H s       :     0.812880  s :     0.812880
 31 H s       :     0.816115  s :     0.816115
 32 H s       :     0.815462  s :     0.815462
 33 H s       :     0.783150  s :     0.783150
 34 H s       :     0.839172  s :     0.839172
 35 H s       :     0.829800  s :     0.829800
 36 H s       :     0.834741  s :     0.834741
 37 H s       :     0.831619  s :     0.831619
 38 H s       :     0.835180  s :     0.835180


                     *******************************
                     * LOEWDIN POPULATION ANALYSIS *
                     *******************************

----------------------
LOEWDIN ATOMIC CHARGES
----------------------
   0 C :   -0.120521
   1 C :   -0.127531
   2 C :   -0.164034
   3 C :   -0.139844
   4 C :   -0.129785
   5 C :   -0.018746
   6 C :   -0.228586
   7 H :    0.145891
   8 H :    0.134394
   9 C :   -0.090406
  10 N :   -0.196846
  11 C :    0.101862
  12 O :   -0.289131
  13 C :   -0.098885
  14 N :   -0.478818
  15 H :    0.235306
  16 H :    0.241813
  17 H :    0.148541
  18 C :   -0.272735
  19 C :    0.144777
  20 O :   -0.260336
  21 O :   -0.273503
  22 H :    0.330943
  23 H :    0.147802
  24 H :    0.163419
  25 H :    0.273450
  26 C :    0.144246
  27 O :   -0.227296
  28 O :   -0.153880
  29 C :   -0.215940
  30 H :    0.138340
  31 H :    0.136722
  32 H :    0.139088
  33 H :    0.163673
  34 H :    0.137917
  35 H :    0.141161
  36 H :    0.137262
  37 H :    0.140702
  38 H :    0.139516

-------------------------------
LOEWDIN REDUCED ORBITAL CHARGES
-------------------------------
  0 C s       :     2.910009  s :     2.910009
      pz      :     1.065827  p :     3.125723
      px      :     1.068676
      py      :     0.991220
      dz2     :     0.019822  d :     0.084788
      dxz     :     0.031745
      dyz     :     0.009908
      dx2y2   :     0.012374
      dxy     :     0.010940
  1 C s       :     2.912199  s :     2.912199
      pz      :     1.073853  p :     3.129262
      px      :     1.065425
      py      :     0.989985
      dz2     :     0.021861  d :     0.086069
      dxz     :     0.027114
      dyz     :     0.009522
      dx2y2   :     0.013759
      dxy     :     0.013813
  2 C s       :     2.915092  s :     2.915092
      pz      :     1.073291  p :     3.163240
      px      :     1.072947
      py      :     1.017002
      dz2     :     0.027497  d :     0.085702
      dxz     :     0.024786
      dyz     :     0.015424
      dx2y2   :     0.009539
      dxy     :     0.008456
  3 C s       :     2.914347  s :     2.914347
      pz      :     1.072718  p :     3.139333
      px      :     1.070741
      py      :     0.995873
      dz2     :     0.020124  d :     0.086164
      dxz     :     0.031467
      dyz     :     0.010414
      dx2y2   :     0.012848
      dxy     :     0.011311
  4 C s       :     2.911931  s :     2.911931
      pz      :     1.070960  p :     3.132694
      px      :     1.060607
      py      :     1.001127
      dz2     :     0.021514  d :     0.085160
      dxz     :     0.026760
      dyz     :     0.009300
      dx2y2   :     0.013819
      dxy     :     0.013768
  5 C s       :     2.870121  s :     2.870121
      pz      :     1.069252  p :     3.046893
      px      :     1.021468
      py      :     0.956173
      dz2     :     0.028195  d :     0.101732
      dxz     :     0.031952
      dyz     :     0.015283
      dx2y2   :     0.013595
      dxy     :     0.012707
  6 C s       :     2.926572  s :     2.926572
      pz      :     1.100121  p :     3.218867
      px      :     1.063605
      py      :     1.055142
      dz2     :     0.023659  d :     0.083146
      dxz     :     0.008864
      dyz     :     0.011771
      dx2y2   :     0.015383
      dxy     :     0.023469
  7 H s       :     0.854109  s :     0.854109
  8 H s       :     0.865606  s :     0.865606
  9 C s       :     2.882274  s :     2.882274
      pz      :     1.117400  p :     3.077773
      px      :     0.979175
      py      :     0.981198
      dz2     :     0.030326  d :     0.130359
      dxz     :     0.010810
      dyz     :     0.019167
      dx2y2   :     0.039131
      dxy     :     0.030926
 10 N s       :     3.108509  s :     3.108509
      pz      :     1.327791  p :     4.009643
      px      :     1.358115
      py      :     1.323736
      dz2     :     0.014355  d :     0.078694
      dxz     :     0.015094
      dyz     :     0.019814
      dx2y2   :     0.012907
      dxy     :     0.016525
 11 C s       :     2.849891  s :     2.849891
      pz      :     0.967019  p :     2.778577
      px      :     0.887479
      py      :     0.924079
      dz2     :     0.065563  d :     0.269671
      dxz     :     0.077856
      dyz     :     0.068509
      dx2y2   :     0.032876
      dxy     :     0.024866
 12 O s       :     3.550049  s :     3.550049
      pz      :     1.456629  p :     4.683794
      px      :     1.624779
      py      :     1.602386
      dz2     :     0.020227  d :     0.055287
      dxz     :     0.011912
      dyz     :     0.017034
      dx2y2   :     0.002919
      dxy     :     0.003196
 13 C s       :     2.890748  s :     2.890748
      pz      :     0.971270  p :     3.078792
      px      :     1.026707
      py      :     1.080815
      dz2     :     0.031773  d :     0.129344
      dxz     :     0.030967
      dyz     :     0.026252
      dx2y2   :     0.020159
      dxy     :     0.020194
 14 N s       :     3.252835  s :     3.252835
      pz      :     1.206545  p :     4.164675
      px      :     1.715060
      py      :     1.243070
      dz2     :     0.016060  d :     0.061308
      dxz     :     0.014213
      dyz     :     0.013648
      dx2y2   :     0.007987
      dxy     :     0.009400
 15 H s       :     0.764694  s :     0.764694
 16 H s       :     0.758187  s :     0.758187
 17 H s       :     0.851459  s :     0.851459
 18 C s       :     2.940219  s :     2.940219
      pz      :     1.122603  p :     3.254500
      px      :     1.059496
      py      :     1.072401
      dz2     :     0.020521  d :     0.078016
      dxz     :     0.009678
      dyz     :     0.012705
      dx2y2   :     0.015404
      dxy     :     0.019708
 19 C s       :     2.849220  s :     2.849220
      pz      :     0.999900  p :     2.706711
      px      :     0.774705
      py      :     0.932106
      dz2     :     0.073328  d :     0.299292
      dxz     :     0.066567
      dyz     :     0.117891
      dx2y2   :     0.020485
      dxy     :     0.021021
 20 O s       :     3.550010  s :     3.550010
      pz      :     1.457346  p :     4.655020
      px      :     1.485446
      py      :     1.712228
      dz2     :     0.026443  d :     0.055306
      dxz     :     0.013572
      dyz     :     0.014118
      dx2y2   :     0.000514
      dxy     :     0.000658
 21 O s       :     3.516304  s :     3.516304
      pz      :     1.649809  p :     4.702952
      px      :     1.705660
      py      :     1.347483
      dz2     :     0.007922  d :     0.054247
      dxz     :     0.008387
      dyz     :     0.024004
      dx2y2   :     0.008331
      dxy     :     0.005602
 22 H s       :     0.669057  s :     0.669057
 23 H s       :     0.852198  s :     0.852198
 24 H s       :     0.836581  s :     0.836581
 25 H s       :     0.726550  s :     0.726550
 26 C s       :     2.847168  s :     2.847168
      pz      :     0.844798  p :     2.708671
      px      :     0.965889
      py      :     0.897984
      dz2     :     0.044841  d :     0.299915
      dxz     :     0.054564
      dyz     :     0.051206
      dx2y2   :     0.065395
      dxy     :     0.083908
 27 O s       :     3.546369  s :     3.546369
      pz      :     1.427531  p :     4.623488
      px      :     1.736520
      py      :     1.459437
      dz2     :     0.010294  d :     0.057439
      dxz     :     0.006644
      dyz     :     0.018486
      dx2y2   :     0.011317
      dxy     :     0.010698
 28 O s       :     3.456918  s :     3.456918
      pz      :     1.694708  p :     4.627899
      px      :     1.287448
      py      :     1.645743
      dz2     :     0.008499  d :     0.069062
      dxz     :     0.015568
      dyz     :     0.007817
      dx2y2   :     0.016594
      dxy     :     0.020585
 29 C s       :     2.972382  s :     2.972382
      pz      :     1.148312  p :     3.128995
      px      :     0.826628
      py      :     1.154055
      dz2     :     0.025140  d :     0.114564
      dxz     :     0.023137
      dyz     :     0.008605
      dx2y2   :     0.030879
      dxy     :     0.026803
 30 H s       :     0.861660  s :     0.861660
 31 H s       :     0.863278  s :     0.863278
 32 H s       :     0.860912  s :     0.860912
 33 H s       :     0.836327  s :     0.836327
 34 H s       :     0.862083  s :     0.862083
 35 H s       :     0.858839  s :     0.858839
 36 H s       :     0.862738  s :     0.862738
 37 H s       :     0.859298  s :     0.859298
 38 H s       :     0.860484  s :     0.860484


                      *****************************
                      * MAYER POPULATION ANALYSIS *
                      *****************************

  NA   - Mulliken gross atomic population
  ZA   - Total nuclear charge
  QA   - Mulliken gross atomic charge
  VA   - Mayer's total valence
  BVA  - Mayer's bonded valence
  FA   - Mayer's free valence

  ATOM       NA         ZA         QA         VA         BVA        FA
  0 C      6.1711     6.0000    -0.1711     3.9494     3.9494     0.0000
  1 C      6.1436     6.0000    -0.1436     3.9473     3.9473    -0.0000
  2 C      6.2198     6.0000    -0.2198     3.9363     3.9363    -0.0000
  3 C      6.1669     6.0000    -0.1669     3.9392     3.9392     0.0000
  4 C      6.1882     6.0000    -0.1882     3.9705     3.9705    -0.0000
  5 C      5.8595     6.0000     0.1405     3.9476     3.9476     0.0000
  6 C      6.3781     6.0000    -0.3781     3.8348     3.8348    -0.0000
  7 H      0.8131     1.0000     0.1869     0.9303     0.9303     0.0000
  8 H      0.8334     1.0000     0.1666     0.9357     0.9357    -0.0000
  9 C      6.0765     6.0000    -0.0765     3.7598     3.7598    -0.0000
 10 N      7.6007     7.0000    -0.6007     2.9353     2.9353     0.0000
 11 C      5.4490     6.0000     0.5510     3.9341     3.9341     0.0000
 12 O      8.4846     8.0000    -0.4846     2.0583     2.0583    -0.0000
 13 C      6.1138     6.0000    -0.1138     3.8560     3.8560    -0.0000
 14 N      7.7726     7.0000    -0.7726     2.7470     2.7470     0.0000
 15 H      0.6786     1.0000     0.3214     0.8597     0.8597    -0.0000
 16 H      0.6516     1.0000     0.3484     0.8724     0.8724     0.0000
 17 H      0.8084     1.0000     0.1916     0.9247     0.9247    -0.0000
 18 C      6.3859     6.0000    -0.3859     3.7740     3.7740    -0.0000
 19 C      5.4463     6.0000     0.5537     3.9987     3.9987     0.0000
 20 O      8.4508     8.0000    -0.4508     2.0625     2.0625    -0.0000
 21 O      8.5651     8.0000    -0.5651     1.9539     1.9539     0.0000
 22 H      0.5671     1.0000     0.4329     0.8170     0.8170     0.0000
 23 H      0.8176     1.0000     0.1824     0.9325     0.9325     0.0000
 24 H      0.7856     1.0000     0.2144     0.9322     0.9322    -0.0000
 25 H      0.6199     1.0000     0.3801     0.8638     0.8638    -0.0000
 26 C      5.4125     6.0000     0.5875     3.9336     3.9336     0.0000
 27 O      8.4346     8.0000    -0.4346     2.0988     2.0988    -0.0000
 28 O      8.4559     8.0000    -0.4559     2.0077     2.0077    -0.0000
 29 C      6.2510     6.0000    -0.2510     3.7398     3.7398     0.0000
 30 H      0.8129     1.0000     0.1871     0.9296     0.9296    -0.0000
 31 H      0.8161     1.0000     0.1839     0.9306     0.9306    -0.0000
 32 H      0.8155     1.0000     0.1845     0.9313     0.9313     0.0000
 33 H      0.7832     1.0000     0.2168     0.9404     0.9404    -0.0000
 34 H      0.8392     1.0000     0.1608     0.9396     0.9396    -0.0000
 35 H      0.8298     1.0000     0.1702     0.9355     0.9355     0.0000
 36 H      0.8347     1.0000     0.1653     0.9359     0.9359    -0.0000
 37 H      0.8316     1.0000     0.1684     0.9352     0.9352    -0.0000
 38 H      0.8352     1.0000     0.1648     0.9381     0.9381    -0.0000

  Mayer bond orders larger than 0.100000
B(  0-C ,  1-C ) :   1.4758 B(  0-C ,  5-C ) :   1.4162 B(  0-C , 38-H ) :   0.9286 
B(  1-C ,  2-C ) :   1.4224 B(  1-C , 37-H ) :   0.9333 B(  2-C ,  3-C ) :   1.4474 
B(  2-C , 36-H ) :   0.9350 B(  3-C ,  4-C ) :   1.4284 B(  3-C , 35-H ) :   0.9325 
B(  4-C ,  5-C ) :   1.4666 B(  4-C , 34-H ) :   0.9291 B(  5-C ,  6-C ) :   0.9829 
B(  6-C ,  7-H ) :   0.9257 B(  6-C ,  8-H ) :   0.9394 B(  6-C ,  9-C ) :   0.9646 
B(  9-C , 10-N ) :   0.9332 B(  9-C , 26-C ) :   0.9409 B(  9-C , 33-H ) :   0.8961 
B( 10-N , 11-C ) :   1.1577 B( 10-N , 25-H ) :   0.7643 B( 11-C , 12-O ) :   1.8437 
B( 11-C , 13-C ) :   0.9258 B( 13-C , 14-N ) :   1.0207 B( 13-C , 17-H ) :   0.9294 
B( 13-C , 18-C ) :   0.9683 B( 14-N , 15-H ) :   0.8596 B( 14-N , 16-H ) :   0.8076 
B( 18-C , 19-C ) :   0.9615 B( 18-C , 23-H ) :   0.9312 B( 18-C , 24-H ) :   0.9126 
B( 19-C , 20-O ) :   1.8638 B( 19-C , 21-O ) :   1.1526 B( 21-O , 22-H ) :   0.7128 
B( 26-C , 27-O ) :   1.9235 B( 26-C , 28-O ) :   1.0565 B( 28-O , 29-C ) :   0.8677 
B( 29-C , 30-H ) :   0.9381 B( 29-C , 31-H ) :   0.9384 B( 29-C , 32-H ) :   0.9476 


-------
TIMINGS
-------

Total SCF time: 0 days 0 hours 5 min 51 sec 

Total time                  ....     351.480 sec
Sum of individual times     ....     351.140 sec  ( 99.9%)

Fock matrix formation       ....     339.517 sec  ( 96.6%)
  XC integration            ....      26.865 sec  (  7.9% of F)
    Basis function eval.    ....       9.168 sec  ( 34.1% of XC)
    Density eval.           ....       5.745 sec  ( 21.4% of XC)
    XC-Functional eval.     ....       6.751 sec  ( 25.1% of XC)
    XC-Potential eval.      ....       4.325 sec  ( 16.1% of XC)
Diagonalization             ....       0.020 sec  (  0.0%)
Density matrix formation    ....       0.022 sec  (  0.0%)
Population analysis         ....       0.015 sec  (  0.0%)
Initial guess               ....       0.019 sec  (  0.0%)
Orbital Transformation      ....       0.000 sec  (  0.0%)
Orbital Orthonormalization  ....       0.014 sec  (  0.0%)
DIIS solution               ....       0.006 sec  (  0.0%)
SOSCF solution              ....       0.096 sec  (  0.0%)
Grid generation             ....      11.445 sec  (  3.3%)

-------------------------   --------------------
FINAL SINGLE POINT ENERGY     -1029.742659545488
-------------------------   --------------------

                                *** OPTIMIZATION RUN DONE ***

                            ***************************************
                            *     ORCA property calculations      *
                            ***************************************

                                    ---------------------
                                    Active property flags
                                    ---------------------
   (+) Dipole Moment


------------------------------------------------------------------------------
                       ORCA ELECTRIC PROPERTIES CALCULATION
------------------------------------------------------------------------------

Dipole Moment Calculation                       ... on
Quadrupole Moment Calculation                   ... off
Polarizability Calculation                      ... off
GBWName                                         ... aspartame.gbw
Electron density file                           ... aspartame.scfp
The origin for moment calculation is the CENTER OF MASS  = (-0.002951,  0.007059  0.020057)

-------------
DIPOLE MOMENT
-------------
                                X             Y             Z
Electronic contribution:      2.87246       0.72352      -1.29783
Nuclear contribution   :     -3.16748      -0.90154       1.53793
                        -----------------------------------------
Total Dipole Moment    :     -0.29502      -0.17801       0.24009
                        -----------------------------------------
Magnitude (a.u.)       :      0.41996
Magnitude (Debye)      :      1.06746



--------------------
Rotational spectrum 
--------------------
 
Rotational constants in cm-1:     0.014609     0.008093     0.006110 
Rotational constants in MHz :   437.963256   242.618943   183.161553 

 Dipole components along the rotational axes: 
x,y,z [a.u.] :    -0.290203    -0.180698     0.243927 
x,y,z [Debye]:    -0.737637    -0.459298     0.620014 

 

Timings for individual modules:

Sum of individual times         ...     8812.918 sec (= 146.882 min)
GTO integral calculation        ...        4.925 sec (=   0.082 min)   0.1 %
SCF iterations                  ...     5982.802 sec (=  99.713 min)  67.9 %
SCF Gradient evaluation         ...     2822.461 sec (=  47.041 min)  32.0 %
Geometry relaxation             ...        2.729 sec (=   0.045 min)   0.0 %
                             ****ORCA TERMINATED NORMALLY****
TOTAL RUN TIME: 0 days 2 hours 26 minutes 55 seconds 392 msec
